
    -----------------------------------------------------------------------
          Psi4: An Open-Source Ab Initio Electronic Structure Package
                               Psi4 1.4a3.dev225 

                         Git: Rev {master} 7105e37 


    D. G. A. Smith, L. A. Burns, A. C. Simmonett, R. M. Parrish,
    M. C. Schieber, R. Galvelis, P. Kraus, H. Kruse, R. Di Remigio,
    A. Alenaizan, A. M. James, S. Lehtola, J. P. Misiewicz, M. Scheurer,
    R. A. Shaw, J. B. Schriber, Y. Xie, Z. L. Glick, D. A. Sirianni,
    J. S. O'Brien, J. M. Waldrop, A. Kumar, E. G. Hohenstein,
    B. P. Pritchard, B. R. Brooks, H. F. Schaefer III, A. Yu. Sokolov,
    K. Patkowski, A. E. DePrince III, U. Bozkaya, R. A. King,
    F. A. Evangelista, J. M. Turney, T. D. Crawford, C. D. Sherrill,
    J. Chem. Phys. 152(18) 184108 (2020). https://doi.org/10.1063/5.0006002

                            Additional Code Authors
    E. T. Seidl, C. L. Janssen, E. F. Valeev, M. L. Leininger,
    J. F. Gonthier, R. M. Richard, H. R. McAlexander, M. Saitow, X. Wang,
    P. Verma, and M. H. Lechner

             Previous Authors, Complete List of Code Contributors,
                       and Citations for Specific Modules
    https://github.com/psi4/psi4/blob/master/codemeta.json
    https://github.com/psi4/psi4/graphs/contributors
    http://psicode.org/psi4manual/master/introduction.html#citing-psifour

    -----------------------------------------------------------------------


    Psi4 started on: Saturday, 06 March 2021 11:02PM

    Process ID: 242290
    Host:       c420-011.stampede2.tacc.utexas.edu
    PSIDATADIR: /home1/07844/xy3866/miniconda3/envs/p4env/share/psi4
    Memory:     500.0 MiB
    Threads:    32
    
  ==> Input File <==

--------------------------------------------------------------------------
#psi4
#
memory 32 gb

molecule  {
0 1
  O        0.1020250    -0.5936610     0.2432790
  O        2.2583290    -0.7266490     0.4785580
  O        1.4190320     0.9870310    -0.7687790
  C       -1.1119900     0.0844044    -0.2824111
  C       -2.1583360    -1.0099580    -0.2947280
  C       -1.4377530     1.2430580     0.6217300
  C        1.2597240    -0.0090520    -0.0847670
  H       -0.8680500     0.4152130    -1.2840580
  H       -3.0925200    -0.6019470    -0.6907100
  H       -1.8459410    -1.8462780    -0.9239700
  H       -2.3397190    -1.3819350     0.7169650
  H       -2.3557360     1.7247410     0.2719260
  H       -0.6338990     1.9813890     0.6069580
  H       -1.5931290     0.8972140     1.6473570
  H        3.0793230    -0.2701740     0.2118980
units angstrom
no_reorient  #important for SAPT in psi4, default
symmetry c1  #important for SAPT in psi4, default
}

set PROPERTIES_ORIGIN ["COM"]
properties('MP2/aug-cc-pvtz', properties = ['dipole'])
--------------------------------------------------------------------------

  Memory set to  29.802 GiB by Python driver.
    SCF Algorithm Type (re)set to DF.

*** tstart() called on c420-011.stampede2.tacc.utexas.edu
*** at Sat Mar  6 23:02:48 2021

   => Loading Basis Set <=

    Name: AUG-CC-PVTZ
    Role: ORBITAL
    Keyword: BASIS
    atoms 1-3  entry O          line   331 file /home1/07844/xy3866/miniconda3/envs/p4env/share/psi4/basis/aug-cc-pvtz.gbs 
    atoms 4-7  entry C          line   239 file /home1/07844/xy3866/miniconda3/envs/p4env/share/psi4/basis/aug-cc-pvtz.gbs 
    atoms 8-15 entry H          line    40 file /home1/07844/xy3866/miniconda3/envs/p4env/share/psi4/basis/aug-cc-pvtz.gbs 


         ---------------------------------------------------------
                                   SCF
               by Justin Turney, Rob Parrish, Andy Simmonett
                          and Daniel G. A. Smith
                              RHF Reference
                       32 Threads,  30517 MiB Core
         ---------------------------------------------------------

  ==> Geometry <==

    Molecular point group: c1
    Full point group: C1

    Geometry (in Angstrom), charge = 0, multiplicity = 1:

       Center              X                  Y                   Z               Mass       
    ------------   -----------------  -----------------  -----------------  -----------------
         O            0.012205154264    -0.586895500785     0.249739779041    15.994914619570
         O            2.168509154264    -0.719883500785     0.485018779041    15.994914619570
         O            1.329212154264     0.993796499215    -0.762318220959    15.994914619570
         C           -1.201809845736     0.091169899215    -0.275950320959    12.000000000000
         C           -2.248155845736    -1.003192500785    -0.288267220959    12.000000000000
         C           -1.527572845736     1.249823499215     0.628190779041    12.000000000000
         C            1.169904154264    -0.002286500785    -0.078306220959    12.000000000000
         H           -0.957869845736     0.421978499215    -1.277597220959     1.007825032230
         H           -3.182339845736    -0.595181500785    -0.684249220959     1.007825032230
         H           -1.935760845736    -1.839512500785    -0.917509220959     1.007825032230
         H           -2.429538845736    -1.375169500785     0.723425779041     1.007825032230
         H           -2.445555845736     1.731506499215     0.278386779041     1.007825032230
         H           -0.723718845736     1.988154499215     0.613418779041     1.007825032230
         H           -1.682948845736     0.903979499215     1.653817779041     1.007825032230
         H            2.989503154264    -0.263408500785     0.218358779041     1.007825032230

  Running in c1 symmetry.

  Rotational constants: A =      0.16560  B =      0.05765  C =      0.04962 [cm^-1]
  Rotational constants: A =   4964.65211  B =   1728.39988  C =   1487.62249 [MHz]
  Nuclear repulsion =  324.080148944938230

  Charge       = 0
  Multiplicity = 1
  Electrons    = 56
  Nalpha       = 28
  Nbeta        = 28

  ==> Algorithm <==

  SCF Algorithm Type is DF.
  DIIS enabled.
  MOM disabled.
  Fractional occupation disabled.
  Guess Type is SAD.
  Energy threshold   = 1.00e-10
  Density threshold  = 1.00e-10
  Integral threshold = 1.00e-12

  ==> Primary Basis <==

  Basis Set: AUG-CC-PVTZ
    Blend: AUG-CC-PVTZ
    Number of shells: 170
    Number of basis functions: 506
    Number of Cartesian functions: 585
    Spherical Harmonics?: true
    Max angular momentum: 3

   => Loading Basis Set <=

    Name: (AUG-CC-PVTZ AUX)
    Role: JKFIT
    Keyword: DF_BASIS_SCF
    atoms 1-3  entry O          line   286 file /home1/07844/xy3866/miniconda3/envs/p4env/share/psi4/basis/aug-cc-pvtz-jkfit.gbs 
    atoms 4-7  entry C          line   162 file /home1/07844/xy3866/miniconda3/envs/p4env/share/psi4/basis/aug-cc-pvtz-jkfit.gbs 
    atoms 8-15 entry H          line    70 file /home1/07844/xy3866/miniconda3/envs/p4env/share/psi4/basis/aug-cc-pvtz-jkfit.gbs 

  ==> Integral Setup <==

  DFHelper Memory: AOs need 2.086 GiB; user supplied 22.352 GiB. Using in-core AOs.

  ==> MemDFJK: Density-Fitted J/K Matrices <==

    J tasked:                   Yes
    K tasked:                   Yes
    wK tasked:                   No
    OpenMP threads:              32
    Memory [MiB]:             22888
    Algorithm:                 Core
    Schwarz Cutoff:           1E-12
    Mask sparsity (%):       6.0226
    Fitting Condition:        1E-10

   => Auxiliary Basis Set <=

  Basis Set: (AUG-CC-PVTZ AUX)
    Blend: AUG-CC-PVTZ-JKFIT
    Number of shells: 322
    Number of basis functions: 1096
    Number of Cartesian functions: 1357
    Spherical Harmonics?: true
    Max angular momentum: 4

  Minimum eigenvalue in the overlap matrix is 7.4724850440E-06.
  Reciprocal condition number of the overlap matrix is 4.1348981650E-07.
    Using symmetric orthogonalization.

  ==> Pre-Iterations <==

  SCF Guess: Superposition of Atomic Densities via on-the-fly atomic UHF (no occupation information).

   -------------------------
    Irrep   Nso     Nmo    
   -------------------------
     A        506     506 
   -------------------------
    Total     506     506
   -------------------------

  ==> Iterations <==

                           Total Energy        Delta E     RMS |[F,P]|

   @DF-RHF iter SAD:  -379.86375430110172   -3.79864e+02   0.00000e+00 
   @DF-RHF iter   1:  -380.62027145290898   -7.56517e-01   1.52927e-03 DIIS
   @DF-RHF iter   2:  -380.82619933071504   -2.05928e-01   8.91244e-04 DIIS
   @DF-RHF iter   3:  -380.89575255216965   -6.95532e-02   1.44348e-04 DIIS
   @DF-RHF iter   4:  -380.89908427237697   -3.33172e-03   6.20081e-05 DIIS
   @DF-RHF iter   5:  -380.89963910265749   -5.54830e-04   1.58426e-05 DIIS
   @DF-RHF iter   6:  -380.89968522195204   -4.61193e-05   6.54794e-06 DIIS
   @DF-RHF iter   7:  -380.89969505772893   -9.83578e-06   1.93019e-06 DIIS
   @DF-RHF iter   8:  -380.89969644559801   -1.38787e-06   8.16647e-07 DIIS
   @DF-RHF iter   9:  -380.89969665800800   -2.12410e-07   2.83811e-07 DIIS
   @DF-RHF iter  10:  -380.89969668252252   -2.45145e-08   9.64386e-08 DIIS
   @DF-RHF iter  11:  -380.89969668508030   -2.55778e-09   3.28584e-08 DIIS
   @DF-RHF iter  12:  -380.89969668531421   -2.33911e-10   1.00734e-08 DIIS
   @DF-RHF iter  13:  -380.89969668533581   -2.16005e-11   2.04113e-09 DIIS
   @DF-RHF iter  14:  -380.89969668533752   -1.70530e-12   6.64646e-10 DIIS
   @DF-RHF iter  15:  -380.89969668533666    8.52651e-13   1.78331e-10 DIIS
   @DF-RHF iter  16:  -380.89969668533683   -1.70530e-13   4.91432e-11 DIIS
  Energy and wave function converged.


  ==> Post-Iterations <==

    Orbital Energies [Eh]
    ---------------------

    Doubly Occupied:                                                      

       1A    -20.621021     2A    -20.608803     3A    -20.549896  
       4A    -11.438556     5A    -11.302232     6A    -11.227719  
       7A    -11.224548     8A     -1.501372     9A     -1.394885  
      10A     -1.361516    11A     -1.078523    12A     -0.953736  
      13A     -0.880638    14A     -0.790506    15A     -0.742247  
      16A     -0.713876    17A     -0.683188    18A     -0.635565  
      19A     -0.627460    20A     -0.601656    21A     -0.570746  
      22A     -0.554248    23A     -0.539550    24A     -0.526266  
      25A     -0.504800    26A     -0.491839    27A     -0.475947  
      28A     -0.465134  

    Virtual:                                                              

      29A      0.029061    30A      0.033829    31A      0.038628  
      32A      0.041453    33A      0.053092    34A      0.061520  
      35A      0.063489    36A      0.065645    37A      0.091115  
      38A      0.101469    39A      0.109137    40A      0.118803  
      41A      0.122039    42A      0.125094    43A      0.129545  
      44A      0.134984    45A      0.137257    46A      0.144074  
      47A      0.150603    48A      0.153886    49A      0.162306  
      50A      0.168844    51A      0.187022    52A      0.189155  
      53A      0.193731    54A      0.201344    55A      0.209850  
      56A      0.220389    57A      0.223975    58A      0.240170  
      59A      0.242585    60A      0.248956    61A      0.251560  
      62A      0.269147    63A      0.274520    64A      0.288034  
      65A      0.289238    66A      0.292165    67A      0.297122  
      68A      0.305986    69A      0.312491    70A      0.325511  
      71A      0.328193    72A      0.338509    73A      0.340016  
      74A      0.344045    75A      0.353143    76A      0.355156  
      77A      0.364194    78A      0.368020    79A      0.377735  
      80A      0.382052    81A      0.387224    82A      0.389781  
      83A      0.395483    84A      0.402500    85A      0.412055  
      86A      0.418238    87A      0.425929    88A      0.431514  
      89A      0.436002    90A      0.444612    91A      0.448888  
      92A      0.461335    93A      0.462832    94A      0.473164  
      95A      0.475763    96A      0.480740    97A      0.483704  
      98A      0.488488    99A      0.495999   100A      0.504191  
     101A      0.513545   102A      0.519791   103A      0.521862  
     104A      0.526874   105A      0.537369   106A      0.542758  
     107A      0.558725   108A      0.565335   109A      0.570044  
     110A      0.571900   111A      0.590207   112A      0.598530  
     113A      0.600637   114A      0.610874   115A      0.615984  
     116A      0.623667   117A      0.633044   118A      0.640044  
     119A      0.669078   120A      0.678112   121A      0.685795  
     122A      0.701503   123A      0.703878   124A      0.717115  
     125A      0.728163   126A      0.747206   127A      0.755983  
     128A      0.763763   129A      0.786412   130A      0.796642  
     131A      0.804385   132A      0.809479   133A      0.818521  
     134A      0.830719   135A      0.833813   136A      0.839834  
     137A      0.845432   138A      0.854425   139A      0.861013  
     140A      0.870952   141A      0.876379   142A      0.878998  
     143A      0.889065   144A      0.902574   145A      0.904197  
     146A      0.907914   147A      0.930324   148A      0.937304  
     149A      0.941303   150A      0.946029   151A      0.952440  
     152A      0.957388   153A      0.968084   154A      0.971231  
     155A      0.979936   156A      0.987625   157A      0.997546  
     158A      1.006945   159A      1.010619   160A      1.021595  
     161A      1.030576   162A      1.037630   163A      1.043754  
     164A      1.049763   165A      1.060128   166A      1.067312  
     167A      1.079092   168A      1.095777   169A      1.098152  
     170A      1.118923   171A      1.124736   172A      1.127448  
     173A      1.137650   174A      1.146653   175A      1.150419  
     176A      1.161852   177A      1.167352   178A      1.182607  
     179A      1.187906   180A      1.189119   181A      1.207748  
     182A      1.217891   183A      1.229187   184A      1.236371  
     185A      1.246881   186A      1.256540   187A      1.259257  
     188A      1.276321   189A      1.289127   190A      1.295471  
     191A      1.307218   192A      1.319051   193A      1.326134  
     194A      1.340948   195A      1.349211   196A      1.357199  
     197A      1.371544   198A      1.383228   199A      1.404867  
     200A      1.408557   201A      1.417022   202A      1.429537  
     203A      1.436177   204A      1.443145   205A      1.463919  
     206A      1.470985   207A      1.481464   208A      1.490087  
     209A      1.506587   210A      1.512178   211A      1.527115  
     212A      1.539034   213A      1.545824   214A      1.554316  
     215A      1.556977   216A      1.586689   217A      1.592582  
     218A      1.600959   219A      1.610823   220A      1.628254  
     221A      1.641652   222A      1.665190   223A      1.670471  
     224A      1.684970   225A      1.697690   226A      1.707650  
     227A      1.713383   228A      1.722865   229A      1.728782  
     230A      1.736706   231A      1.740462   232A      1.747744  
     233A      1.764309   234A      1.770243   235A      1.775930  
     236A      1.798130   237A      1.803106   238A      1.813786  
     239A      1.823541   240A      1.836339   241A      1.859906  
     242A      1.870512   243A      1.878738   244A      1.894563  
     245A      1.895922   246A      1.899278   247A      1.919126  
     248A      1.932102   249A      1.960212   250A      1.965724  
     251A      1.980170   252A      2.002463   253A      2.012953  
     254A      2.034298   255A      2.035452   256A      2.061682  
     257A      2.067413   258A      2.111177   259A      2.128358  
     260A      2.132974   261A      2.154372   262A      2.162626  
     263A      2.202100   264A      2.217712   265A      2.229697  
     266A      2.233904   267A      2.259469   268A      2.265429  
     269A      2.272086   270A      2.280979   271A      2.299071  
     272A      2.330778   273A      2.344596   274A      2.356025  
     275A      2.365600   276A      2.373996   277A      2.386358  
     278A      2.404404   279A      2.428964   280A      2.435711  
     281A      2.475440   282A      2.498276   283A      2.503107  
     284A      2.520833   285A      2.529115   286A      2.549078  
     287A      2.571128   288A      2.581178   289A      2.590455  
     290A      2.613876   291A      2.620638   292A      2.662596  
     293A      2.689119   294A      2.699836   295A      2.720830  
     296A      2.734503   297A      2.748464   298A      2.755846  
     299A      2.789560   300A      2.819766   301A      2.846749  
     302A      2.868871   303A      2.879905   304A      2.886816  
     305A      2.893365   306A      2.940058   307A      2.968586  
     308A      2.997607   309A      3.006289   310A      3.030114  
     311A      3.070141   312A      3.078900   313A      3.083053  
     314A      3.109686   315A      3.120811   316A      3.204898  
     317A      3.216342   318A      3.277490   319A      3.316712  
     320A      3.344927   321A      3.357686   322A      3.376556  
     323A      3.429972   324A      3.457454   325A      3.468966  
     326A      3.493611   327A      3.495070   328A      3.516907  
     329A      3.525542   330A      3.548019   331A      3.578371  
     332A      3.622805   333A      3.631420   334A      3.644461  
     335A      3.658551   336A      3.668263   337A      3.687611  
     338A      3.709510   339A      3.716383   340A      3.741458  
     341A      3.752951   342A      3.756656   343A      3.780558  
     344A      3.800131   345A      3.825385   346A      3.839728  
     347A      3.849208   348A      3.866519   349A      3.885473  
     350A      3.910464   351A      3.921785   352A      3.938220  
     353A      3.939288   354A      3.956563   355A      3.978767  
     356A      3.988069   357A      3.994074   358A      4.019592  
     359A      4.021518   360A      4.043634   361A      4.074294  
     362A      4.078866   363A      4.115636   364A      4.119031  
     365A      4.171379   366A      4.182645   367A      4.192623  
     368A      4.199105   369A      4.207973   370A      4.216003  
     371A      4.221832   372A      4.256196   373A      4.266794  
     374A      4.289943   375A      4.300634   376A      4.312015  
     377A      4.320871   378A      4.340626   379A      4.346541  
     380A      4.360809   381A      4.379438   382A      4.397427  
     383A      4.441102   384A      4.474511   385A      4.481425  
     386A      4.504742   387A      4.531874   388A      4.542946  
     389A      4.557642   390A      4.565255   391A      4.601663  
     392A      4.635840   393A      4.642398   394A      4.669974  
     395A      4.690473   396A      4.727069   397A      4.735007  
     398A      4.755068   399A      4.766102   400A      4.793230  
     401A      4.841372   402A      4.860690   403A      4.864653  
     404A      4.873227   405A      4.895316   406A      4.925373  
     407A      4.958281   408A      4.967147   409A      4.975264  
     410A      4.998984   411A      5.063547   412A      5.074042  
     413A      5.093267   414A      5.113299   415A      5.160378  
     416A      5.165149   417A      5.173467   418A      5.209309  
     419A      5.226044   420A      5.260845   421A      5.270262  
     422A      5.290095   423A      5.295785   424A      5.341572  
     425A      5.350626   426A      5.360247   427A      5.391066  
     428A      5.427007   429A      5.438230   430A      5.447194  
     431A      5.477522   432A      5.479170   433A      5.512432  
     434A      5.519570   435A      5.549024   436A      5.573433  
     437A      5.640796   438A      5.683466   439A      5.724754  
     440A      5.748380   441A      5.778535   442A      5.805984  
     443A      5.846917   444A      5.859259   445A      5.914002  
     446A      5.969815   447A      6.067734   448A      6.078182  
     449A      6.151732   450A      6.168485   451A      6.200482  
     452A      6.213166   453A      6.257955   454A      6.286459  
     455A      6.324643   456A      6.362784   457A      6.585792  
     458A      6.615242   459A      6.640154   460A      6.747389  
     461A      6.789216   462A      6.805115   463A      6.810189  
     464A      6.834084   465A      6.854094   466A      6.874409  
     467A      6.885272   468A      6.904874   469A      6.939118  
     470A      6.966132   471A      7.029332   472A      7.049664  
     473A      7.115207   474A      7.184749   475A      7.190902  
     476A      7.221035   477A      7.237302   478A      7.269194  
     479A      7.323462   480A      7.380311   481A      7.403254  
     482A      7.427764   483A      7.474509   484A      7.488507  
     485A      7.513346   486A      7.592234   487A      7.621797  
     488A      7.665099   489A      7.706861   490A      7.782961  
     491A      7.925733   492A      7.931489   493A      7.955018  
     494A      8.006721   495A      8.166420   496A      8.282803  
     497A      8.332882   498A      8.589838   499A      8.615953  
     500A     14.838097   501A     15.537840   502A     16.436012  
     503A     18.047969   504A     18.113530   505A     18.917475  
     506A     19.491295  

    Final Occupation by Irrep:
              A 
    DOCC [    28 ]

  @DF-RHF Final Energy:  -380.89969668533683

   => Energetics <=

    Nuclear Repulsion Energy =            324.0801489449382302
    One-Electron Energy =               -1163.8267370282001139
    Two-Electron Energy =                 458.8468913979251056
    Total Energy =                       -380.8996966853368349

Computation Completed

*** tstop() called on c420-011.stampede2.tacc.utexas.edu at Sat Mar  6 23:03:09 2021
Module time:
	user time   =     320.47 seconds =       5.34 minutes
	system time =      27.97 seconds =       0.47 minutes
	total time  =         21 seconds =       0.35 minutes
Total time:
	user time   =     320.47 seconds =       5.34 minutes
	system time =      27.97 seconds =       0.47 minutes
	total time  =         21 seconds =       0.35 minutes
   => Loading Basis Set <=

    Name: (AUG-CC-PVTZ AUX)
    Role: RIFIT
    Keyword: DF_BASIS_MP2
    atoms 1-3  entry O          line   264 file /home1/07844/xy3866/miniconda3/envs/p4env/share/psi4/basis/aug-cc-pvtz-ri.gbs 
    atoms 4-7  entry C          line   148 file /home1/07844/xy3866/miniconda3/envs/p4env/share/psi4/basis/aug-cc-pvtz-ri.gbs 
    atoms 8-15 entry H          line    30 file /home1/07844/xy3866/miniconda3/envs/p4env/share/psi4/basis/aug-cc-pvtz-ri.gbs 


*** tstart() called on c420-011.stampede2.tacc.utexas.edu
*** at Sat Mar  6 23:03:10 2021


  //>>>>>>>>>>>>>>>>>>>>>>>>>>>>>>>>>>>//
  //               DFMP2               //
  //<<<<<<<<<<<<<<<<<<<<<<<<<<<<<<<<<<<//

	 --------------------------------------------------------
	                          DF-MP2                         
	      2nd-Order Density-Fitted Moller-Plesset Theory     
	              RMP2 Wavefunction,  32 Threads             
	                                                         
	        Rob Parrish, Justin Turney, Andy Simmonett,      
	           Ed Hohenstein, and C. David Sherrill          
	 --------------------------------------------------------

   => Auxiliary Basis Set <=

  Basis Set: (AUG-CC-PVTZ AUX)
    Blend: AUG-CC-PVTZ-RI
    Number of shells: 308
    Number of basis functions: 1110
    Number of Cartesian functions: 1392
    Spherical Harmonics?: true
    Max angular momentum: 4

	 --------------------------------------------------------
	                 NBF =   506, NAUX =  1110
	 --------------------------------------------------------
	   CLASS    FOCC     OCC    AOCC    AVIR     VIR    FVIR
	   PAIRS       0      28      28     478     478       0
	 --------------------------------------------------------

  DFHelper Memory: AOs need 2.136 GiB; user supplied 22.352 GiB. Using in-core AOs.


         ------------------------------------------------------------
                                     CPHF                           
                                  Rob Parrish                       
         ------------------------------------------------------------

  ==> Geometry <==

    Molecular point group: c1
    Full point group: C1

    Geometry (in Angstrom), charge = 0, multiplicity = 1:

       Center              X                  Y                   Z               Mass       
    ------------   -----------------  -----------------  -----------------  -----------------
         O            0.012205154264    -0.586895500785     0.249739779041    15.994914619570
         O            2.168509154264    -0.719883500785     0.485018779041    15.994914619570
         O            1.329212154264     0.993796499215    -0.762318220959    15.994914619570
         C           -1.201809845736     0.091169899215    -0.275950320959    12.000000000000
         C           -2.248155845736    -1.003192500785    -0.288267220959    12.000000000000
         C           -1.527572845736     1.249823499215     0.628190779041    12.000000000000
         C            1.169904154264    -0.002286500785    -0.078306220959    12.000000000000
         H           -0.957869845736     0.421978499215    -1.277597220959     1.007825032230
         H           -3.182339845736    -0.595181500785    -0.684249220959     1.007825032230
         H           -1.935760845736    -1.839512500785    -0.917509220959     1.007825032230
         H           -2.429538845736    -1.375169500785     0.723425779041     1.007825032230
         H           -2.445555845736     1.731506499215     0.278386779041     1.007825032230
         H           -0.723718845736     1.988154499215     0.613418779041     1.007825032230
         H           -1.682948845736     0.903979499215     1.653817779041     1.007825032230
         H            2.989503154264    -0.263408500785     0.218358779041     1.007825032230

  Nuclear repulsion =  324.080148944938230
  Reference energy  = -380.899696685336835

  ==> Basis Set <==

  Basis Set: AUG-CC-PVTZ
    Blend: AUG-CC-PVTZ
    Number of shells: 170
    Number of basis functions: 506
    Number of Cartesian functions: 585
    Spherical Harmonics?: true
    Max angular momentum: 3

  ==> CGRSolver (by Rob Parrish) <==

   Number of roots    =         1
   Preconditioning    =    JACOBI
   Convergence cutoff =     1E-06
   Maximum iterations =       100

  ==> CPHFRHamiltonian (by Rob Parrish) <== 

  ==> MemDFJK: Density-Fitted J/K Matrices <==

    J tasked:                   Yes
    K tasked:                   Yes
    wK tasked:                   No
    OpenMP threads:              32
    Memory [MiB]:             22888
    Algorithm:                 Core
    Schwarz Cutoff:           1E-12
    Mask sparsity (%):       3.6284
    Fitting Condition:        1E-10

   => Auxiliary Basis Set <=

  Basis Set: (AUG-CC-PVTZ AUX)
    Blend: AUG-CC-PVTZ-JKFIT
    Number of shells: 322
    Number of basis functions: 1096
    Number of Cartesian functions: 1357
    Spherical Harmonics?: true
    Max angular momentum: 4

  ==> CPHF Iterations <==

  => Iterations <=

             Iter  Converged  Remaining    Residual
  CGR           1          0          1   1.022E-01
  CGR           2          0          1   2.779E-02
  CGR           3          0          1   1.055E-02
  CGR           4          0          1   3.128E-03
  CGR           5          0          1   1.099E-03
  CGR           6          0          1   2.430E-04
  CGR           7          0          1   9.666E-05
  CGR           8          0          1   3.001E-05
  CGR           9          0          1   1.053E-05
  CGR          10          0          1   3.878E-06
  CGR          11          0          1   1.398E-06
  CGR          12          1          0   4.030E-07

    CGRSolver converged.

	-----------------------------------------------------------
	 ==================> DF-MP2 Energies <==================== 
	-----------------------------------------------------------
	 Reference Energy          =    -380.8996966853368349 [Eh]
	 Singles Energy            =      -0.0000000000000000 [Eh]
	 Same-Spin Energy          =      -0.3681747083603398 [Eh]
	 Opposite-Spin Energy      =      -1.1630341085748443 [Eh]
	 Correlation Energy        =      -1.5312088169351843 [Eh]
	 Total Energy              =    -382.4309055022720258 [Eh]
	-----------------------------------------------------------
	 ================> DF-SCS-MP2 Energies <================== 
	-----------------------------------------------------------
	 SCS Same-Spin Scale       =       0.3333333333333333 [-]
	 SCS Opposite-Spin Scale   =       1.2000000000000000 [-]
	 SCS Same-Spin Energy      =      -0.1227249027867799 [Eh]
	 SCS Opposite-Spin Energy  =      -1.3956409302898132 [Eh]
	 SCS Correlation Energy    =      -1.5183658330765930 [Eh]
	 SCS Total Energy          =    -382.4180625184134215 [Eh]
	-----------------------------------------------------------



Properties will be evaluated at  -0.000000,   0.000000,  -0.000000 [a0]

Properties computed using the MP2 density matrix

  Nuclear Dipole Moment: [e a0]
     X:    -9.7030      Y:     0.9100      Z:     0.5699

  Electronic Dipole Moment: [e a0]
     X:     9.2695      Y:    -0.9279      Z:    -0.5375

  Dipole Moment: [e a0]
     X:    -0.4335      Y:    -0.0178      Z:     0.0324     Total:     0.4351

  Dipole Moment: [D]
     X:    -1.1019      Y:    -0.0453      Z:     0.0823     Total:     1.1059


*** tstop() called on c420-011.stampede2.tacc.utexas.edu at Sat Mar  6 23:04:55 2021
Module time:
	user time   =     823.35 seconds =      13.72 minutes
	system time =      33.87 seconds =       0.56 minutes
	total time  =        105 seconds =       1.75 minutes
Total time:
	user time   =    1144.56 seconds =      19.08 minutes
	system time =      61.85 seconds =       1.03 minutes
	total time  =        127 seconds =       2.12 minutes

    Psi4 stopped on: Saturday, 06 March 2021 11:04PM
    Psi4 wall time for execution: 0:02:07.71

*** Psi4 exiting successfully. Buy a developer a beer!
