643793                                                                  
Freq      RMP2-FC                                                     6-31G(d)            
Number of atoms                            I               15
Info1-9                                    I   N=           9
          27          25        1002           0           0         100
           6           2           1
Charge                                     I                0
Multiplicity                               I                1
Number of electrons                        I               54
Number of alpha electrons                  I               27
Number of beta electrons                   I               27
Number of basis functions                  I              121
Number of independent functions            I              121
Number of point charges in /Mol/           I                0
Number of translation vectors              I                0
Atomic numbers                             I   N=          15
           8           8           6           6           6           6
           6           1           1           1           1           1
           1           1           1
Nuclear charges                            R   N=          15
  8.00000000E+00  8.00000000E+00  6.00000000E+00  6.00000000E+00  6.00000000E+00
  6.00000000E+00  6.00000000E+00  1.00000000E+00  1.00000000E+00  1.00000000E+00
  1.00000000E+00  1.00000000E+00  1.00000000E+00  1.00000000E+00  1.00000000E+00
Current cartesian coordinates              R   N=          45
  4.92145396E+00  1.56588811E-01 -2.73247158E-01  1.59900561E+00 -2.44095668E+00
  4.51048627E-01 -3.28701394E+00  1.85086899E-01  1.15196820E+00 -4.49809935E+00
 -1.26466388E+00 -1.04746912E+00 -1.55532426E+00  2.21937487E+00  2.05233162E-01
  9.25125096E-01  2.01879656E+00 -3.27756456E-01  2.40403013E+00 -3.19063390E-01
  5.04674590E-03 -4.76590211E+00  1.06225535E+00  2.30510220E+00 -2.24737684E+00
 -1.14056876E+00  2.34070667E+00 -5.84564315E+00 -2.66287601E+00 -3.39628237E-01
 -3.03580811E+00 -2.25166512E+00 -2.11756814E+00 -5.50510496E+00  1.16228196E-02
 -2.32461338E+00 -2.42280162E+00  4.05397327E+00 -1.53506782E-01  1.97144522E+00
  3.64471500E+00 -1.01350078E+00  5.75520899E+00 -1.47969999E+00 -4.15384528E-02
Force Field                                I                0
Int Atom Types                             I   N=          15
           0           0           0           0           0           0
           0           0           0           0           0           0
           0           0           0
MM charges                                 R   N=          15
  0.00000000E+00  0.00000000E+00  0.00000000E+00  0.00000000E+00  0.00000000E+00
  0.00000000E+00  0.00000000E+00  0.00000000E+00  0.00000000E+00  0.00000000E+00
  0.00000000E+00  0.00000000E+00  0.00000000E+00  0.00000000E+00  0.00000000E+00
Integer atomic weights                     I   N=          15
          16          16          12          12          12          12
          12           1           1           1           1           1
           1           1           1
Real atomic weights                        R   N=          15
  1.59949146E+01  1.59949146E+01  1.20000000E+01  1.20000000E+01  1.20000000E+01
  1.20000000E+01  1.20000000E+01  1.00782504E+00  1.00782504E+00  1.00782504E+00
  1.00782504E+00  1.00782504E+00  1.00782504E+00  1.00782504E+00  1.00782504E+00
Atom fragment info                         I   N=          15
           0           0           0           0           0           0
           0           0           0           0           0           0
           0           0           0
Atom residue num                           I   N=          15
           0           0           0           0           0           0
           0           0           0           0           0           0
           0           0           0
Nuclear spins                              I   N=          15
           0           0           0           0           0           0
           0           1           1           1           1           1
           1           1           1
Nuclear ZEff                               R   N=          15
 -5.60000000E+00 -5.60000000E+00 -3.60000000E+00 -3.60000000E+00 -3.60000000E+00
 -3.60000000E+00 -3.60000000E+00 -1.00000000E+00 -1.00000000E+00 -1.00000000E+00
 -1.00000000E+00 -1.00000000E+00 -1.00000000E+00 -1.00000000E+00 -1.00000000E+00
Nuclear QMom                               R   N=          15
  0.00000000E+00  0.00000000E+00  0.00000000E+00  0.00000000E+00  0.00000000E+00
  0.00000000E+00  0.00000000E+00  0.00000000E+00  0.00000000E+00  0.00000000E+00
  0.00000000E+00  0.00000000E+00  0.00000000E+00  0.00000000E+00  0.00000000E+00
Nuclear GFac                               R   N=          15
  0.00000000E+00  0.00000000E+00  0.00000000E+00  0.00000000E+00  0.00000000E+00
  0.00000000E+00  0.00000000E+00  2.79284600E+00  2.79284600E+00  2.79284600E+00
  2.79284600E+00  2.79284600E+00  2.79284600E+00  2.79284600E+00  2.79284600E+00
MicOpt                                     I   N=          15
          -1          -1          -1          -1          -1          -1
          -1          -1          -1          -1          -1          -1
          -1          -1          -1
Number of contracted shells                I               44
Number of primitive shells                 I              109
Pure/Cartesian d shells                    I                1
Pure/Cartesian f shells                    I                0
Highest angular momentum                   I                2
Largest degree of contraction              I                6
Shell types                                I   N=          44
           0          -1          -1           2           0          -1
          -1           2           0          -1          -1           2
           0          -1          -1           2           0          -1
          -1           2           0          -1          -1           2
           0          -1          -1           2           0           0
           0           0           0           0           0           0
           0           0           0           0           0           0
           0           0
Number of primitives per shell             I   N=          44
           6           3           1           1           6           3
           1           1           6           3           1           1
           6           3           1           1           6           3
           1           1           6           3           1           1
           6           3           1           1           3           1
           3           1           3           1           3           1
           3           1           3           1           3           1
           3           1
Shell to atom map                          I   N=          44
           1           1           1           1           2           2
           2           2           3           3           3           3
           4           4           4           4           5           5
           5           5           6           6           6           6
           7           7           7           7           8           8
           9           9          10          10          11          11
          12          12          13          13          14          14
          15          15
Primitive exponents                        R   N=         109
  5.48467166E+03  8.25234946E+02  1.88046958E+02  5.29645000E+01  1.68975704E+01
  5.79963534E+00  1.55396162E+01  3.59993359E+00  1.01376175E+00  2.70005823E-01
  8.00000000E-01  5.48467166E+03  8.25234946E+02  1.88046958E+02  5.29645000E+01
  1.68975704E+01  5.79963534E+00  1.55396162E+01  3.59993359E+00  1.01376175E+00
  2.70005823E-01  8.00000000E-01  3.04752488E+03  4.57369518E+02  1.03948685E+02
  2.92101553E+01  9.28666296E+00  3.16392696E+00  7.86827235E+00  1.88128854E+00
  5.44249258E-01  1.68714478E-01  8.00000000E-01  3.04752488E+03  4.57369518E+02
  1.03948685E+02  2.92101553E+01  9.28666296E+00  3.16392696E+00  7.86827235E+00
  1.88128854E+00  5.44249258E-01  1.68714478E-01  8.00000000E-01  3.04752488E+03
  4.57369518E+02  1.03948685E+02  2.92101553E+01  9.28666296E+00  3.16392696E+00
  7.86827235E+00  1.88128854E+00  5.44249258E-01  1.68714478E-01  8.00000000E-01
  3.04752488E+03  4.57369518E+02  1.03948685E+02  2.92101553E+01  9.28666296E+00
  3.16392696E+00  7.86827235E+00  1.88128854E+00  5.44249258E-01  1.68714478E-01
  8.00000000E-01  3.04752488E+03  4.57369518E+02  1.03948685E+02  2.92101553E+01
  9.28666296E+00  3.16392696E+00  7.86827235E+00  1.88128854E+00  5.44249258E-01
  1.68714478E-01  8.00000000E-01  1.87311370E+01  2.82539436E+00  6.40121692E-01
  1.61277759E-01  1.87311370E+01  2.82539436E+00  6.40121692E-01  1.61277759E-01
  1.87311370E+01  2.82539436E+00  6.40121692E-01  1.61277759E-01  1.87311370E+01
  2.82539436E+00  6.40121692E-01  1.61277759E-01  1.87311370E+01  2.82539436E+00
  6.40121692E-01  1.61277759E-01  1.87311370E+01  2.82539436E+00  6.40121692E-01
  1.61277759E-01  1.87311370E+01  2.82539436E+00  6.40121692E-01  1.61277759E-01
  1.87311370E+01  2.82539436E+00  6.40121692E-01  1.61277759E-01
Contraction coefficients                   R   N=         109
  1.83107443E-03  1.39501722E-02  6.84450781E-02  2.32714336E-01  4.70192898E-01
  3.58520853E-01 -1.10777550E-01 -1.48026263E-01  1.13076702E+00  1.00000000E+00
  1.00000000E+00  1.83107443E-03  1.39501722E-02  6.84450781E-02  2.32714336E-01
  4.70192898E-01  3.58520853E-01 -1.10777550E-01 -1.48026263E-01  1.13076702E+00
  1.00000000E+00  1.00000000E+00  1.83473713E-03  1.40373228E-02  6.88426223E-02
  2.32184443E-01  4.67941348E-01  3.62311985E-01 -1.19332420E-01 -1.60854152E-01
  1.14345644E+00  1.00000000E+00  1.00000000E+00  1.83473713E-03  1.40373228E-02
  6.88426223E-02  2.32184443E-01  4.67941348E-01  3.62311985E-01 -1.19332420E-01
 -1.60854152E-01  1.14345644E+00  1.00000000E+00  1.00000000E+00  1.83473713E-03
  1.40373228E-02  6.88426223E-02  2.32184443E-01  4.67941348E-01  3.62311985E-01
 -1.19332420E-01 -1.60854152E-01  1.14345644E+00  1.00000000E+00  1.00000000E+00
  1.83473713E-03  1.40373228E-02  6.88426223E-02  2.32184443E-01  4.67941348E-01
  3.62311985E-01 -1.19332420E-01 -1.60854152E-01  1.14345644E+00  1.00000000E+00
  1.00000000E+00  1.83473713E-03  1.40373228E-02  6.88426223E-02  2.32184443E-01
  4.67941348E-01  3.62311985E-01 -1.19332420E-01 -1.60854152E-01  1.14345644E+00
  1.00000000E+00  1.00000000E+00  3.34946043E-02  2.34726953E-01  8.13757326E-01
  1.00000000E+00  3.34946043E-02  2.34726953E-01  8.13757326E-01  1.00000000E+00
  3.34946043E-02  2.34726953E-01  8.13757326E-01  1.00000000E+00  3.34946043E-02
  2.34726953E-01  8.13757326E-01  1.00000000E+00  3.34946043E-02  2.34726953E-01
  8.13757326E-01  1.00000000E+00  3.34946043E-02  2.34726953E-01  8.13757326E-01
  1.00000000E+00  3.34946043E-02  2.34726953E-01  8.13757326E-01  1.00000000E+00
  3.34946043E-02  2.34726953E-01  8.13757326E-01  1.00000000E+00
P(S=P) Contraction coefficients            R   N=         109
  0.00000000E+00  0.00000000E+00  0.00000000E+00  0.00000000E+00  0.00000000E+00
  0.00000000E+00  7.08742682E-02  3.39752839E-01  7.27158577E-01  1.00000000E+00
  0.00000000E+00  0.00000000E+00  0.00000000E+00  0.00000000E+00  0.00000000E+00
  0.00000000E+00  0.00000000E+00  7.08742682E-02  3.39752839E-01  7.27158577E-01
  1.00000000E+00  0.00000000E+00  0.00000000E+00  0.00000000E+00  0.00000000E+00
  0.00000000E+00  0.00000000E+00  0.00000000E+00  6.89990666E-02  3.16423961E-01
  7.44308291E-01  1.00000000E+00  0.00000000E+00  0.00000000E+00  0.00000000E+00
  0.00000000E+00  0.00000000E+00  0.00000000E+00  0.00000000E+00  6.89990666E-02
  3.16423961E-01  7.44308291E-01  1.00000000E+00  0.00000000E+00  0.00000000E+00
  0.00000000E+00  0.00000000E+00  0.00000000E+00  0.00000000E+00  0.00000000E+00
  6.89990666E-02  3.16423961E-01  7.44308291E-01  1.00000000E+00  0.00000000E+00
  0.00000000E+00  0.00000000E+00  0.00000000E+00  0.00000000E+00  0.00000000E+00
  0.00000000E+00  6.89990666E-02  3.16423961E-01  7.44308291E-01  1.00000000E+00
  0.00000000E+00  0.00000000E+00  0.00000000E+00  0.00000000E+00  0.00000000E+00
  0.00000000E+00  0.00000000E+00  6.89990666E-02  3.16423961E-01  7.44308291E-01
  1.00000000E+00  0.00000000E+00  0.00000000E+00  0.00000000E+00  0.00000000E+00
  0.00000000E+00  0.00000000E+00  0.00000000E+00  0.00000000E+00  0.00000000E+00
  0.00000000E+00  0.00000000E+00  0.00000000E+00  0.00000000E+00  0.00000000E+00
  0.00000000E+00  0.00000000E+00  0.00000000E+00  0.00000000E+00  0.00000000E+00
  0.00000000E+00  0.00000000E+00  0.00000000E+00  0.00000000E+00  0.00000000E+00
  0.00000000E+00  0.00000000E+00  0.00000000E+00  0.00000000E+00  0.00000000E+00
  0.00000000E+00  0.00000000E+00  0.00000000E+00  0.00000000E+00
Coordinates of each shell                  R   N=         132
  4.92145396E+00  1.56588811E-01 -2.73247158E-01  4.92145396E+00  1.56588811E-01
 -2.73247158E-01  4.92145396E+00  1.56588811E-01 -2.73247158E-01  4.92145396E+00
  1.56588811E-01 -2.73247158E-01  1.59900561E+00 -2.44095668E+00  4.51048627E-01
  1.59900561E+00 -2.44095668E+00  4.51048627E-01  1.59900561E+00 -2.44095668E+00
  4.51048627E-01  1.59900561E+00 -2.44095668E+00  4.51048627E-01 -3.28701394E+00
  1.85086899E-01  1.15196820E+00 -3.28701394E+00  1.85086899E-01  1.15196820E+00
 -3.28701394E+00  1.85086899E-01  1.15196820E+00 -3.28701394E+00  1.85086899E-01
  1.15196820E+00 -4.49809935E+00 -1.26466388E+00 -1.04746912E+00 -4.49809935E+00
 -1.26466388E+00 -1.04746912E+00 -4.49809935E+00 -1.26466388E+00 -1.04746912E+00
 -4.49809935E+00 -1.26466388E+00 -1.04746912E+00 -1.55532426E+00  2.21937487E+00
  2.05233162E-01 -1.55532426E+00  2.21937487E+00  2.05233162E-01 -1.55532426E+00
  2.21937487E+00  2.05233162E-01 -1.55532426E+00  2.21937487E+00  2.05233162E-01
  9.25125096E-01  2.01879656E+00 -3.27756456E-01  9.25125096E-01  2.01879656E+00
 -3.27756456E-01  9.25125096E-01  2.01879656E+00 -3.27756456E-01  9.25125096E-01
  2.01879656E+00 -3.27756456E-01  2.40403013E+00 -3.19063390E-01  5.04674590E-03
  2.40403013E+00 -3.19063390E-01  5.04674590E-03  2.40403013E+00 -3.19063390E-01
  5.04674590E-03  2.40403013E+00 -3.19063390E-01  5.04674590E-03 -4.76590211E+00
  1.06225535E+00  2.30510220E+00 -4.76590211E+00  1.06225535E+00  2.30510220E+00
 -2.24737684E+00 -1.14056876E+00  2.34070667E+00 -2.24737684E+00 -1.14056876E+00
  2.34070667E+00 -5.84564315E+00 -2.66287601E+00 -3.39628237E-01 -5.84564315E+00
 -2.66287601E+00 -3.39628237E-01 -3.03580811E+00 -2.25166512E+00 -2.11756814E+00
 -3.03580811E+00 -2.25166512E+00 -2.11756814E+00 -5.50510496E+00  1.16228196E-02
 -2.32461338E+00 -5.50510496E+00  1.16228196E-02 -2.32461338E+00 -2.42280162E+00
  4.05397327E+00 -1.53506782E-01 -2.42280162E+00  4.05397327E+00 -1.53506782E-01
  1.97144522E+00  3.64471500E+00 -1.01350078E+00  1.97144522E+00  3.64471500E+00
 -1.01350078E+00  5.75520899E+00 -1.47969999E+00 -4.15384528E-02  5.75520899E+00
 -1.47969999E+00 -4.15384528E-02
Constraint Structure                       R   N=          45
  4.92145396E+00  1.56588811E-01 -2.73247158E-01  1.59900561E+00 -2.44095668E+00
  4.51048627E-01 -3.28701394E+00  1.85086899E-01  1.15196820E+00 -4.49809935E+00
 -1.26466388E+00 -1.04746912E+00 -1.55532426E+00  2.21937487E+00  2.05233162E-01
  9.25125096E-01  2.01879656E+00 -3.27756456E-01  2.40403013E+00 -3.19063390E-01
  5.04674590E-03 -4.76590211E+00  1.06225535E+00  2.30510220E+00 -2.24737684E+00
 -1.14056876E+00  2.34070667E+00 -5.84564315E+00 -2.66287601E+00 -3.39628237E-01
 -3.03580811E+00 -2.25166512E+00 -2.11756814E+00 -5.50510496E+00  1.16228196E-02
 -2.32461338E+00 -2.42280162E+00  4.05397327E+00 -1.53506782E-01  1.97144522E+00
  3.64471500E+00 -1.01350078E+00  5.75520899E+00 -1.47969999E+00 -4.15384528E-02
Num ILSW                                   I              100
ILSW                                       I   N=         100
           0           1           0           0           2           0
           0           0           0           0           0          -1
           0           0           0           0           0           0
           0           0           0           0           1           0
           1           0           0           0           0           0
           0           0      100000           0          -1           0
           0           0           0           0           0           0
           0           0           0           1           1           0
           0           0           1           0           0           0
           0           0           4          40           0           0
           0           0           0           0           0           0
           0           0           0           0           0           0
           0           0           0           0           0           0
           0           0           0           0           0           0
           0           0           0           0           0           0
           0           0           0           0           0           0
           0           0           0           0
Num RLSW                                   I               40
RLSW                                       R   N=          40
  1.00000000E+00  1.00000000E+00  1.00000000E+00  1.00000000E+00  1.00000000E+00
  0.00000000E+00  0.00000000E+00  1.00000000E+00  0.00000000E+00  0.00000000E+00
  0.00000000E+00  0.00000000E+00  1.00000000E+00  0.00000000E+00  0.00000000E+00
  0.00000000E+00  0.00000000E+00  1.00000000E+00  0.00000000E+00  0.00000000E+00
  0.00000000E+00  0.00000000E+00  1.00000000E+00  0.00000000E+00  0.00000000E+00
  0.00000000E+00  0.00000000E+00  1.00000000E+00  0.00000000E+00  0.00000000E+00
  0.00000000E+00  0.00000000E+00  0.00000000E+00  0.00000000E+00  0.00000000E+00
  0.00000000E+00  0.00000000E+00  0.00000000E+00  1.00000000E+00  1.00000000E+00
MxBond                                     I                4
NBond                                      I   N=          15
           2           1           4           4           3           3
           3           1           1           1           1           1
           1           1           1
IBond                                      I   N=          60
           7          15           0           0           7           0
           0           0           4           5           8           9
           3          10          11          12           3           6
          13           0           5           7          14           0
           1           2           6           0           3           0
           0           0           3           0           0           0
           4           0           0           0           4           0
           0           0           4           0           0           0
           5           0           0           0           6           0
           0           0           1           0           0           0
RBond                                      R   N=          60
  1.50000000E+00  1.00000000E+00  0.00000000E+00  0.00000000E+00  2.00000000E+00
  0.00000000E+00  0.00000000E+00  0.00000000E+00  1.00000000E+00  1.00000000E+00
  1.00000000E+00  1.00000000E+00  1.00000000E+00  1.00000000E+00  1.00000000E+00
  1.00000000E+00  1.00000000E+00  2.00000000E+00  1.00000000E+00  0.00000000E+00
  2.00000000E+00  1.00000000E+00  1.00000000E+00  0.00000000E+00  1.50000000E+00
  2.00000000E+00  1.00000000E+00  0.00000000E+00  1.00000000E+00  0.00000000E+00
  0.00000000E+00  0.00000000E+00  1.00000000E+00  0.00000000E+00  0.00000000E+00
  0.00000000E+00  1.00000000E+00  0.00000000E+00  0.00000000E+00  0.00000000E+00
  1.00000000E+00  0.00000000E+00  0.00000000E+00  0.00000000E+00  1.00000000E+00
  0.00000000E+00  0.00000000E+00  0.00000000E+00  1.00000000E+00  0.00000000E+00
  0.00000000E+00  0.00000000E+00  1.00000000E+00  0.00000000E+00  0.00000000E+00
  0.00000000E+00  1.00000000E+00  0.00000000E+00  0.00000000E+00  0.00000000E+00
Virial Ratio                               R      2.002639535980625E+00
SCF Energy                                 R     -3.437215112772589E+02
MP2 Energy                                 R     -3.447163357983958E+02
Total Energy                               R     -3.447163357983958E+02
Post-SCF wavefunction norm                 R      1.624664926569856E+00
RMS Force                                  R      1.964452461596140E-07
RMS Density                                R      1.443082343148360E-09
External E-field                           R   N=          35
  0.00000000E+00  0.00000000E+00  0.00000000E+00  0.00000000E+00  0.00000000E+00
  0.00000000E+00  0.00000000E+00  0.00000000E+00  0.00000000E+00  0.00000000E+00
  0.00000000E+00  0.00000000E+00  0.00000000E+00  0.00000000E+00  0.00000000E+00
  0.00000000E+00  0.00000000E+00  0.00000000E+00  0.00000000E+00  0.00000000E+00
  0.00000000E+00  0.00000000E+00  0.00000000E+00  0.00000000E+00  0.00000000E+00
  0.00000000E+00  0.00000000E+00  0.00000000E+00  0.00000000E+00  0.00000000E+00
  0.00000000E+00  0.00000000E+00  0.00000000E+00  0.00000000E+00  0.00000000E+00
IOpCl                                      I                0
IROHF                                      I                0
Alpha Orbital Energies                     R   N=         121
 -2.06151925E+01 -2.05515701E+01 -1.13911507E+01 -1.12701631E+01 -1.12431314E+01
 -1.12306271E+01 -1.12182737E+01 -1.45157153E+00 -1.34689177E+00 -1.10155121E+00
 -1.01497847E+00 -9.04979363E-01 -8.36396078E-01 -7.47113044E-01 -7.01891424E-01
 -6.69819947E-01 -6.42392685E-01 -6.20690912E-01 -5.95642369E-01 -5.76623714E-01
 -5.64346727E-01 -5.23854676E-01 -4.99423708E-01 -4.92690769E-01 -4.73723697E-01
 -4.38940145E-01 -3.75669806E-01  1.04994615E-01  2.33284915E-01  2.38102029E-01
  2.57887390E-01  2.87939036E-01  3.05699766E-01  3.11543339E-01  3.30425627E-01
  3.33700114E-01  3.48779393E-01  3.98268714E-01  4.15444892E-01  4.75274861E-01
  5.17574785E-01  5.41080844E-01  5.80492955E-01  7.14961817E-01  7.25620750E-01
  7.40950735E-01  7.64578357E-01  7.73422804E-01  8.00431963E-01  8.28266936E-01
  8.62957522E-01  8.84351705E-01  9.20863328E-01  9.37762157E-01  9.79812460E-01
  9.91976527E-01  1.05508044E+00  1.07729715E+00  1.08136808E+00  1.11763868E+00
  1.12490305E+00  1.13476514E+00  1.17190994E+00  1.17463232E+00  1.18969161E+00
  1.20446914E+00  1.23884328E+00  1.24376795E+00  1.25118831E+00  1.29085667E+00
  1.34387939E+00  1.37795885E+00  1.43637934E+00  1.48533903E+00  1.51186408E+00
  1.59982414E+00  1.62912473E+00  1.66260403E+00  1.70784054E+00  1.73839599E+00
  1.76664843E+00  1.85578047E+00  1.94382212E+00  2.00238774E+00  2.02436170E+00
  2.05464721E+00  2.07426798E+00  2.11144502E+00  2.12840248E+00  2.19258312E+00
  2.22912572E+00  2.24371914E+00  2.27097446E+00  2.32768566E+00  2.34198346E+00
  2.40220032E+00  2.43374564E+00  2.46025100E+00  2.58668074E+00  2.61241214E+00
  2.68200134E+00  2.70882642E+00  2.72067456E+00  2.75983825E+00  2.81849193E+00
  2.89092326E+00  2.91796975E+00  2.97221088E+00  3.04215384E+00  3.05507941E+00
  3.17347210E+00  3.28825025E+00  3.43031251E+00  3.55916866E+00  4.23367305E+00
  4.46950806E+00  4.57789409E+00  4.68511004E+00  4.76780299E+00  4.84017227E+00
  4.99434253E+00
Alpha MO coefficients                      R   N=       14641
  9.94641074E-01  2.11766099E-02 -5.50622251E-04 -1.12093357E-03  2.42601377E-04
  3.98711433E-03  1.58846707E-04  6.28166182E-04 -1.25742302E-04 -4.13556238E-03
 -4.09604200E-03 -3.95034108E-03  4.13072215E-05  9.64107323E-06  2.69623120E-05
 -2.75143445E-04  9.53558790E-06 -4.07237246E-05 -1.98906000E-05  4.84638192E-06
 -1.84171861E-04 -9.23288581E-05 -1.86957642E-05  1.78037828E-05 -4.40281578E-05
  1.17929158E-05 -1.97713711E-05 -5.87492227E-05  1.25966468E-05 -1.05365103E-06
  1.66451474E-06  5.85597699E-06  5.72027633E-06  4.83799592E-06 -7.44415161E-06
 -1.22495017E-05  4.23465206E-05 -4.54055352E-05  4.66245721E-05  8.39704489E-06
 -4.16686980E-06  4.80346191E-06  7.63885332E-07 -2.34671863E-07  3.45695226E-07
 -2.84039167E-06 -1.18799116E-05  7.06121634E-07 -2.19184647E-06  2.47869821E-06
  7.90869479E-05  8.15032536E-06  3.32031981E-05 -1.03114210E-05 -4.04933369E-06
 -1.71255181E-06 -6.27637691E-06  1.18656655E-06  1.31654303E-07  2.80035356E-07
  8.28463002E-06  4.18289109E-05 -7.16741167E-06 -1.17657249E-07 -4.76602230E-06
 -6.73922774E-04 -3.46561803E-04  6.23965700E-05  8.15786692E-05  9.27063235E-06
  8.68309966E-06  1.50826178E-05  1.35741686E-05 -6.85834770E-07 -1.86008017E-06
 -9.55329648E-06  2.88742682E-06  2.10112445E-05  9.60065906E-07 -1.51842346E-06
  8.27138749E-04 -5.04867304E-04 -6.76378333E-05  1.10122596E-04 -6.33195621E-05
 -3.76895024E-05 -2.68228118E-05  3.67859748E-05 -1.09994862E-05 -4.79132767E-07
 -3.52579546E-06  3.72786149E-04  3.07186476E-04  6.51828582E-05 -3.55452228E-05
 -1.16232103E-04  1.21223954E-04 -3.83169053E-04  4.67352680E-05 -7.72420453E-05
  6.82824015E-06 -5.38877114E-05 -1.51563796E-05  4.71828630E-06 -1.38022923E-05
  4.25331867E-06 -9.58737835E-06 -1.94155090E-06 -5.10995210E-05 -2.27138242E-06
  8.53364812E-06  2.91033729E-06 -2.55154221E-05 -6.78655136E-06 -2.22144463E-05
  1.04312808E-05 -1.34117909E-05  4.80167257E-05 -4.83227465E-05  4.35339585E-04
 -2.43328828E-04  2.63820073E-04 -7.09162022E-05  2.99234743E-05  3.04105551E-05
 -7.20532034E-06  3.12218218E-04 -1.19710892E-04 -3.46221021E-05  1.40766373E-05
  1.05185769E-05 -8.06839349E-05 -9.02971627E-05 -7.52438235E-05  5.10307258E-06
  3.50926674E-06  9.94687061E-01  2.09960086E-02  5.81266656E-04  1.41230677E-03
 -2.91494244E-04  4.41790613E-03 -4.05458682E-05 -8.34558280E-05  2.28768031E-05
 -3.88045574E-03 -3.69452743E-03 -4.11300171E-03  1.04846364E-04 -4.00877176E-05
 -1.00054603E-04  4.97665286E-06  1.09350793E-05  2.01667465E-05 -7.33299590E-06
 -2.44977320E-05 -7.90766454E-05 -1.31919467E-04 -3.38648235E-05  1.95320363E-04
  9.51799011E-06  1.44344959E-05  7.50521899E-06 -6.89726306E-06 -8.79748288E-07
  1.71401216E-06 -4.59767723E-06 -2.46436362E-05  7.77522648E-06  4.36737351E-06
  1.70026023E-05  2.16329655E-04  7.06087217E-05  1.04953711E-06 -6.12001135E-05
  3.28171525E-06 -2.52323647E-06 -1.25393041E-05 -7.97408529E-07  7.53762443E-06
 -4.57320941E-06 -1.32836515E-06 -9.43725188E-06 -2.24982266E-05 -8.38307709E-06
  5.91846194E-06  8.28834420E-05 -7.24671920E-05 -1.55075906E-04  3.85681275E-05
 -2.99084721E-05  1.56377903E-05 -4.58430553E-06 -1.05563135E-05  1.81974300E-05
  3.31103303E-06  5.36562911E-06  5.11493386E-06  1.90023507E-05  6.29398426E-06
 -4.89598098E-07 -2.10526312E-04 -1.12991502E-04  2.19467701E-04 -3.06176823E-05
  9.25816750E-05 -4.22088551E-05 -4.05890750E-06 -5.73234115E-05 -5.77560468E-07
  1.49546895E-05 -4.65691107E-06  5.06279779E-04  1.40765588E-05  2.38431410E-05
 -5.84941235E-06 -2.38581870E-04 -1.16495208E-04  4.59607773E-04 -7.55898199E-05
 -1.71614482E-04 -6.69899364E-04 -7.21411420E-05 -2.78911196E-04  6.13634558E-05
  1.53882061E-04 -1.85707278E-05 -8.47295403E-05  3.62617981E-05 -1.89801043E-04
 -7.21704268E-06  1.13923335E-05  2.60503158E-05 -1.72634227E-04 -1.27704394E-05
 -2.59808123E-05  1.61102394E-06  3.86366909E-05  1.52949931E-05 -6.99801890E-05
 -2.11987104E-05 -8.01495935E-06 -8.68814579E-05  6.21869551E-04 -1.41044942E-04
 -1.09982727E-04  3.09982412E-05 -1.20137586E-03  1.20237778E-03  1.19492060E-03
 -3.18292943E-04 -6.39204002E-04  1.15999332E-04  5.02158165E-04 -2.43142250E-04
  1.48311005E-04  1.10028656E-04 -2.15412589E-04  8.52320224E-04  1.38691035E-04
  2.58527413E-04 -5.04619242E-05 -4.55629929E-03 -1.42322369E-03 -1.59938873E-03
  3.62546807E-04  2.03416048E-04  2.99663448E-04  5.37748256E-04 -2.15990728E-04
  6.77756425E-05  6.39455715E-05 -6.60145387E-05 -1.39917728E-04 -8.38074232E-05
  7.74893103E-07  3.27218589E-05  1.17371553E-03  3.83667997E-04  2.53335758E-04
 -3.71613231E-04 -9.24042513E-05 -4.36519888E-05 -7.22086788E-05  1.20153320E-05
  5.72994080E-06 -1.96359845E-05  1.78815547E-05  6.16074028E-05 -1.97636038E-06
 -3.00299660E-05 -1.09820158E-05 -5.31630398E-04 -1.99161584E-04  1.21050486E-05
 -2.31831423E-05 -4.51957374E-06  2.61138817E-05  4.16119322E-05 -5.93552636E-06
 -9.01569531E-06 -6.74293708E-06 -1.99160218E-05 -1.62249121E-04  1.41757446E-05
  6.89869790E-05 -1.63759751E-05  1.01255050E-03  1.31323710E-03  4.41759259E-04
 -4.40666025E-04  1.40804884E-04 -2.02487551E-05 -5.10043017E-05 -1.11673161E-05
 -6.69274497E-05 -2.22113252E-05  2.31496335E-03  3.17507679E-05 -9.44281625E-05
  9.95388656E-05 -1.16389364E-05  4.48187733E-03  3.13958802E-03 -2.39714679E-03
  3.47842360E-05 -4.34223332E-04 -3.81963306E-04 -1.85985190E-04  2.03095511E-04
 -2.47947311E-07  1.24227454E-05  9.95921387E-01  2.59160856E-02  8.84993569E-04
 -2.71266902E-04 -2.51036224E-05 -6.98677403E-03  1.51504290E-03 -5.57325444E-03
  9.82260685E-04 -9.35082131E-04 -6.80134826E-04 -2.17195334E-03  3.28007924E-04
 -1.77232113E-04 -3.51851414E-04 -7.59892653E-06  1.07108478E-04 -9.38023754E-05
  6.06971338E-05  1.32978213E-05  5.38898994E-05  4.56168737E-06  2.01859580E-04
  1.48861331E-05  2.53052942E-06 -3.52409708E-05  1.75141089E-04 -2.00629473E-04
 -1.63844485E-04  2.84152292E-04 -1.69002112E-05 -3.92099503E-05 -1.74190731E-04
  1.78864561E-05 -1.82794695E-05  1.10469816E-05  9.86139180E-04 -3.97886785E-04
  1.32503120E-04 -2.96777203E-05 -4.45963622E-05 -1.36732100E-04 -1.16841799E-04
 -2.18773712E-05  4.17956226E-06  1.80731559E-06  8.05623392E-06  4.03432052E-05
  1.49238750E-05 -7.83099173E-06 -3.72045501E-06 -2.95980578E-04 -9.01514642E-06
 -2.23326585E-05  4.87283761E-06  1.85779886E-06  3.06017665E-05  1.18936903E-05
  8.26561944E-06 -6.04021527E-06 -7.43036441E-06  8.46579273E-03  6.13095435E-04