opt=Tight                                                               
Freq      RMP2-FC                                                     6-31G(d)            
Number of atoms                            I               11
Info1-9                                    I   N=           9
          20          20        1002           0           0         100
           6           2           1
Charge                                     I               -1
Multiplicity                               I                1
Number of electrons                        I               58
Number of alpha electrons                  I               29
Number of beta electrons                   I               29
Number of basis functions                  I              104
Number of independent functions            I              104
Number of point charges in /Mol/           I                0
Number of translation vectors              I                0
Atomic numbers                             I   N=          11
          16           8           8           8           6           6
           1           1           1           1           1
Nuclear charges                            R   N=          11
  1.60000000E+01  8.00000000E+00  8.00000000E+00  8.00000000E+00  6.00000000E+00
  6.00000000E+00  1.00000000E+00  1.00000000E+00  1.00000000E+00  1.00000000E+00
  1.00000000E+00
Current cartesian coordinates              R   N=          33
 -9.92464618E-01 -8.43070383E-02 -1.30750694E-07 -9.88634958E-01 -1.63767166E+00
  2.35543550E+00 -2.96513133E+00  1.93135733E+00 -2.05222749E-06 -9.88633821E-01
 -1.63767504E+00 -2.35543354E+00  1.95723367E+00  1.57795150E+00 -5.51136195E-07
  4.22985301E+00 -1.82019445E-01  8.29097985E-07  1.94745102E+00  2.79371004E+00
 -1.67158141E+00  1.94745037E+00  2.79371183E+00  1.67157900E+00  5.98244879E+00
  9.11705924E-01  9.33675889E-07  4.20938174E+00 -1.38694562E+00  1.67524657E+00
  4.20938278E+00 -1.38694699E+00 -1.67524394E+00
Force Field                                I                0
Int Atom Types                             I   N=          11
           0           0           0           0           0           0
           0           0           0           0           0
MM charges                                 R   N=          11
  0.00000000E+00  0.00000000E+00  0.00000000E+00  0.00000000E+00  0.00000000E+00
  0.00000000E+00  0.00000000E+00  0.00000000E+00  0.00000000E+00  0.00000000E+00
  0.00000000E+00
Integer atomic weights                     I   N=          11
          32          16          16          16          12          12
           1           1           1           1           1
Real atomic weights                        R   N=          11
  3.19720718E+01  1.59949146E+01  1.59949146E+01  1.59949146E+01  1.20000000E+01
  1.20000000E+01  1.00782504E+00  1.00782504E+00  1.00782504E+00  1.00782504E+00
  1.00782504E+00
Atom fragment info                         I   N=          11
           0           0           0           0           0           0
           0           0           0           0           0
Atom residue num                           I   N=          11
           0           0           0           0           0           0
           0           0           0           0           0
Nuclear spins                              I   N=          11
           0           0           0           0           0           0
           1           1           1           1           1
Nuclear ZEff                               R   N=          11
 -1.36000000E+01 -5.60000000E+00 -5.60000000E+00 -5.60000000E+00 -3.60000000E+00
 -3.60000000E+00 -1.00000000E+00 -1.00000000E+00 -1.00000000E+00 -1.00000000E+00
 -1.00000000E+00
Nuclear QMom                               R   N=          11
  0.00000000E+00  0.00000000E+00  0.00000000E+00  0.00000000E+00  0.00000000E+00
  0.00000000E+00  0.00000000E+00  0.00000000E+00  0.00000000E+00  0.00000000E+00
  0.00000000E+00
Nuclear GFac                               R   N=          11
  0.00000000E+00  0.00000000E+00  0.00000000E+00  0.00000000E+00  0.00000000E+00
  0.00000000E+00  2.79284600E+00  2.79284600E+00  2.79284600E+00  2.79284600E+00
  2.79284600E+00
MicOpt                                     I   N=          11
          -1          -1          -1          -1          -1          -1
          -1          -1          -1          -1          -1
Number of contracted shells                I               35
Number of primitive shells                 I               92
Pure/Cartesian d shells                    I                1
Pure/Cartesian f shells                    I                0
Highest angular momentum                   I                2
Largest degree of contraction              I                6
Shell types                                I   N=          35
           0          -1          -1          -1           2           0
          -1          -1           2           0          -1          -1
           2           0          -1          -1           2           0
          -1          -1           2           0          -1          -1
           2           0           0           0           0           0
           0           0           0           0           0
Number of primitives per shell             I   N=          35
           6           6           3           1           1           6
           3           1           1           6           3           1
           1           6           3           1           1           6
           3           1           1           6           3           1
           1           3           1           3           1           3
           1           3           1           3           1
Shell to atom map                          I   N=          35
           1           1           1           1           1           2
           2           2           2           3           3           3
           3           4           4           4           4           5
           5           5           5           6           6           6
           6           7           7           8           8           9
           9          10          10          11          11
Primitive exponents                        R   N=          92
  2.19171000E+04  3.30149000E+03  7.54146000E+02  2.12711000E+02  6.79896000E+01
  2.30515000E+01  4.23735000E+02  1.00710000E+02  3.21599000E+01  1.18079000E+01
  4.63110000E+00  1.87025000E+00  2.61584000E+00  9.22167000E-01  3.41287000E-01
  1.17167000E-01  6.50000000E-01  5.48467166E+03  8.25234946E+02  1.88046958E+02
  5.29645000E+01  1.68975704E+01  5.79963534E+00  1.55396162E+01  3.59993359E+00
  1.01376175E+00  2.70005823E-01  8.00000000E-01  5.48467166E+03  8.25234946E+02
  1.88046958E+02  5.29645000E+01  1.68975704E+01  5.79963534E+00  1.55396162E+01
  3.59993359E+00  1.01376175E+00  2.70005823E-01  8.00000000E-01  5.48467166E+03
  8.25234946E+02  1.88046958E+02  5.29645000E+01  1.68975704E+01  5.79963534E+00
  1.55396162E+01  3.59993359E+00  1.01376175E+00  2.70005823E-01  8.00000000E-01
  3.04752488E+03  4.57369518E+02  1.03948685E+02  2.92101553E+01  9.28666296E+00
  3.16392696E+00  7.86827235E+00  1.88128854E+00  5.44249258E-01  1.68714478E-01
  8.00000000E-01  3.04752488E+03  4.57369518E+02  1.03948685E+02  2.92101553E+01
  9.28666296E+00  3.16392696E+00  7.86827235E+00  1.88128854E+00  5.44249258E-01
  1.68714478E-01  8.00000000E-01  1.87311370E+01  2.82539436E+00  6.40121692E-01
  1.61277759E-01  1.87311370E+01  2.82539436E+00  6.40121692E-01  1.61277759E-01
  1.87311370E+01  2.82539436E+00  6.40121692E-01  1.61277759E-01  1.87311370E+01
  2.82539436E+00  6.40121692E-01  1.61277759E-01  1.87311370E+01  2.82539436E+00
  6.40121692E-01  1.61277759E-01
Contraction coefficients                   R   N=          92
  1.86924085E-03  1.42303065E-02  6.96962317E-02  2.38487108E-01  4.83307220E-01
  3.38074154E-01 -2.37677050E-03 -3.16930067E-02 -1.13317024E-01  5.60900118E-02
  5.92255124E-01  4.55006095E-01 -2.50373114E-01  6.69567631E-02  1.05450627E+00
  1.00000000E+00  1.00000000E+00  1.83107443E-03  1.39501722E-02  6.84450781E-02
  2.32714336E-01  4.70192898E-01  3.58520853E-01 -1.10777550E-01 -1.48026263E-01
  1.13076702E+00  1.00000000E+00  1.00000000E+00  1.83107443E-03  1.39501722E-02
  6.84450781E-02  2.32714336E-01  4.70192898E-01  3.58520853E-01 -1.10777550E-01
 -1.48026263E-01  1.13076702E+00  1.00000000E+00  1.00000000E+00  1.83107443E-03
  1.39501722E-02  6.84450781E-02  2.32714336E-01  4.70192898E-01  3.58520853E-01
 -1.10777550E-01 -1.48026263E-01  1.13076702E+00  1.00000000E+00  1.00000000E+00
  1.83473713E-03  1.40373228E-02  6.88426223E-02  2.32184443E-01  4.67941348E-01
  3.62311985E-01 -1.19332420E-01 -1.60854152E-01  1.14345644E+00  1.00000000E+00
  1.00000000E+00  1.83473713E-03  1.40373228E-02  6.88426223E-02  2.32184443E-01
  4.67941348E-01  3.62311985E-01 -1.19332420E-01 -1.60854152E-01  1.14345644E+00
  1.00000000E+00  1.00000000E+00  3.34946043E-02  2.34726953E-01  8.13757326E-01
  1.00000000E+00  3.34946043E-02  2.34726953E-01  8.13757326E-01  1.00000000E+00
  3.34946043E-02  2.34726953E-01  8.13757326E-01  1.00000000E+00  3.34946043E-02
  2.34726953E-01  8.13757326E-01  1.00000000E+00  3.34946043E-02  2.34726953E-01
  8.13757326E-01  1.00000000E+00
P(S=P) Contraction coefficients            R   N=          92
  0.00000000E+00  0.00000000E+00  0.00000000E+00  0.00000000E+00  0.00000000E+00
  0.00000000E+00  4.06100998E-03  3.06812999E-02  1.30451999E-01  3.27204999E-01
  4.52850998E-01  2.56041999E-01 -1.45104895E-02  3.10262776E-01  7.54482456E-01
  1.00000000E+00  0.00000000E+00  0.00000000E+00  0.00000000E+00  0.00000000E+00
  0.00000000E+00  0.00000000E+00  0.00000000E+00  7.08742682E-02  3.39752839E-01
  7.27158577E-01  1.00000000E+00  0.00000000E+00  0.00000000E+00  0.00000000E+00
  0.00000000E+00  0.00000000E+00  0.00000000E+00  0.00000000E+00  7.08742682E-02
  3.39752839E-01  7.27158577E-01  1.00000000E+00  0.00000000E+00  0.00000000E+00
  0.00000000E+00  0.00000000E+00  0.00000000E+00  0.00000000E+00  0.00000000E+00
  7.08742682E-02  3.39752839E-01  7.27158577E-01  1.00000000E+00  0.00000000E+00
  0.00000000E+00  0.00000000E+00  0.00000000E+00  0.00000000E+00  0.00000000E+00
  0.00000000E+00  6.89990666E-02  3.16423961E-01  7.44308291E-01  1.00000000E+00
  0.00000000E+00  0.00000000E+00  0.00000000E+00  0.00000000E+00  0.00000000E+00
  0.00000000E+00  0.00000000E+00  6.89990666E-02  3.16423961E-01  7.44308291E-01
  1.00000000E+00  0.00000000E+00  0.00000000E+00  0.00000000E+00  0.00000000E+00
  0.00000000E+00  0.00000000E+00  0.00000000E+00  0.00000000E+00  0.00000000E+00
  0.00000000E+00  0.00000000E+00  0.00000000E+00  0.00000000E+00  0.00000000E+00
  0.00000000E+00  0.00000000E+00  0.00000000E+00  0.00000000E+00  0.00000000E+00
  0.00000000E+00  0.00000000E+00
Coordinates of each shell                  R   N=         105
 -9.92464618E-01 -8.43070383E-02 -1.30750694E-07 -9.92464618E-01 -8.43070383E-02
 -1.30750694E-07 -9.92464618E-01 -8.43070383E-02 -1.30750694E-07 -9.92464618E-01
 -8.43070383E-02 -1.30750694E-07 -9.92464618E-01 -8.43070383E-02 -1.30750694E-07
 -9.88634958E-01 -1.63767166E+00  2.35543550E+00 -9.88634958E-01 -1.63767166E+00
  2.35543550E+00 -9.88634958E-01 -1.63767166E+00  2.35543550E+00 -9.88634958E-01
 -1.63767166E+00  2.35543550E+00 -2.96513133E+00  1.93135733E+00 -2.05222749E-06
 -2.96513133E+00  1.93135733E+00 -2.05222749E-06 -2.96513133E+00  1.93135733E+00
 -2.05222749E-06 -2.96513133E+00  1.93135733E+00 -2.05222749E-06 -9.88633821E-01
 -1.63767504E+00 -2.35543354E+00 -9.88633821E-01 -1.63767504E+00 -2.35543354E+00
 -9.88633821E-01 -1.63767504E+00 -2.35543354E+00 -9.88633821E-01 -1.63767504E+00
 -2.35543354E+00  1.95723367E+00  1.57795150E+00 -5.51136195E-07  1.95723367E+00
  1.57795150E+00 -5.51136195E-07  1.95723367E+00  1.57795150E+00 -5.51136195E-07
  1.95723367E+00  1.57795150E+00 -5.51136195E-07  4.22985301E+00 -1.82019445E-01
  8.29097985E-07  4.22985301E+00 -1.82019445E-01  8.29097985E-07  4.22985301E+00
 -1.82019445E-01  8.29097985E-07  4.22985301E+00 -1.82019445E-01  8.29097985E-07
  1.94745102E+00  2.79371004E+00 -1.67158141E+00  1.94745102E+00  2.79371004E+00
 -1.67158141E+00  1.94745037E+00  2.79371183E+00  1.67157900E+00  1.94745037E+00
  2.79371183E+00  1.67157900E+00  5.98244879E+00  9.11705924E-01  9.33675889E-07
  5.98244879E+00  9.11705924E-01  9.33675889E-07  4.20938174E+00 -1.38694562E+00
  1.67524657E+00  4.20938174E+00 -1.38694562E+00  1.67524657E+00  4.20938278E+00
 -1.38694699E+00 -1.67524394E+00  4.20938278E+00 -1.38694699E+00 -1.67524394E+00
Constraint Structure                       R   N=          33
 -9.92464618E-01 -8.43070383E-02 -1.30750694E-07 -9.88634958E-01 -1.63767166E+00
  2.35543550E+00 -2.96513133E+00  1.93135733E+00 -2.05222749E-06 -9.88633821E-01
 -1.63767504E+00 -2.35543354E+00  1.95723367E+00  1.57795150E+00 -5.51136195E-07
  4.22985301E+00 -1.82019445E-01  8.29097985E-07  1.94745102E+00  2.79371004E+00
 -1.67158141E+00  1.94745037E+00  2.79371183E+00  1.67157900E+00  5.98244879E+00
  9.11705924E-01  9.33675889E-07  4.20938174E+00 -1.38694562E+00  1.67524657E+00
  4.20938278E+00 -1.38694699E+00 -1.67524394E+00
Num ILSW                                   I              100
ILSW                                       I   N=         100
           0           1           0           0           2           0
           0           0           0           0           0          -1
           0           0           0           0           0           0
           0           0           0           0           1           0
           1           0           0           0           0           0
           0           0      100000           0          -1           0
           0           0           0           0           0           0
           0           0           0           1           1           0
           0           0           1           0           0           0
           0           0           4          40           0           0
           0           0           0           0           0           0
           0           0           0           0           0           0
           0           0           0           0           0           0
           0           0           0           0           0           0
           0           0           0           0           0           0
           0           0           0           0           0           0
           0           0           0           0
Num RLSW                                   I               40
RLSW                                       R   N=          40
  1.00000000E+00  1.00000000E+00  1.00000000E+00  1.00000000E+00  1.00000000E+00
  0.00000000E+00  0.00000000E+00  1.00000000E+00  0.00000000E+00  0.00000000E+00
  0.00000000E+00  0.00000000E+00  1.00000000E+00  0.00000000E+00  0.00000000E+00
  0.00000000E+00  0.00000000E+00  1.00000000E+00  0.00000000E+00  0.00000000E+00
  0.00000000E+00  0.00000000E+00  1.00000000E+00  0.00000000E+00  0.00000000E+00
  0.00000000E+00  0.00000000E+00  1.00000000E+00  0.00000000E+00  0.00000000E+00
  0.00000000E+00  0.00000000E+00  0.00000000E+00  0.00000000E+00  0.00000000E+00
  0.00000000E+00  0.00000000E+00  0.00000000E+00  1.00000000E+00  1.00000000E+00
MxBond                                     I                4
NBond                                      I   N=          11
           4           1           1           1           4           4
           1           1           1           1           1
IBond                                      I   N=          44
           2           3           4           5           1           0
           0           0           1           0           0           0
           1           0           0           0           1           6
           7           8           5           9          10          11
           5           0           0           0           5           0
           0           0           6           0           0           0
           6           0           0           0           6           0
           0           0
RBond                                      R   N=          44
  2.00000000E+00  2.00000000E+00  2.00000000E+00  1.00000000E+00  2.00000000E+00
  0.00000000E+00  0.00000000E+00  0.00000000E+00  2.00000000E+00  0.00000000E+00
  0.00000000E+00  0.00000000E+00  2.00000000E+00  0.00000000E+00  0.00000000E+00
  0.00000000E+00  1.00000000E+00  1.00000000E+00  1.00000000E+00  1.00000000E+00
  1.00000000E+00  1.00000000E+00  1.00000000E+00  1.00000000E+00  1.00000000E+00
  0.00000000E+00  0.00000000E+00  0.00000000E+00  1.00000000E+00  0.00000000E+00
  0.00000000E+00  0.00000000E+00  1.00000000E+00  0.00000000E+00  0.00000000E+00
  0.00000000E+00  1.00000000E+00  0.00000000E+00  0.00000000E+00  0.00000000E+00
  1.00000000E+00  0.00000000E+00  0.00000000E+00  0.00000000E+00
Virial Ratio                               R      2.002070481035100E+00
SCF Energy                                 R     -7.008277422343085E+02
MP2 Energy                                 R     -7.017746646240994E+02
Total Energy                               R     -7.017746646240994E+02
Post-SCF wavefunction norm                 R      1.607176018127903E+00
RMS Force                                  R      1.145336480756591E-06
RMS Density                                R      1.855859462451088E-09
External E-field                           R   N=          35
  0.00000000E+00  0.00000000E+00  0.00000000E+00  0.00000000E+00  0.00000000E+00
  0.00000000E+00  0.00000000E+00  0.00000000E+00  0.00000000E+00  0.00000000E+00
  0.00000000E+00  0.00000000E+00  0.00000000E+00  0.00000000E+00  0.00000000E+00
  0.00000000E+00  0.00000000E+00  0.00000000E+00  0.00000000E+00  0.00000000E+00
  0.00000000E+00  0.00000000E+00  0.00000000E+00  0.00000000E+00  0.00000000E+00
  0.00000000E+00  0.00000000E+00  0.00000000E+00  0.00000000E+00  0.00000000E+00
  0.00000000E+00  0.00000000E+00  0.00000000E+00  0.00000000E+00  0.00000000E+00
IOpCl                                      I                0
IROHF                                      I                0
Alpha Orbital Energies                     R   N=         104
 -9.21682689E+01 -2.05100740E+01 -2.05100379E+01 -2.05100118E+01 -1.12411161E+01
 -1.12189510E+01 -9.13590124E+00 -6.82202110E+00 -6.82199691E+00 -6.82130779E+00
 -1.42277934E+00 -1.27608779E+00 -1.27580991E+00 -1.04692320E+00 -8.86028763E-01
 -7.63012082E-01 -6.53763710E-01 -6.38839391E-01 -6.19798032E-01 -5.99861577E-01
 -5.53265594E-01 -5.22269230E-01 -5.00297594E-01 -4.83505854E-01 -4.82021157E-01
 -4.34967949E-01 -4.34841275E-01 -4.09210023E-01 -3.98062948E-01  2.46647008E-01
  2.98876449E-01  2.98991906E-01  3.06556664E-01  3.19104748E-01  3.28171002E-01
  3.60470543E-01  3.71524355E-01  3.90311833E-01  4.27589153E-01  5.36178723E-01
  6.09190637E-01  6.36484825E-01  6.46302884E-01  7.34175910E-01  7.51185600E-01
  8.13946656E-01  8.71786262E-01  8.91447963E-01  9.57355274E-01  1.04450636E+00
  1.06024280E+00  1.07544081E+00  1.09566806E+00  1.10295813E+00  1.13908259E+00
  1.17415957E+00  1.19495209E+00  1.23293540E+00  1.24204752E+00  1.32699100E+00
  1.33332192E+00  1.34522732E+00  1.35496373E+00  1.35523798E+00  1.37536462E+00
  1.38097075E+00  1.53244378E+00  1.58315164E+00  1.58451038E+00  1.66307270E+00
  1.69213856E+00  1.77745994E+00  1.88773369E+00  1.88858036E+00  1.98028299E+00
  2.10481062E+00  2.13154483E+00  2.13708133E+00  2.16221499E+00  2.16565373E+00
  2.16791822E+00  2.20531286E+00  2.23136690E+00  2.24850083E+00  2.29536063E+00
  2.39654015E+00  2.40919270E+00  2.50051021E+00  2.56899022E+00  2.57622861E+00
  2.65554896E+00  2.66078695E+00  2.68173881E+00  2.71253364E+00  2.96389995E+00
  3.02881871E+00  3.19141024E+00  3.20602712E+00  4.20711894E+00  4.28266223E+00
  4.37842237E+00  4.48195539E+00  4.61663079E+00  4.82200891E+00
Alpha MO coefficients                      R   N=       10816
  9.96271363E-01  1.42091031E-02 -3.72469569E-06 -1.90218361E-06  3.88182734E-13
 -1.99380081E-02 -3.57814404E-05 -2.63987261E-05  1.31210321E-11  1.67998501E-03
  1.93024484E-04 -4.53759972E-05  9.46938819E-11  6.89854171E-03  6.91925180E-03
  6.92842967E-03 -2.01752478E-06 -7.31950829E-12  5.00020708E-12  1.51366420E-05
  2.37407238E-05  9.15984907E-06 -4.10778011E-05  6.32610621E-05  2.21984987E-04
 -5.14728907E-05  1.46218309E-04 -2.16881037E-04  4.47479642E-05 -1.02788077E-05
 -7.75718652E-05 -4.29730051E-06  8.04124430E-06  8.92960016E-05  3.22452064E-06
 -2.44389042E-05 -5.14409951E-05  6.36924006E-05 -5.71504677E-11  4.67947586E-04
  1.96024410E-04 -2.50766740E-04  2.22488444E-10 -7.86065265E-05 -7.15683049E-05
  2.75221803E-06  9.45285314E-05 -9.10861520E-11  8.47064942E-11  1.51366388E-05
  2.37407146E-05  9.15987695E-06 -4.10778913E-05 -6.32609974E-05  2.21985036E-04
 -5.14729879E-05  1.46218628E-04  2.16880810E-04  4.47479616E-05 -1.02790401E-05
 -7.75716590E-05 -4.29726827E-06 -8.04116947E-06 -8.92961121E-05 -2.19619993E-05
 -3.09619718E-05 -7.77539138E-05 -4.47778803E-05  1.06594785E-11  7.29792390E-04
 -2.30956856E-05 -8.80595990E-05  4.84153832E-11 -5.54875667E-05 -3.61590897E-05
 -4.59763738E-05 -2.79110311E-05  1.30861587E-11 -9.95510951E-12  1.05410509E-06
  3.76412667E-05  2.22608031E-05 -9.26744964E-06  9.57471871E-12 -1.96145776E-04
  2.09507116E-04 -6.38403964E-05  8.26321649E-11 -3.52365515E-05 -2.81005281E-06
 -1.72856875E-05  1.52637693E-05 -9.83115935E-12 -8.07608044E-12 -4.76741200E-05
 -1.75555675E-04 -4.76741198E-05 -1.75555693E-04 -1.17529392E-05 -2.10324875E-05
  2.70429173E-05 -8.16177339E-05  2.70429235E-05 -8.16177108E-05  9.66421717E-06
 -4.22862689E-05  2.78203852E-05 -2.97938199E-05  1.83216005E-11  3.33161627E-04
 -2.89656572E-04  3.35912162E-04 -2.08601144E-10 -7.24503178E-05  2.96780375E-04
 -3.72180497E-04  2.61282216E-10 -4.01311552E-05 -4.33194381E-05 -9.53406097E-05
 -5.38570182E-05  5.48387437E-11 -7.17973056E-11 -1.80569233E-01 -3.77513998E-03
  1.97149072E-05 -1.44001988E-04  1.80785165E-04 -8.56533249E-04 -3.19536444E-05
  5.83786779E-05 -2.20789095E-05  7.22928573E-04  7.13881838E-04  7.57255466E-04
  1.79281891E-05 -1.15287158E-05 -1.54669762E-06  9.61343639E-01  2.02449806E-02
  8.28872221E-04 -8.59235882E-04  8.09798208E-10  3.98892798E-03 -3.03009025E-04
  3.17379597E-04 -2.94841972E-10 -3.88930812E-03 -3.89435363E-03 -3.79720205E-03
  9.72506122E-05 -1.00172872E-10  1.09873641E-10 -1.80569530E-01 -3.77514623E-03
  1.97149950E-05 -1.44002445E-04 -1.80785261E-04 -8.56534454E-04 -3.19536569E-05
  5.83787796E-05  2.20789308E-05  7.22929733E-04  7.13883030E-04  7.57256670E-04
  1.79282047E-05  1.15286697E-05  1.54681204E-06 -7.16654219E-07  9.92312301E-06
  2.19334192E-05 -2.31968274E-06  9.43705420E-12  1.86326143E-05 -1.69666846E-05
  1.43197480E-06 -4.24374707E-11 -3.10579937E-05  2.10199349E-06 -5.47851676E-06
  6.26466668E-06 -1.14240406E-11 -9.00043596E-13  4.45573080E-06  2.01695472E-05
 -1.54595211E-05 -5.29982987E-06 -4.53970478E-12 -7.57741317E-05  9.91956839E-05
  6.03290935E-05  3.06543521E-11  4.18569485E-06  1.46011456E-05  4.67505084E-06
 -3.65954864E-06  3.74309857E-12 -4.07155017E-12  2.59065937E-06  3.28819412E-06
  2.59065772E-06  3.28825286E-06 -6.49667377E-06 -5.35361662E-05  1.12540671E-05
  1.22904408E-05  1.12540508E-05  1.22905302E-05  3.10077708E-11 -1.28288230E-10
  1.00851225E-11  5.11096356E-11  4.19118959E-05  1.06461719E-09 -6.75265365E-11
 -5.36774851E-10 -4.63719312E-04 -3.05161372E-10  1.03477950E-10  3.90680055E-10
  3.93576203E-04 -2.30499247E-10 -7.68420692E-11 -2.16567497E-10 -4.30111963E-11
  4.71072651E-06  7.21562024E-05 -7.03348143E-01 -1.48118937E-02  4.34799963E-06
 -4.70715710E-04  7.43398748E-04 -2.89020967E-03 -4.89968663E-06  1.62718546E-04
 -2.77822624E-04  2.78260564E-03  2.82364879E-03  2.84353193E-03 -2.09398616E-07
  4.12893531E-06 -7.61873184E-05  4.84074695E-07  1.02227006E-08  4.09872399E-10
 -3.88628690E-10  2.90994889E-05  1.93095353E-09 -1.74967464E-10  1.47639394E-10
 -3.27636906E-05 -1.95402674E-09 -2.02901593E-09 -1.87132721E-09  8.87919549E-11
  2.07018012E-05 -3.43715108E-05  7.03349564E-01  1.48119238E-02 -4.34834112E-06
  4.70717747E-04  7.43399514E-04  2.89021510E-03  4.89978732E-06 -1.62719375E-04
 -2.77823039E-04 -2.78261121E-03 -2.82365463E-03 -2.84353755E-03  2.09458792E-07
  4.12898820E-06 -7.61875003E-05 -3.08451981E-12  1.33155145E-11  2.26919686E-11
  3.11880844E-11  1.51552021E-05  1.21184698E-10  1.20032926E-10 -6.54935078E-11
 -3.03583256E-05 -2.88409506E-11 -4.18979928E-11 -1.47563784E-11 -2.69586142E-11
 -1.09905228E-05 -1.45745544E-05  4.81667059E-12  1.56575305E-11 -2.46529285E-11
 -8.31549548E-12  3.18357368E-06 -8.43819354E-11  1.72923771E-10 -3.09755633E-11
 -2.62788008E-05  6.24557004E-12  8.36313491E-12  4.97684546E-12  1.27024188E-11
 -4.28238017E-07 -1.33867347E-06 -7.73594945E-06  2.38852014E-05  7.73597007E-06
 -2.38852798E-05 -1.20343802E-11 -6.06850004E-11 -1.94998250E-05  6.29773598E-05
  1.94998890E-05 -6.29774729E-05  2.64614099E-05 -1.07888113E-04  1.23145683E-05
  2.34984316E-05 -5.86137006E-11  9.14755912E-04 -1.02660746E-04 -2.43800540E-04
  6.57566850E-10 -2.80631936E-04  1.16396129E-04  1.72797654E-04 -5.27470044E-10
 -1.97942064E-04 -1.47275611E-04 -1.06153129E-04 -1.59545936E-05 -1.91854113E-11
 -4.44486245E-11  6.79781693E-01  1.43582192E-02  2.44815152E-06  4.68914464E-04
 -6.91075470E-04  2.64814061E-03 -6.47369763E-06 -2.03114539E-04  2.94389366E-04
 -2.66831803E-03 -2.70343293E-03 -2.78807864E-03  5.67973644E-06 -6.95505030E-06
  6.56755561E-05  2.55374287E-01  5.40486251E-03  2.19903925E-04 -2.06999696E-04
  1.69189304E-10  9.84992824E-04 -1.09542910E-04  9.49480833E-05 -5.87070012E-11
 -1.02104237E-03 -1.05728003E-03 -1.01717931E-03  4.12426551E-05 -5.38981956E-11
  8.09699368E-11  6.79780143E-01  1.43581866E-02  2.44782969E-06  4.68914416E-04
  6.91073156E-04  2.64813424E-03 -6.47356543E-06 -2.03114604E-04 -2.94388469E-04
 -2.66831190E-03 -2.70342687E-03 -2.78807221E-03  5.67977595E-06  6.95509949E-06
 -6.56755296E-05 -1.77693160E-06  1.72908935E-05  2.07265901E-05  1.52957688E-05
 -2.39877585E-11  7.78027056E-05  8.64932974E-05  1.96821207E-06  5.60941285E-11
 -2.57086996E-05 -2.50284282E-05 -2.24809679E-05 -2.02315435E-05  2.48598797E-11
  1.48092402E-11  5.58681815E-07 -1.65371381E-06 -1.50732799E-05 -9.75688129E-07
 -5.14385651E-12  1.59367548E-05  8.67540722E-05 -4.61860912E-05  6.50012070E-11
  8.62702643E-07 -3.00502711E-07  1.25619689E-06  9.21751163E-06 -4.00131319E-12
  5.60473039E-12  1.05748399E-05 -4.86286407E-05  1.05748252E-05 -4.86286069E-05
 -8.93112778E-06 -2.99860666E-05  1.94058514E-05 -6.72283801E-05  1.94058056E-05
 -6.72282522E-05  2.04987599E-06 -6.08369908E-05 -3.88719220E-05 -2.06805017E-05
  9.97015146E-12  3.41126349E-04  4.88103063E-04  2.81887513E-04 -1.14223055E-10
  3.56339089E-03  1.43980744E-03  5.52933424E-04 -1.74833045E-10 -1.16385898E-04
 -1.61366980E-04 -1.46514578E-04 -7.73345025E-06  1.89614246E-12  1.95753550E-11
  1.04988088E-05  2.13302839E-05 -4.52070438E-05 -6.19150668E-05  2.83410570E-05
 -5.18031703E-04  1.88063662E-06  1.89814929E-05  8.53204142E-05  5.25089158E-05
 -1.29975557E-05 -2.88793600E-05  8.82765614E-05  5.30810934E-06 -5.24531681E-05
  1.45401487E-05  2.71789634E-05 -5.18434857E-05  9.83742216E-06 -3.02646316E-11
 -4.64949048E-04 -1.01877641E-04  3.37441148E-05  1.83537853E-12  9.72786931E-05
  1.86921421E-05 -5.60426713E-05  3.94708184E-05  2.47418214E-11 -5.31154701E-11
  1.04988286E-05  2.13303720E-05 -4.52070136E-05 -6.19151057E-05 -2.83409802E-05
 -5.18032094E-04  1.88060906E-06  1.89813028E-05 -8.53205187E-05  5.25089712E-05
 -1.29973662E-05 -2.88794345E-05  8.82765172E-05 -5.30820413E-06  5.24531635E-05
  9.95708762E-01  2.85721886E-02 -2.72286385E-04 -2.48175332E-04  1.12396057E-10
 -1.55129423E-02  2.40568785E-04  8.99550872E-04 -5.86295337E-10 -1.83228283E-03
 -1.74421720E-03 -1.64495368E-03 -1.20654178E-04  1.34523042E-11  2.94078337E-11
  1.35866507E-02  4.54750490E-04 -7.02718194E-05 -2.31104708E-05 -2.02701452E-11
  3.60237730E-03 -1.19610171E-03  1.04271439E-03 -6.31788454E-10 -3.55712839E-04
 -3.12298902E-04 -1.28159902E-04  2.36555294E-04 -1.80883961E-10  1.61797053E-10
  1.88150647E-04  2.28085122E-03  1.88150681E-04  2.28085131E-03 -1.51464925E-04
 -1.12612532E-04 -1.13063905E-04 -5.29073713E-05 -1.13063926E-04 -5.29071238E-05
 -4.05076870E-06 -8.17948208E-05  1.14425099E-05  1.79069323E-05 -2.06833511E-11
 -2.64915206E-04 -1.47509477E-04 -1.46735558E-04  1.75244888E-10  1.63216079E-03
  1.06580465E-03 -4.98155931E-04  7.17843061E-10 -1.15425813E-04 -9.54093677E-05
 -8.81755019E-05 -1.49230343E-05  1.12732973E-11 -1.74616230E-11  5.16143130E-05
  2.24032450E-04  2.27817534E-05  2.09538239E-06 -1.46321370E-05 -1.15449925E-03
 -2.32933007E-04 -5.94679509E-05  2.44592037E-04  1.47726416E-04  1.55030948E-04
  1.30442589E-04 -2.26455534E-05  2.36220811E-05 -1.25081984E-05 -3.75469781E-05
 -1.43302583E-04 -3.38238616E-06  9.09700761E-06 -8.67544869E-12  6.89793516E-04
  7.08549563E-05 -6.81617573E-05  5.47962298E-11 -9.02360493E-05 -1.06978793E-04
 -1.31388867E-04 -7.26229160E-06  1.68538852E-11 -1.86638265E-11  5.16142651E-05
  2.24032268E-04  2.27816870E-05  2.09539511E-06  1.46321034E-05 -1.15449849E-03
 -2.32932707E-04 -5.94682077E-05 -2.44591854E-04  1.47726296E-04  1.55030809E-04
  1.30442397E-04 -2.26455890E-05 -2.36220090E-05  1.25081888E-05 -1.38695816E-02
 -2.02226709E-04  1.69776639E-05  8.73401625E-06 -2.21675136E-11  3.38385140E-03
  1.74620591E-03 -8.89526108E-04  8.33794690E-10 -3.66472461E-04 -2.46349503E-04
 -6.87048761E-05  1.91458031E-04 -1.64291113E-10  1.57333114E-10  9.95660414E-01
  2.85179096E-02 -2.44111343E-04  1.13111726E-04 -9.66589949E-11 -1.53011498E-02
  1.07525718E-03 -3.40915241E-04  4.06201099E-10 -1.83222957E-03 -1.81136599E-03