
    -----------------------------------------------------------------------
          Psi4: An Open-Source Ab Initio Electronic Structure Package
                               Psi4 1.4a3.dev225 

                         Git: Rev {master} 7105e37 


    D. G. A. Smith, L. A. Burns, A. C. Simmonett, R. M. Parrish,
    M. C. Schieber, R. Galvelis, P. Kraus, H. Kruse, R. Di Remigio,
    A. Alenaizan, A. M. James, S. Lehtola, J. P. Misiewicz, M. Scheurer,
    R. A. Shaw, J. B. Schriber, Y. Xie, Z. L. Glick, D. A. Sirianni,
    J. S. O'Brien, J. M. Waldrop, A. Kumar, E. G. Hohenstein,
    B. P. Pritchard, B. R. Brooks, H. F. Schaefer III, A. Yu. Sokolov,
    K. Patkowski, A. E. DePrince III, U. Bozkaya, R. A. King,
    F. A. Evangelista, J. M. Turney, T. D. Crawford, C. D. Sherrill,
    J. Chem. Phys. 152(18) 184108 (2020). https://doi.org/10.1063/5.0006002

                            Additional Code Authors
    E. T. Seidl, C. L. Janssen, E. F. Valeev, M. L. Leininger,
    J. F. Gonthier, R. M. Richard, H. R. McAlexander, M. Saitow, X. Wang,
    P. Verma, and M. H. Lechner

             Previous Authors, Complete List of Code Contributors,
                       and Citations for Specific Modules
    https://github.com/psi4/psi4/blob/master/codemeta.json
    https://github.com/psi4/psi4/graphs/contributors
    http://psicode.org/psi4manual/master/introduction.html#citing-psifour

    -----------------------------------------------------------------------


    Psi4 started on: Monday, 01 March 2021 05:32AM

    Process ID: 5233
    Host:       c403-114.stampede2.tacc.utexas.edu
    PSIDATADIR: /home1/07844/xy3866/miniconda3/envs/p4env/share/psi4
    Memory:     500.0 MiB
    Threads:    32
    
  ==> Input File <==

--------------------------------------------------------------------------
#psi4
#
memory 32 gb

molecule  {
0 1
  C        1.0191550    -0.0000090     0.3706600
  C       -0.3376930    -0.0001380     1.0991850
  C        1.1895300     1.2600750    -0.4734900
  C        1.1896430    -1.2599310    -0.4737080
  C       -1.4806530    -0.0001100     0.1820590
  C       -2.4337550     0.0000760    -0.5817880
  H        1.7898900    -0.0000470     1.1539300
  H       -0.3990100    -0.8800950     1.7523450
  H       -0.3991040     0.8797040     1.7524870
  H        2.1752240     1.2782110    -0.9487550
  H        1.0912450     2.1632510     0.1376750
  H        0.4300030     1.2977920    -1.2600980
  H        2.1753400    -1.2779000    -0.9489720
  H        0.5689621    -1.2906913    -1.1165342
  H        1.0914300    -2.1632230     0.1372970
  H       -3.2625000     0.0001070    -1.2530880
units angstrom
no_reorient  #important for SAPT in psi4, default
symmetry c1  #important for SAPT in psi4, default
}

set PROPERTIES_ORIGIN ["COM"]
properties('MP2/aug-cc-pvtz', properties = ['dipole'])
--------------------------------------------------------------------------

  Memory set to  29.802 GiB by Python driver.
    SCF Algorithm Type (re)set to DF.

*** tstart() called on c403-114.stampede2.tacc.utexas.edu
*** at Mon Mar  1 05:32:16 2021

   => Loading Basis Set <=

    Name: AUG-CC-PVTZ
    Role: ORBITAL
    Keyword: BASIS
    atoms 1-6  entry C          line   239 file /home1/07844/xy3866/miniconda3/envs/p4env/share/psi4/basis/aug-cc-pvtz.gbs 
    atoms 7-16 entry H          line    40 file /home1/07844/xy3866/miniconda3/envs/p4env/share/psi4/basis/aug-cc-pvtz.gbs 


         ---------------------------------------------------------
                                   SCF
               by Justin Turney, Rob Parrish, Andy Simmonett
                          and Daniel G. A. Smith
                              RHF Reference
                       32 Threads,  30517 MiB Core
         ---------------------------------------------------------

  ==> Geometry <==

    Molecular point group: c1
    Full point group: C1

    Geometry (in Angstrom), charge = 0, multiplicity = 1:

       Center              X                  Y                   Z               Mass       
    ------------   -----------------  -----------------  -----------------  -----------------
         C            1.079373445559    -0.000090877060     0.359979253619    12.000000000000
         C           -0.277474554441    -0.000219877060     1.088504253619    12.000000000000
         C            1.249748445559     1.259993122940    -0.484170746381    12.000000000000
         C            1.249861445559    -1.260012877060    -0.484388746381    12.000000000000
         C           -1.420434554441    -0.000191877060     0.171378253619    12.000000000000
         C           -2.373536554441    -0.000005877060    -0.592468746381    12.000000000000
         H            1.850108445559    -0.000128877060     1.143249253619     1.007825032230
         H           -0.338791554441    -0.880176877060     1.741664253619     1.007825032230
         H           -0.338885554441     0.879622122940     1.741806253619     1.007825032230
         H            2.235442445559     1.278129122940    -0.959435746381     1.007825032230
         H            1.151463445559     2.163169122940     0.126994253619     1.007825032230
         H            0.490221445559     1.297710122940    -1.270778746381     1.007825032230
         H            2.235558445559    -1.277981877060    -0.959652746381     1.007825032230
         H            0.629180545559    -1.290773177060    -1.127214946381     1.007825032230
         H            1.151648445559    -2.163304877060     0.126616253619     1.007825032230
         H           -3.202281554441     0.000025122940    -1.263768746381     1.007825032230

  Running in c1 symmetry.

  Rotational constants: A =      0.17639  B =      0.07974  C =      0.07414 [cm^-1]
  Rotational constants: A =   5288.14068  B =   2390.47171  C =   2222.63316 [MHz]
  Nuclear repulsion =  223.607636116837114

  Charge       = 0
  Multiplicity = 1
  Electrons    = 46
  Nalpha       = 23
  Nbeta        = 23

  ==> Algorithm <==

  SCF Algorithm Type is DF.
  DIIS enabled.
  MOM disabled.
  Fractional occupation disabled.
  Guess Type is SAD.
  Energy threshold   = 1.00e-10
  Density threshold  = 1.00e-10
  Integral threshold = 1.00e-12

  ==> Primary Basis <==

  Basis Set: AUG-CC-PVTZ
    Blend: AUG-CC-PVTZ
    Number of shells: 174
    Number of basis functions: 506
    Number of Cartesian functions: 580
    Spherical Harmonics?: true
    Max angular momentum: 3

   => Loading Basis Set <=

    Name: (AUG-CC-PVTZ AUX)
    Role: JKFIT
    Keyword: DF_BASIS_SCF
    atoms 1-6  entry C          line   162 file /home1/07844/xy3866/miniconda3/envs/p4env/share/psi4/basis/aug-cc-pvtz-jkfit.gbs 
    atoms 7-16 entry H          line    70 file /home1/07844/xy3866/miniconda3/envs/p4env/share/psi4/basis/aug-cc-pvtz-jkfit.gbs 

  ==> Integral Setup <==

  DFHelper Memory: AOs need 2.121 GiB; user supplied 22.352 GiB. Using in-core AOs.

  ==> MemDFJK: Density-Fitted J/K Matrices <==

    J tasked:                   Yes
    K tasked:                   Yes
    wK tasked:                   No
    OpenMP threads:              32
    Memory [MiB]:             22888
    Algorithm:                 Core
    Schwarz Cutoff:           1E-12
    Mask sparsity (%):       3.3175
    Fitting Condition:        1E-10

   => Auxiliary Basis Set <=

  Basis Set: (AUG-CC-PVTZ AUX)
    Blend: AUG-CC-PVTZ-JKFIT
    Number of shells: 320
    Number of basis functions: 1084
    Number of Cartesian functions: 1336
    Spherical Harmonics?: true
    Max angular momentum: 4

  Minimum eigenvalue in the overlap matrix is 2.4804767165E-06.
  Reciprocal condition number of the overlap matrix is 1.2152810988E-07.
    Using symmetric orthogonalization.

  ==> Pre-Iterations <==

  SCF Guess: Superposition of Atomic Densities via on-the-fly atomic UHF (no occupation information).

   -------------------------
    Irrep   Nso     Nmo    
   -------------------------
     A        506     506 
   -------------------------
    Total     506     506
   -------------------------

  ==> Iterations <==

                           Total Energy        Delta E     RMS |[F,P]|

   @DF-RHF iter SAD:  -232.21563082176704   -2.32216e+02   0.00000e+00 
   @DF-RHF iter   1:  -232.75799534630684   -5.42365e-01   1.28684e-03 DIIS
   @DF-RHF iter   2:  -232.96424708281481   -2.06252e-01   6.06242e-04 DIIS
   @DF-RHF iter   3:  -233.01160207812143   -4.73550e-02   1.39542e-04 DIIS
   @DF-RHF iter   4:  -233.01482875910645   -3.22668e-03   6.82894e-05 DIIS
   @DF-RHF iter   5:  -233.01553674874953   -7.07990e-04   1.34330e-05 DIIS
   @DF-RHF iter   6:  -233.01556824466880   -3.14959e-05   3.63303e-06 DIIS
   @DF-RHF iter   7:  -233.01557133234209   -3.08767e-06   9.27282e-07 DIIS
   @DF-RHF iter   8:  -233.01557167135053   -3.39008e-07   4.16326e-07 DIIS
   @DF-RHF iter   9:  -233.01557179535911   -1.24009e-07   2.11910e-07 DIIS
   @DF-RHF iter  10:  -233.01557184025168   -4.48926e-08   8.14181e-08 DIIS
   @DF-RHF iter  11:  -233.01557184597041   -5.71873e-09   2.39487e-08 DIIS
   @DF-RHF iter  12:  -233.01557184633359   -3.63173e-10   5.11361e-09 DIIS
   @DF-RHF iter  13:  -233.01557184634521   -1.16245e-11   1.06340e-09 DIIS
   @DF-RHF iter  14:  -233.01557184634598   -7.67386e-13   3.45146e-10 DIIS
   @DF-RHF iter  15:  -233.01557184634498    9.94760e-13   1.08926e-10 DIIS
   @DF-RHF iter  16:  -233.01557184634544   -4.54747e-13   4.69539e-11 DIIS
  Energy and wave function converged.


  ==> Post-Iterations <==

    Orbital Energies [Eh]
    ---------------------

    Doubly Occupied:                                                      

       1A    -11.250010     2A    -11.237959     3A    -11.234117  
       4A    -11.223915     5A    -11.211048     6A    -11.186878  
       7A     -1.110241     8A     -1.024753     9A     -0.952816  
      10A     -0.938179    11A     -0.795662    12A     -0.711685  
      13A     -0.652776    14A     -0.620144    15A     -0.611779  
      16A     -0.583709    17A     -0.558619    18A     -0.522931  
      19A     -0.484265    20A     -0.477751    21A     -0.472064  
      22A     -0.378567    23A     -0.378137  

    Virtual:                                                              

      24A      0.028660    25A      0.032256    26A      0.038757  
      27A      0.039345    28A      0.050456    29A      0.056834  
      30A      0.058595    31A      0.063630    32A      0.065170  
      33A      0.079595    34A      0.093330    35A      0.106429  
      36A      0.107994    37A      0.109283    38A      0.115874  
      39A      0.122001    40A      0.125911    41A      0.128289  
      42A      0.132407    43A      0.141752    44A      0.145517  
      45A      0.153381    46A      0.153920    47A      0.156253  
      48A      0.160176    49A      0.163509    50A      0.173470  
      51A      0.185581    52A      0.186778    53A      0.195186  
      54A      0.204593    55A      0.207702    56A      0.218908  
      57A      0.220433    58A      0.238473    59A      0.245003  
      60A      0.264912    61A      0.266901    62A      0.276188  
      63A      0.278360    64A      0.292220    65A      0.298781  
      66A      0.304077    67A      0.308179    68A      0.322519  
      69A      0.326406    70A      0.333776    71A      0.335387  
      72A      0.338992    73A      0.341552    74A      0.354076  
      75A      0.361846    76A      0.363731    77A      0.368973  
      78A      0.377124    79A      0.382248    80A      0.384151  
      81A      0.393518    82A      0.394386    83A      0.397095  
      84A      0.402853    85A      0.411420    86A      0.413284  
      87A      0.422663    88A      0.430374    89A      0.433327  
      90A      0.436231    91A      0.444059    92A      0.448027  
      93A      0.449125    94A      0.452524    95A      0.460422  
      96A      0.463234    97A      0.470948    98A      0.471641  
      99A      0.481949   100A      0.485848   101A      0.491528  
     102A      0.496050   103A      0.501398   104A      0.503041  
     105A      0.515487   106A      0.518150   107A      0.524072  
     108A      0.532391   109A      0.541135   110A      0.546802  
     111A      0.553730   112A      0.562490   113A      0.572572  
     114A      0.577266   115A      0.580169   116A      0.588578  
     117A      0.603791   118A      0.609659   119A      0.614046  
     120A      0.619820   121A      0.622172   122A      0.628479  
     123A      0.647731   124A      0.654424   125A      0.657576  
     126A      0.666641   127A      0.672535   128A      0.689959  
     129A      0.694359   130A      0.704200   131A      0.705390  
     132A      0.719261   133A      0.731250   134A      0.747438  
     135A      0.766724   136A      0.787812   137A      0.811033  
     138A      0.814750   139A      0.826833   140A      0.829366  
     141A      0.840904   142A      0.842319   143A      0.854853  
     144A      0.858462   145A      0.863678   146A      0.872931  
     147A      0.874226   148A      0.887828   149A      0.893508  
     150A      0.899397   151A      0.904797   152A      0.912314  
     153A      0.919622   154A      0.935083   155A      0.936705  
     156A      0.939763   157A      0.952201   158A      0.962189  
     159A      0.974873   160A      0.983628   161A      0.991209  
     162A      0.994253   163A      1.005050   164A      1.010859  
     165A      1.017027   166A      1.034726   167A      1.038772  
     168A      1.046549   169A      1.050667   170A      1.056056  
     171A      1.057433   172A      1.064887   173A      1.068813  
     174A      1.075028   175A      1.086545   176A      1.103758  
     177A      1.105220   178A      1.113929   179A      1.122858  
     180A      1.128644   181A      1.136885   182A      1.140694  
     183A      1.153901   184A      1.158071   185A      1.161282  
     186A      1.169519   187A      1.173437   188A      1.191750  
     189A      1.201365   190A      1.210980   191A      1.216991  
     192A      1.220122   193A      1.227753   194A      1.233327  
     195A      1.240065   196A      1.244328   197A      1.255901  
     198A      1.261327   199A      1.274890   200A      1.283448  
     201A      1.292396   202A      1.299451   203A      1.320191  
     204A      1.326457   205A      1.333695   206A      1.339391  
     207A      1.348768   208A      1.362508   209A      1.373746  
     210A      1.375324   211A      1.388581   212A      1.397763  
     213A      1.413887   214A      1.418222   215A      1.433327  
     216A      1.438952   217A      1.447159   218A      1.469745  
     219A      1.477860   220A      1.492496   221A      1.501892  
     222A      1.511932   223A      1.515429   224A      1.525918  
     225A      1.535023   226A      1.541477   227A      1.549213  
     228A      1.552886   229A      1.569908   230A      1.588282  
     231A      1.599508   232A      1.602115   233A      1.632784  
     234A      1.639313   235A      1.656168   236A      1.665776  
     237A      1.680049   238A      1.687124   239A      1.691836  
     240A      1.709503   241A      1.721598   242A      1.726329  
     243A      1.742105   244A      1.750570   245A      1.760688  
     246A      1.764774   247A      1.769629   248A      1.771680  
     249A      1.782657   250A      1.784911   251A      1.793896  
     252A      1.804989   253A      1.812146   254A      1.819570  
     255A      1.833842   256A      1.846548   257A      1.876066  
     258A      1.887074   259A      1.907613   260A      1.921556  
     261A      1.925931   262A      1.934253   263A      1.940210  
     264A      1.948218   265A      1.965449   266A      1.972530  
     267A      1.988758   268A      2.006473   269A      2.013073  
     270A      2.018561   271A      2.030768   272A      2.038166  
     273A      2.052023   274A      2.085214   275A      2.094944  
     276A      2.096848   277A      2.105713   278A      2.109211  
     279A      2.129911   280A      2.145262   281A      2.167809  
     282A      2.179177   283A      2.189287   284A      2.217528  
     285A      2.219758   286A      2.226785   287A      2.250599  
     288A      2.256882   289A      2.261109   290A      2.277529  
     291A      2.290269   292A      2.296724   293A      2.317152  
     294A      2.337959   295A      2.344373   296A      2.359516  
     297A      2.396035   298A      2.413754   299A      2.419405  
     300A      2.440984   301A      2.453339   302A      2.464747  
     303A      2.491862   304A      2.508488   305A      2.520710  
     306A      2.537649   307A      2.543873   308A      2.548379  
     309A      2.561139   310A      2.607380   311A      2.628827  
     312A      2.642295   313A      2.681410   314A      2.725416  
     315A      2.790956   316A      2.825086   317A      2.930339  
     318A      2.938429   319A      3.104030   320A      3.111962  
     321A      3.136174   322A      3.160661   323A      3.222585  
     324A      3.264346   325A      3.327410   326A      3.355353  
     327A      3.378097   328A      3.397023   329A      3.413150  
     330A      3.436733   331A      3.453374   332A      3.471127  
     333A      3.475426   334A      3.480574   335A      3.505821  
     336A      3.520186   337A      3.531703   338A      3.542634  
     339A      3.545097   340A      3.561102   341A      3.577529  
     342A      3.589509   343A      3.617187   344A      3.629416  
     345A      3.641544   346A      3.660870   347A      3.672462  
     348A      3.677649   349A      3.690295   350A      3.700699  
     351A      3.724667   352A      3.727188   353A      3.737548  
     354A      3.750625   355A      3.764984   356A      3.768450  
     357A      3.790913   358A      3.792816   359A      3.811062  
     360A      3.818004   361A      3.829130   362A      3.833074  
     363A      3.846403   364A      3.852970   365A      3.866795  
     366A      3.878691   367A      3.890160   368A      3.916050  
     369A      3.945310   370A      3.953282   371A      3.960273  
     372A      3.973981   373A      3.977783   374A      3.992986  
     375A      4.003099   376A      4.010649   377A      4.018891  
     378A      4.026449   379A      4.035857   380A      4.048418  
     381A      4.074445   382A      4.082297   383A      4.086599  
     384A      4.098091   385A      4.126017   386A      4.133951  
     387A      4.150020   388A      4.164421   389A      4.184780  
     390A      4.217486   391A      4.225284   392A      4.259202  
     393A      4.268857   394A      4.276540   395A      4.300998  
     396A      4.336810   397A      4.346681   398A      4.355116  
     399A      4.365844   400A      4.369248   401A      4.388125  
     402A      4.400712   403A      4.438661   404A      4.459410  
     405A      4.474800   406A      4.477607   407A      4.504515  
     408A      4.511430   409A      4.524702   410A      4.536981  
     411A      4.563280   412A      4.587823   413A      4.615296  
     414A      4.619352   415A      4.629430   416A      4.690270  
     417A      4.694795   418A      4.720258   419A      4.736470  
     420A      4.762232   421A      4.772319   422A      4.774882  
     423A      4.804276   424A      4.822319   425A      4.843090  
     426A      4.871135   427A      4.896144   428A      4.900610  
     429A      4.910815   430A      4.916722   431A      4.948114  
     432A      4.952411   433A      5.000936   434A      5.015900  
     435A      5.019338   436A      5.037366   437A      5.064802  
     438A      5.104087   439A      5.113836   440A      5.133471  
     441A      5.146016   442A      5.175821   443A      5.198849  
     444A      5.208776   445A      5.245417   446A      5.259035  
     447A      5.295798   448A      5.304635   449A      5.343091  
     450A      5.348128   451A      5.372497   452A      5.381745  
     453A      5.413768   454A      5.421042   455A      5.437979  
     456A      5.456261   457A      5.471598   458A      5.479166  
     459A      5.490368   460A      5.547350   461A      5.572861  
     462A      5.591717   463A      5.604480   464A      5.611059  
     465A      5.628956   466A      5.658282   467A      5.721009  
     468A      5.722632   469A      5.749764   470A      5.774916  
     471A      5.800391   472A      5.826179   473A      5.870365  
     474A      5.908646   475A      5.963095   476A      5.991947  
     477A      6.003497   478A      6.055043   479A      6.069359  
     480A      6.115243   481A      6.194919   482A      6.229933  
     483A      6.245212   484A      6.269769   485A      6.350323  
     486A      6.359718   487A      6.484219   488A      6.547059  
     489A      6.570399   490A      6.663458   491A      6.672306  
     492A      6.740197   493A      6.858078   494A      6.879265  
     495A      6.898078   496A      6.930747   497A      6.964840  
     498A      6.979393   499A      7.111899   500A      7.119899  
     501A     15.561456   502A     17.686574   503A     17.956982  
     504A     18.613712   505A     20.293694   506A     20.752559  

    Final Occupation by Irrep:
              A 
    DOCC [    23 ]

  @DF-RHF Final Energy:  -233.01557184634544

   => Energetics <=

    Nuclear Repulsion Energy =            223.6076361168371136
    One-Electron Energy =                -756.0104031795950732
    Two-Electron Energy =                 299.3871952164124650
    Total Energy =                       -233.0155718463454377

Computation Completed

*** tstop() called on c403-114.stampede2.tacc.utexas.edu at Mon Mar  1 05:32:35 2021
Module time:
	user time   =     297.20 seconds =       4.95 minutes
	system time =      26.50 seconds =       0.44 minutes
	total time  =         19 seconds =       0.32 minutes
Total time:
	user time   =     297.20 seconds =       4.95 minutes
	system time =      26.50 seconds =       0.44 minutes
	total time  =         19 seconds =       0.32 minutes
   => Loading Basis Set <=

    Name: (AUG-CC-PVTZ AUX)
    Role: RIFIT
    Keyword: DF_BASIS_MP2
    atoms 1-6  entry C          line   148 file /home1/07844/xy3866/miniconda3/envs/p4env/share/psi4/basis/aug-cc-pvtz-ri.gbs 
    atoms 7-16 entry H          line    30 file /home1/07844/xy3866/miniconda3/envs/p4env/share/psi4/basis/aug-cc-pvtz-ri.gbs 


*** tstart() called on c403-114.stampede2.tacc.utexas.edu
*** at Mon Mar  1 05:32:36 2021


  //>>>>>>>>>>>>>>>>>>>>>>>>>>>>>>>>>>>//
  //               DFMP2               //
  //<<<<<<<<<<<<<<<<<<<<<<<<<<<<<<<<<<<//

	 --------------------------------------------------------
	                          DF-MP2                         
	      2nd-Order Density-Fitted Moller-Plesset Theory     
	              RMP2 Wavefunction,  32 Threads             
	                                                         
	        Rob Parrish, Justin Turney, Andy Simmonett,      
	           Ed Hohenstein, and C. David Sherrill          
	 --------------------------------------------------------

   => Auxiliary Basis Set <=

  Basis Set: (AUG-CC-PVTZ AUX)
    Blend: AUG-CC-PVTZ-RI
    Number of shells: 308
    Number of basis functions: 1096
    Number of Cartesian functions: 1366
    Spherical Harmonics?: true
    Max angular momentum: 4

	 --------------------------------------------------------
	                 NBF =   506, NAUX =  1096
	 --------------------------------------------------------
	   CLASS    FOCC     OCC    AOCC    AVIR     VIR    FVIR
	   PAIRS       0      23      23     483     483       0
	 --------------------------------------------------------

  DFHelper Memory: AOs need 2.152 GiB; user supplied 22.352 GiB. Using in-core AOs.


         ------------------------------------------------------------
                                     CPHF                           
                                  Rob Parrish                       
         ------------------------------------------------------------

  ==> Geometry <==

    Molecular point group: c1
    Full point group: C1

    Geometry (in Angstrom), charge = 0, multiplicity = 1:

       Center              X                  Y                   Z               Mass       
    ------------   -----------------  -----------------  -----------------  -----------------
         C            1.079373445559    -0.000090877060     0.359979253619    12.000000000000
         C           -0.277474554441    -0.000219877060     1.088504253619    12.000000000000
         C            1.249748445559     1.259993122940    -0.484170746381    12.000000000000
         C            1.249861445559    -1.260012877060    -0.484388746381    12.000000000000
         C           -1.420434554441    -0.000191877060     0.171378253619    12.000000000000
         C           -2.373536554441    -0.000005877060    -0.592468746381    12.000000000000
         H            1.850108445559    -0.000128877060     1.143249253619     1.007825032230
         H           -0.338791554441    -0.880176877060     1.741664253619     1.007825032230
         H           -0.338885554441     0.879622122940     1.741806253619     1.007825032230
         H            2.235442445559     1.278129122940    -0.959435746381     1.007825032230
         H            1.151463445559     2.163169122940     0.126994253619     1.007825032230
         H            0.490221445559     1.297710122940    -1.270778746381     1.007825032230
         H            2.235558445559    -1.277981877060    -0.959652746381     1.007825032230
         H            0.629180545559    -1.290773177060    -1.127214946381     1.007825032230
         H            1.151648445559    -2.163304877060     0.126616253619     1.007825032230
         H           -3.202281554441     0.000025122940    -1.263768746381     1.007825032230

  Nuclear repulsion =  223.607636116837114
  Reference energy  = -233.015571846345438

  ==> Basis Set <==

  Basis Set: AUG-CC-PVTZ
    Blend: AUG-CC-PVTZ
    Number of shells: 174
    Number of basis functions: 506
    Number of Cartesian functions: 580
    Spherical Harmonics?: true
    Max angular momentum: 3

  ==> CGRSolver (by Rob Parrish) <==

   Number of roots    =         1
   Preconditioning    =    JACOBI
   Convergence cutoff =     1E-06
   Maximum iterations =       100

  ==> CPHFRHamiltonian (by Rob Parrish) <== 

  ==> MemDFJK: Density-Fitted J/K Matrices <==

    J tasked:                   Yes
    K tasked:                   Yes
    wK tasked:                   No
    OpenMP threads:              32
    Memory [MiB]:             22888
    Algorithm:                 Core
    Schwarz Cutoff:           1E-12
    Mask sparsity (%):       1.8013
    Fitting Condition:        1E-10

   => Auxiliary Basis Set <=

  Basis Set: (AUG-CC-PVTZ AUX)
    Blend: AUG-CC-PVTZ-JKFIT
    Number of shells: 320
    Number of basis functions: 1084
    Number of Cartesian functions: 1336
    Spherical Harmonics?: true
    Max angular momentum: 4

  ==> CPHF Iterations <==

  => Iterations <=

             Iter  Converged  Remaining    Residual
  CGR           1          0          1   8.779E-02
  CGR           2          0          1   2.501E-02
  CGR           3          0          1   7.368E-03
  CGR           4          0          1   2.008E-03
  CGR           5          0          1   7.182E-04
  CGR           6          0          1   3.035E-04
  CGR           7          0          1   1.478E-04
  CGR           8          0          1   5.985E-05
  CGR           9          0          1   1.525E-05
  CGR          10          0          1   4.104E-06
  CGR          11          1          0   8.886E-07

    CGRSolver converged.

	-----------------------------------------------------------
	 ==================> DF-MP2 Energies <==================== 
	-----------------------------------------------------------
	 Reference Energy          =    -233.0155718463454377 [Eh]
	 Singles Energy            =      -0.0000000000000000 [Eh]
	 Same-Spin Energy          =      -0.2499142944984546 [Eh]
	 Opposite-Spin Energy      =      -0.8884614133206585 [Eh]
	 Correlation Energy        =      -1.1383757078191130 [Eh]
	 Total Energy              =    -234.1539475541645459 [Eh]
	-----------------------------------------------------------
	 ================> DF-SCS-MP2 Energies <================== 
	-----------------------------------------------------------
	 SCS Same-Spin Scale       =       0.3333333333333333 [-]
	 SCS Opposite-Spin Scale   =       1.2000000000000000 [-]
	 SCS Same-Spin Energy      =      -0.0833047648328182 [Eh]
	 SCS Opposite-Spin Energy  =      -1.0661536959847902 [Eh]
	 SCS Correlation Energy    =      -1.1494584608176084 [Eh]
	 SCS Total Energy          =    -234.1650303071630503 [Eh]
	-----------------------------------------------------------



Properties will be evaluated at  -0.000000,   0.000000,  -0.000000 [a0]

Properties computed using the MP2 density matrix

  Nuclear Dipole Moment: [e a0]
     X:     5.4970      Y:     0.0059      Z:    -0.6567

  Electronic Dipole Moment: [e a0]
     X:    -5.2559      Y:    -0.0138      Z:     0.7587

  Dipole Moment: [e a0]
     X:     0.2411      Y:    -0.0079      Z:     0.1020     Total:     0.2619

  Dipole Moment: [D]
     X:     0.6129      Y:    -0.0202      Z:     0.2593     Total:     0.6658


*** tstop() called on c403-114.stampede2.tacc.utexas.edu at Mon Mar  1 05:34:10 2021
Module time:
	user time   =     745.20 seconds =      12.42 minutes
	system time =      33.07 seconds =       0.55 minutes
	total time  =         94 seconds =       1.57 minutes
Total time:
	user time   =    1043.19 seconds =      17.39 minutes
	system time =      59.59 seconds =       0.99 minutes
	total time  =        114 seconds =       1.90 minutes

    Psi4 stopped on: Monday, 01 March 2021 05:34AM
    Psi4 wall time for execution: 0:01:54.64

*** Psi4 exiting successfully. Buy a developer a beer!
