85054                                                                   
Freq      RMP2-FC                                                     6-31G(d)            
Number of atoms                            I               17
Info1-9                                    I   N=           9
          29          27        1002           0           0         100
           6           2           1
Charge                                     I                0
Multiplicity                               I                1
Number of electrons                        I               68
Number of alpha electrons                  I               34
Number of beta electrons                   I               34
Number of basis functions                  I              142
Number of independent functions            I              142
Number of point charges in /Mol/           I                0
Number of translation vectors              I                0
Atomic numbers                             I   N=          17
          16           7           6           6           6           6
           6           6           1           1           1           1
           1           1           1           1           1
Nuclear charges                            R   N=          17
  1.60000000E+01  7.00000000E+00  6.00000000E+00  6.00000000E+00  6.00000000E+00
  6.00000000E+00  6.00000000E+00  6.00000000E+00  1.00000000E+00  1.00000000E+00
  1.00000000E+00  1.00000000E+00  1.00000000E+00  1.00000000E+00  1.00000000E+00
  1.00000000E+00  1.00000000E+00
Current cartesian coordinates              R   N=          51
  2.31653176E+00 -2.19695941E+00 -3.47665669E-05  6.16840459E-01  2.36416299E+00
  2.79591304E-05 -2.87201469E+00 -7.69821617E-01 -1.87079774E-05 -1.37648086E-01
 -1.12550622E-02 -8.21848392E-06 -4.16755735E+00  2.20694936E-01 -2.38940006E+00
 -4.16754075E+00  2.20573601E-01  2.38942247E+00  4.46072008E+00  2.30358371E-01
  6.99054864E-06  3.20520955E+00  2.50436465E+00  3.86676854E-05 -2.96646855E+00
 -2.84266223E+00 -7.13189642E-05 -4.04254846E+00  2.28161013E+00 -2.44348355E+00
 -6.16178665E+00 -3.29289028E-01 -2.41173426E+00 -3.26285024E+00 -5.29896678E-01
 -4.08975621E+00 -3.26281975E+00 -5.30101211E-01  4.08973458E+00 -6.16176933E+00
 -3.29413749E-01  2.41174473E+00 -4.04253443E+00  2.28148647E+00  2.44360693E+00
  6.47656550E+00 -1.10317554E-01  4.80630246E-06  4.11480805E+00  4.34130430E+00
  6.79795639E-05
Force Field                                I                0
Int Atom Types                             I   N=          17
           0           0           0           0           0           0
           0           0           0           0           0           0
           0           0           0           0           0
MM charges                                 R   N=          17
  0.00000000E+00  0.00000000E+00  0.00000000E+00  0.00000000E+00  0.00000000E+00
  0.00000000E+00  0.00000000E+00  0.00000000E+00  0.00000000E+00  0.00000000E+00
  0.00000000E+00  0.00000000E+00  0.00000000E+00  0.00000000E+00  0.00000000E+00
  0.00000000E+00  0.00000000E+00
Integer atomic weights                     I   N=          17
          32          14          12          12          12          12
          12          12           1           1           1           1
           1           1           1           1           1
Real atomic weights                        R   N=          17
  3.19720718E+01  1.40030740E+01  1.20000000E+01  1.20000000E+01  1.20000000E+01
  1.20000000E+01  1.20000000E+01  1.20000000E+01  1.00782504E+00  1.00782504E+00
  1.00782504E+00  1.00782504E+00  1.00782504E+00  1.00782504E+00  1.00782504E+00
  1.00782504E+00  1.00782504E+00
Atom fragment info                         I   N=          17
           0           0           0           0           0           0
           0           0           0           0           0           0
           0           0           0           0           0
Atom residue num                           I   N=          17
           0           0           0           0           0           0
           0           0           0           0           0           0
           0           0           0           0           0
Nuclear spins                              I   N=          17
           0           2           0           0           0           0
           0           0           1           1           1           1
           1           1           1           1           1
Nuclear ZEff                               R   N=          17
 -1.36000000E+01 -4.55000000E+00 -3.60000000E+00 -3.60000000E+00 -3.60000000E+00
 -3.60000000E+00 -3.60000000E+00 -3.60000000E+00 -1.00000000E+00 -1.00000000E+00
 -1.00000000E+00 -1.00000000E+00 -1.00000000E+00 -1.00000000E+00 -1.00000000E+00
 -1.00000000E+00 -1.00000000E+00
Nuclear QMom                               R   N=          17
  0.00000000E+00  2.04400000E+00  0.00000000E+00  0.00000000E+00  0.00000000E+00
  0.00000000E+00  0.00000000E+00  0.00000000E+00  0.00000000E+00  0.00000000E+00
  0.00000000E+00  0.00000000E+00  0.00000000E+00  0.00000000E+00  0.00000000E+00
  0.00000000E+00  0.00000000E+00
Nuclear GFac                               R   N=          17
  0.00000000E+00  4.03761000E-01  0.00000000E+00  0.00000000E+00  0.00000000E+00
  0.00000000E+00  0.00000000E+00  0.00000000E+00  2.79284600E+00  2.79284600E+00
  2.79284600E+00  2.79284600E+00  2.79284600E+00  2.79284600E+00  2.79284600E+00
  2.79284600E+00  2.79284600E+00
MicOpt                                     I   N=          17
          -1          -1          -1          -1          -1          -1
          -1          -1          -1          -1          -1          -1
          -1          -1          -1          -1          -1
Number of contracted shells                I               51
Number of primitive shells                 I              130
Pure/Cartesian d shells                    I                1
Pure/Cartesian f shells                    I                0
Highest angular momentum                   I                2
Largest degree of contraction              I                6
Shell types                                I   N=          51
           0          -1          -1          -1           2           0
          -1          -1           2           0          -1          -1
           2           0          -1          -1           2           0
          -1          -1           2           0          -1          -1
           2           0          -1          -1           2           0
          -1          -1           2           0           0           0
           0           0           0           0           0           0
           0           0           0           0           0           0
           0           0           0
Number of primitives per shell             I   N=          51
           6           6           3           1           1           6
           3           1           1           6           3           1
           1           6           3           1           1           6
           3           1           1           6           3           1
           1           6           3           1           1           6
           3           1           1           3           1           3
           1           3           1           3           1           3
           1           3           1           3           1           3
           1           3           1
Shell to atom map                          I   N=          51
           1           1           1           1           1           2
           2           2           2           3           3           3
           3           4           4           4           4           5
           5           5           5           6           6           6
           6           7           7           7           7           8
           8           8           8           9           9          10
          10          11          11          12          12          13
          13          14          14          15          15          16
          16          17          17
Primitive exponents                        R   N=         130
  2.19171000E+04  3.30149000E+03  7.54146000E+02  2.12711000E+02  6.79896000E+01
  2.30515000E+01  4.23735000E+02  1.00710000E+02  3.21599000E+01  1.18079000E+01
  4.63110000E+00  1.87025000E+00  2.61584000E+00  9.22167000E-01  3.41287000E-01
  1.17167000E-01  6.50000000E-01  4.17351146E+03  6.27457911E+02  1.42902093E+02
  4.02343293E+01  1.28202129E+01  4.39043701E+00  1.16263619E+01  2.71627981E+00
  7.72218397E-01  2.12031498E-01  8.00000000E-01  3.04752488E+03  4.57369518E+02
  1.03948685E+02  2.92101553E+01  9.28666296E+00  3.16392696E+00  7.86827235E+00
  1.88128854E+00  5.44249258E-01  1.68714478E-01  8.00000000E-01  3.04752488E+03
  4.57369518E+02  1.03948685E+02  2.92101553E+01  9.28666296E+00  3.16392696E+00
  7.86827235E+00  1.88128854E+00  5.44249258E-01  1.68714478E-01  8.00000000E-01
  3.04752488E+03  4.57369518E+02  1.03948685E+02  2.92101553E+01  9.28666296E+00
  3.16392696E+00  7.86827235E+00  1.88128854E+00  5.44249258E-01  1.68714478E-01
  8.00000000E-01  3.04752488E+03  4.57369518E+02  1.03948685E+02  2.92101553E+01
  9.28666296E+00  3.16392696E+00  7.86827235E+00  1.88128854E+00  5.44249258E-01
  1.68714478E-01  8.00000000E-01  3.04752488E+03  4.57369518E+02  1.03948685E+02
  2.92101553E+01  9.28666296E+00  3.16392696E+00  7.86827235E+00  1.88128854E+00
  5.44249258E-01  1.68714478E-01  8.00000000E-01  3.04752488E+03  4.57369518E+02
  1.03948685E+02  2.92101553E+01  9.28666296E+00  3.16392696E+00  7.86827235E+00
  1.88128854E+00  5.44249258E-01  1.68714478E-01  8.00000000E-01  1.87311370E+01
  2.82539436E+00  6.40121692E-01  1.61277759E-01  1.87311370E+01  2.82539436E+00
  6.40121692E-01  1.61277759E-01  1.87311370E+01  2.82539436E+00  6.40121692E-01
  1.61277759E-01  1.87311370E+01  2.82539436E+00  6.40121692E-01  1.61277759E-01
  1.87311370E+01  2.82539436E+00  6.40121692E-01  1.61277759E-01  1.87311370E+01
  2.82539436E+00  6.40121692E-01  1.61277759E-01  1.87311370E+01  2.82539436E+00
  6.40121692E-01  1.61277759E-01  1.87311370E+01  2.82539436E+00  6.40121692E-01
  1.61277759E-01  1.87311370E+01  2.82539436E+00  6.40121692E-01  1.61277759E-01
Contraction coefficients                   R   N=         130
  1.86924085E-03  1.42303065E-02  6.96962317E-02  2.38487108E-01  4.83307220E-01
  3.38074154E-01 -2.37677050E-03 -3.16930067E-02 -1.13317024E-01  5.60900118E-02
  5.92255124E-01  4.55006095E-01 -2.50373114E-01  6.69567631E-02  1.05450627E+00
  1.00000000E+00  1.00000000E+00  1.83477216E-03  1.39946270E-02  6.85865518E-02
  2.32240873E-01  4.69069948E-01  3.60455199E-01 -1.14961182E-01 -1.69117479E-01
  1.14585195E+00  1.00000000E+00  1.00000000E+00  1.83473713E-03  1.40373228E-02
  6.88426223E-02  2.32184443E-01  4.67941348E-01  3.62311985E-01 -1.19332420E-01
 -1.60854152E-01  1.14345644E+00  1.00000000E+00  1.00000000E+00  1.83473713E-03
  1.40373228E-02  6.88426223E-02  2.32184443E-01  4.67941348E-01  3.62311985E-01
 -1.19332420E-01 -1.60854152E-01  1.14345644E+00  1.00000000E+00  1.00000000E+00
  1.83473713E-03  1.40373228E-02  6.88426223E-02  2.32184443E-01  4.67941348E-01
  3.62311985E-01 -1.19332420E-01 -1.60854152E-01  1.14345644E+00  1.00000000E+00
  1.00000000E+00  1.83473713E-03  1.40373228E-02  6.88426223E-02  2.32184443E-01
  4.67941348E-01  3.62311985E-01 -1.19332420E-01 -1.60854152E-01  1.14345644E+00
  1.00000000E+00  1.00000000E+00  1.83473713E-03  1.40373228E-02  6.88426223E-02
  2.32184443E-01  4.67941348E-01  3.62311985E-01 -1.19332420E-01 -1.60854152E-01
  1.14345644E+00  1.00000000E+00  1.00000000E+00  1.83473713E-03  1.40373228E-02
  6.88426223E-02  2.32184443E-01  4.67941348E-01  3.62311985E-01 -1.19332420E-01
 -1.60854152E-01  1.14345644E+00  1.00000000E+00  1.00000000E+00  3.34946043E-02
  2.34726953E-01  8.13757326E-01  1.00000000E+00  3.34946043E-02  2.34726953E-01
  8.13757326E-01  1.00000000E+00  3.34946043E-02  2.34726953E-01  8.13757326E-01
  1.00000000E+00  3.34946043E-02  2.34726953E-01  8.13757326E-01  1.00000000E+00
  3.34946043E-02  2.34726953E-01  8.13757326E-01  1.00000000E+00  3.34946043E-02
  2.34726953E-01  8.13757326E-01  1.00000000E+00  3.34946043E-02  2.34726953E-01
  8.13757326E-01  1.00000000E+00  3.34946043E-02  2.34726953E-01  8.13757326E-01
  1.00000000E+00  3.34946043E-02  2.34726953E-01  8.13757326E-01  1.00000000E+00
P(S=P) Contraction coefficients            R   N=         130
  0.00000000E+00  0.00000000E+00  0.00000000E+00  0.00000000E+00  0.00000000E+00
  0.00000000E+00  4.06100998E-03  3.06812999E-02  1.30451999E-01  3.27204999E-01
  4.52850998E-01  2.56041999E-01 -1.45104895E-02  3.10262776E-01  7.54482456E-01
  1.00000000E+00  0.00000000E+00  0.00000000E+00  0.00000000E+00  0.00000000E+00
  0.00000000E+00  0.00000000E+00  0.00000000E+00  6.75797439E-02  3.23907296E-01
  7.40895140E-01  1.00000000E+00  0.00000000E+00  0.00000000E+00  0.00000000E+00
  0.00000000E+00  0.00000000E+00  0.00000000E+00  0.00000000E+00  6.89990666E-02
  3.16423961E-01  7.44308291E-01  1.00000000E+00  0.00000000E+00  0.00000000E+00
  0.00000000E+00  0.00000000E+00  0.00000000E+00  0.00000000E+00  0.00000000E+00
  6.89990666E-02  3.16423961E-01  7.44308291E-01  1.00000000E+00  0.00000000E+00
  0.00000000E+00  0.00000000E+00  0.00000000E+00  0.00000000E+00  0.00000000E+00
  0.00000000E+00  6.89990666E-02  3.16423961E-01  7.44308291E-01  1.00000000E+00
  0.00000000E+00  0.00000000E+00  0.00000000E+00  0.00000000E+00  0.00000000E+00
  0.00000000E+00  0.00000000E+00  6.89990666E-02  3.16423961E-01  7.44308291E-01
  1.00000000E+00  0.00000000E+00  0.00000000E+00  0.00000000E+00  0.00000000E+00
  0.00000000E+00  0.00000000E+00  0.00000000E+00  6.89990666E-02  3.16423961E-01
  7.44308291E-01  1.00000000E+00  0.00000000E+00  0.00000000E+00  0.00000000E+00
  0.00000000E+00  0.00000000E+00  0.00000000E+00  0.00000000E+00  6.89990666E-02
  3.16423961E-01  7.44308291E-01  1.00000000E+00  0.00000000E+00  0.00000000E+00
  0.00000000E+00  0.00000000E+00  0.00000000E+00  0.00000000E+00  0.00000000E+00
  0.00000000E+00  0.00000000E+00  0.00000000E+00  0.00000000E+00  0.00000000E+00
  0.00000000E+00  0.00000000E+00  0.00000000E+00  0.00000000E+00  0.00000000E+00
  0.00000000E+00  0.00000000E+00  0.00000000E+00  0.00000000E+00  0.00000000E+00
  0.00000000E+00  0.00000000E+00  0.00000000E+00  0.00000000E+00  0.00000000E+00
  0.00000000E+00  0.00000000E+00  0.00000000E+00  0.00000000E+00  0.00000000E+00
  0.00000000E+00  0.00000000E+00  0.00000000E+00  0.00000000E+00  0.00000000E+00
Coordinates of each shell                  R   N=         153
  2.31653176E+00 -2.19695941E+00 -3.47665669E-05  2.31653176E+00 -2.19695941E+00
 -3.47665669E-05  2.31653176E+00 -2.19695941E+00 -3.47665669E-05  2.31653176E+00
 -2.19695941E+00 -3.47665669E-05  2.31653176E+00 -2.19695941E+00 -3.47665669E-05
  6.16840459E-01  2.36416299E+00  2.79591304E-05  6.16840459E-01  2.36416299E+00
  2.79591304E-05  6.16840459E-01  2.36416299E+00  2.79591304E-05  6.16840459E-01
  2.36416299E+00  2.79591304E-05 -2.87201469E+00 -7.69821617E-01 -1.87079774E-05
 -2.87201469E+00 -7.69821617E-01 -1.87079774E-05 -2.87201469E+00 -7.69821617E-01
 -1.87079774E-05 -2.87201469E+00 -7.69821617E-01 -1.87079774E-05 -1.37648086E-01
 -1.12550622E-02 -8.21848392E-06 -1.37648086E-01 -1.12550622E-02 -8.21848392E-06
 -1.37648086E-01 -1.12550622E-02 -8.21848392E-06 -1.37648086E-01 -1.12550622E-02
 -8.21848392E-06 -4.16755735E+00  2.20694936E-01 -2.38940006E+00 -4.16755735E+00
  2.20694936E-01 -2.38940006E+00 -4.16755735E+00  2.20694936E-01 -2.38940006E+00
 -4.16755735E+00  2.20694936E-01 -2.38940006E+00 -4.16754075E+00  2.20573601E-01
  2.38942247E+00 -4.16754075E+00  2.20573601E-01  2.38942247E+00 -4.16754075E+00
  2.20573601E-01  2.38942247E+00 -4.16754075E+00  2.20573601E-01  2.38942247E+00
  4.46072008E+00  2.30358371E-01  6.99054864E-06  4.46072008E+00  2.30358371E-01
  6.99054864E-06  4.46072008E+00  2.30358371E-01  6.99054864E-06  4.46072008E+00
  2.30358371E-01  6.99054864E-06  3.20520955E+00  2.50436465E+00  3.86676854E-05
  3.20520955E+00  2.50436465E+00  3.86676854E-05  3.20520955E+00  2.50436465E+00
  3.86676854E-05  3.20520955E+00  2.50436465E+00  3.86676854E-05 -2.96646855E+00
 -2.84266223E+00 -7.13189642E-05 -2.96646855E+00 -2.84266223E+00 -7.13189642E-05
 -4.04254846E+00  2.28161013E+00 -2.44348355E+00 -4.04254846E+00  2.28161013E+00
 -2.44348355E+00 -6.16178665E+00 -3.29289028E-01 -2.41173426E+00 -6.16178665E+00
 -3.29289028E-01 -2.41173426E+00 -3.26285024E+00 -5.29896678E-01 -4.08975621E+00
 -3.26285024E+00 -5.29896678E-01 -4.08975621E+00 -3.26281975E+00 -5.30101211E-01
  4.08973458E+00 -3.26281975E+00 -5.30101211E-01  4.08973458E+00 -6.16176933E+00
 -3.29413749E-01  2.41174473E+00 -6.16176933E+00 -3.29413749E-01  2.41174473E+00
 -4.04253443E+00  2.28148647E+00  2.44360693E+00 -4.04253443E+00  2.28148647E+00
  2.44360693E+00  6.47656550E+00 -1.10317554E-01  4.80630246E-06  6.47656550E+00
 -1.10317554E-01  4.80630246E-06  4.11480805E+00  4.34130430E+00  6.79795639E-05
  4.11480805E+00  4.34130430E+00  6.79795639E-05
Constraint Structure                       R   N=          51
  2.31653176E+00 -2.19695941E+00 -3.47665669E-05  6.16840459E-01  2.36416299E+00
  2.79591304E-05 -2.87201469E+00 -7.69821617E-01 -1.87079774E-05 -1.37648086E-01
 -1.12550622E-02 -8.21848392E-06 -4.16755735E+00  2.20694936E-01 -2.38940006E+00
 -4.16754075E+00  2.20573601E-01  2.38942247E+00  4.46072008E+00  2.30358371E-01
  6.99054864E-06  3.20520955E+00  2.50436465E+00  3.86676854E-05 -2.96646855E+00
 -2.84266223E+00 -7.13189642E-05 -4.04254846E+00  2.28161013E+00 -2.44348355E+00
 -6.16178665E+00 -3.29289028E-01 -2.41173426E+00 -3.26285024E+00 -5.29896678E-01
 -4.08975621E+00 -3.26281975E+00 -5.30101211E-01  4.08973458E+00 -6.16176933E+00
 -3.29413749E-01  2.41174473E+00 -4.04253443E+00  2.28148647E+00  2.44360693E+00
  6.47656550E+00 -1.10317554E-01  4.80630246E-06  4.11480805E+00  4.34130430E+00
  6.79795639E-05
Num ILSW                                   I              100
ILSW                                       I   N=         100
           0           1           0           0           2           0
           0           0           0           0           0          -1
           0           0           0           0           0           0
           0           0           0           0           1           0
           1           0           0           0           0           0
           0           0      100000           0          -1           0
           0           0           0           0           0           0
           0           0           0           1           1           0
           0           0           1           0           0           0
           0           0           4          40           0           0
           0           0           0           0           0           0
           0           0           0           0           0           0
           0           0           0           0           0           0
           0           0           0           0           0           0
           0           0           0           0           0           0
           0           0           0           0           0           0
           0           0           0           0
Num RLSW                                   I               40
RLSW                                       R   N=          40
  1.00000000E+00  1.00000000E+00  1.00000000E+00  1.00000000E+00  1.00000000E+00
  0.00000000E+00  0.00000000E+00  1.00000000E+00  0.00000000E+00  0.00000000E+00
  0.00000000E+00  0.00000000E+00  1.00000000E+00  0.00000000E+00  0.00000000E+00
  0.00000000E+00  0.00000000E+00  1.00000000E+00  0.00000000E+00  0.00000000E+00
  0.00000000E+00  0.00000000E+00  1.00000000E+00  0.00000000E+00  0.00000000E+00
  0.00000000E+00  0.00000000E+00  1.00000000E+00  0.00000000E+00  0.00000000E+00
  0.00000000E+00  0.00000000E+00  0.00000000E+00  0.00000000E+00  0.00000000E+00
  0.00000000E+00  0.00000000E+00  0.00000000E+00  1.00000000E+00  1.00000000E+00
MxBond                                     I                4
NBond                                      I   N=          17
           2           2           4           3           4           4
           3           3           1           1           1           1
           1           1           1           1           1
IBond                                      I   N=          68
           4           7           0           0           4           8
           0           0           4           5           6           9
           1           2           3           0           3          10
          11          12           3          13          14          15
           1           8          16           0           2           7
          17           0           3           0           0           0
           5           0           0           0           5           0
           0           0           5           0           0           0
           6           0           0           0           6           0
           0           0           6           0           0           0
           7           0           0           0           8           0
           0           0
RBond                                      R   N=          68
  2.00000000E+00  1.00000000E+00  0.00000000E+00  0.00000000E+00  2.00000000E+00
  1.00000000E+00  0.00000000E+00  0.00000000E+00  1.00000000E+00  1.00000000E+00
  1.00000000E+00  1.00000000E+00  2.00000000E+00  2.00000000E+00  1.00000000E+00
  0.00000000E+00  1.00000000E+00  1.00000000E+00  1.00000000E+00  1.00000000E+00
  1.00000000E+00  1.00000000E+00  1.00000000E+00  1.00000000E+00  1.00000000E+00
  1.50000000E+00  1.00000000E+00  0.00000000E+00  1.00000000E+00  1.50000000E+00
  1.00000000E+00  0.00000000E+00  1.00000000E+00  0.00000000E+00  0.00000000E+00
  0.00000000E+00  1.00000000E+00  0.00000000E+00  0.00000000E+00  0.00000000E+00
  1.00000000E+00  0.00000000E+00  0.00000000E+00  0.00000000E+00  1.00000000E+00
  0.00000000E+00  0.00000000E+00  0.00000000E+00  1.00000000E+00  0.00000000E+00
  0.00000000E+00  0.00000000E+00  1.00000000E+00  0.00000000E+00  0.00000000E+00
  0.00000000E+00  1.00000000E+00  0.00000000E+00  0.00000000E+00  0.00000000E+00
  1.00000000E+00  0.00000000E+00  0.00000000E+00  0.00000000E+00  1.00000000E+00
  0.00000000E+00  0.00000000E+00  0.00000000E+00
Virial Ratio                               R      2.001017191039017E+00
SCF Energy                                 R     -6.843976318619427E+02
MP2 Energy                                 R     -6.854693527204164E+02
Total Energy                               R     -6.854693527204164E+02
Post-SCF wavefunction norm                 R      1.668322829725672E+00
RMS Force                                  R      4.492764754199218E-07
RMS Density                                R      1.242661102435705E-09
External E-field                           R   N=          35
  0.00000000E+00  0.00000000E+00  0.00000000E+00  0.00000000E+00  0.00000000E+00
  0.00000000E+00  0.00000000E+00  0.00000000E+00  0.00000000E+00  0.00000000E+00
  0.00000000E+00  0.00000000E+00  0.00000000E+00  0.00000000E+00  0.00000000E+00
  0.00000000E+00  0.00000000E+00  0.00000000E+00  0.00000000E+00  0.00000000E+00
  0.00000000E+00  0.00000000E+00  0.00000000E+00  0.00000000E+00  0.00000000E+00
  0.00000000E+00  0.00000000E+00  0.00000000E+00  0.00000000E+00  0.00000000E+00
  0.00000000E+00  0.00000000E+00  0.00000000E+00  0.00000000E+00  0.00000000E+00
IOpCl                                      I                0
IROHF                                      I                0
Alpha Orbital Energies                     R   N=         142
 -9.19794698E+01 -1.55665299E+01 -1.13091111E+01 -1.12677600E+01 -1.12611422E+01
 -1.12489542E+01 -1.12191666E+01 -1.12191481E+01 -8.99041018E+00 -6.67283749E+00
 -6.67193308E+00 -6.67040363E+00 -1.27339722E+00 -1.09346802E+00 -1.06062462E+00
 -9.79678369E-01 -9.34570319E-01 -8.38857544E-01 -7.90450004E-01 -7.14936757E-01
 -6.81074384E-01 -6.24594674E-01 -5.99867124E-01 -5.84380527E-01 -5.65549485E-01
 -5.43843867E-01 -5.28811139E-01 -5.01880432E-01 -4.97861463E-01 -4.85850307E-01
 -4.81504900E-01 -4.18563774E-01 -3.82598591E-01 -3.24731242E-01  1.23786936E-01
  1.70059467E-01  2.16899564E-01  2.39944517E-01  2.62282865E-01  2.67901976E-01
  2.95571340E-01  2.99161888E-01  3.03371779E-01  3.10389767E-01  3.38321091E-01
  3.48976108E-01  3.56035812E-01  3.59782241E-01  4.02847070E-01  4.15670398E-01
  4.38506930E-01  4.74987993E-01  4.98881407E-01  5.36622800E-01  5.75024189E-01
  6.16956695E-01  6.71349656E-01  7.10201315E-01  7.34065065E-01  7.41726205E-01
  7.55002290E-01  7.79398860E-01  7.88121142E-01  8.05062003E-01  8.47247573E-01
  8.50693795E-01  8.81737260E-01  8.99246886E-01  9.67542209E-01  9.79541030E-01
  9.80275522E-01  9.91212867E-01  1.03467562E+00  1.04460819E+00  1.06652865E+00
  1.08010420E+00  1.09835468E+00  1.12850648E+00  1.13724038E+00  1.14086103E+00
  1.16044172E+00  1.17417476E+00  1.18774467E+00  1.19081061E+00  1.21454315E+00
  1.22283113E+00  1.23458717E+00  1.24392334E+00  1.26181873E+00  1.28255285E+00
  1.31123516E+00  1.33083679E+00  1.37516098E+00  1.45537939E+00  1.59977445E+00
  1.60628082E+00  1.62834758E+00  1.66530837E+00  1.70683797E+00  1.74218532E+00
  1.75048914E+00  1.85883856E+00  1.86982726E+00  2.03946281E+00  2.04411309E+00
  2.07211203E+00  2.11159651E+00  2.15122804E+00  2.19760578E+00  2.23536474E+00
  2.27400603E+00  2.30839987E+00  2.32100857E+00  2.36486368E+00  2.41346858E+00
  2.44932535E+00  2.53738555E+00  2.56910424E+00  2.57059711E+00  2.59024837E+00
  2.60633350E+00  2.61566019E+00  2.64728663E+00  2.66690491E+00  2.82235595E+00
  2.82838815E+00  2.85973133E+00  2.87711708E+00  2.92699004E+00  3.03974206E+00
  3.06705558E+00  3.14920111E+00  3.36159926E+00  3.40362730E+00  4.35164665E+00
  4.43738807E+00  4.53129437E+00  4.61274252E+00  4.71236807E+00  4.74659417E+00
  4.78681313E+00  5.01304993E+00
Alpha MO coefficients                      R   N=       20164
  9.96254036E-01  1.42567681E-02 -1.10903155E-05  8.77746475E-05  1.33745604E-09
 -2.00170375E-02  5.32166768E-05 -1.74226179E-04 -2.74878441E-09  2.25783692E-03
  3.72830314E-05  3.81815605E-05  8.26293470E-10  6.88738268E-03  6.90117002E-03
  6.91491940E-03 -5.11770793E-06 -8.08634630E-11 -3.11783321E-10 -3.30035222E-05
 -1.38677338E-04  2.85891417E-08  3.50608866E-05  4.84992305E-10  1.24185994E-03
  1.64934140E-05 -3.86866498E-04 -5.53495939E-09 -3.33511371E-05 -6.04175550E-05
 -9.83370155E-05  1.80100012E-05  5.07081403E-10  7.19388713E-10 -7.48658957E-06
 -9.03390424E-06  1.75798357E-05 -1.70489750E-05 -3.51041945E-10  2.32824683E-04
 -3.02695633E-04  3.99357546E-04  9.12730608E-09 -5.34103959E-05 -7.69123917E-06
 -3.54598588E-06  3.23065950E-05  3.87248141E-10 -2.87357422E-10  9.68728708E-06
  9.55614163E-05  1.87346577E-05 -3.59567018E-05 -9.20809482E-10 -4.80204411E-04
  8.44903016E-05 -7.47058012E-04 -9.62496584E-09 -7.96741358E-06 -3.37489772E-05
 -3.49081696E-06  4.86818749E-05  6.98908101E-10 -3.72911737E-10 -1.92878745E-06
 -4.53616366E-06 -2.89833616E-06  3.38782492E-06 -7.37325646E-06 -1.33372612E-04
  3.62473981E-05 -3.71015467E-05 -1.61369882E-04  7.17281861E-06  1.79086952E-06
 -2.44935782E-05 -5.08744789E-06 -6.85401086E-08 -1.80830675E-06 -1.92848784E-06
 -4.53510305E-06 -2.89718911E-06  3.38760276E-06  7.37287580E-06 -1.33373489E-04
  3.62435771E-05 -3.71119647E-05  1.61370322E-04  7.17339202E-06  1.79140502E-06
 -2.44931534E-05 -5.08701032E-06  6.82148308E-08  1.80985860E-06  7.40709123E-06
  7.47813018E-05 -2.98458139E-05 -2.86308625E-05 -4.78369637E-10  5.09209754E-04
 -5.38060205E-04  1.44548730E-04  9.41494349E-10 -1.42873665E-05 -1.31641477E-05
 -2.26462024E-05 -6.89547042E-05 -1.00287465E-09  1.09436978E-11  1.13106590E-05
  3.03166730E-05 -7.33342112E-06  1.49186044E-05  2.83056684E-10 -8.31182060E-04
  2.84838503E-04  6.09276631E-04  9.91480868E-09  8.62041681E-06  7.16928836E-06
  2.17522685E-05  1.98084144E-05  2.28495451E-10 -2.36537063E-10  4.52197526E-05
  1.43698501E-05 -1.08655822E-07  3.88923454E-05  3.27874734E-06  2.13121585E-05
  1.37244907E-05 -1.15546606E-04  1.37259298E-05 -1.15550456E-04  3.27828286E-06
  2.13093279E-05 -1.08332218E-07  3.88945090E-05  2.29285016E-05  1.09204310E-04
 -4.05705140E-05 -1.93142689E-04  2.33431221E-06 -1.19679730E-06 -1.11874275E-05
  1.28891742E-05  1.36072163E-10  1.11157556E-04  9.42927961E-05 -8.67756079E-05
 -8.70074978E-10 -1.78186481E-04 -1.48421165E-04 -1.69338881E-04 -3.50253877E-09
  6.49376427E-06 -8.21999937E-05 -4.26851125E-05  5.90970549E-05  1.15315008E-09
 -6.27280603E-10  9.95222641E-01  2.48855725E-02  1.15988722E-03 -1.62067732E-03
 -2.00509432E-08 -6.02716603E-03 -1.37757702E-03  2.35572423E-03  2.90904785E-08
 -2.81843681E-03 -2.72338284E-03 -3.13671908E-03  6.87536691E-05  1.86815613E-09
  7.34652686E-09 -5.40136494E-06 -3.82379617E-05 -3.63295926E-05  2.34642507E-05
  3.97261779E-10  5.57907919E-04  4.45167999E-04 -5.93077393E-04 -8.88010524E-09
  3.30982503E-05 -1.20492962E-05 -3.24916133E-05 -6.23516651E-05 -1.16205647E-09
  9.79866414E-10  2.83663027E-05  3.45884942E-04  3.06288403E-05  2.89703262E-06
 -6.67860586E-11  2.80274613E-03  1.17499968E-03  1.89722225E-03  3.12214375E-08
 -1.42572754E-04 -4.99877635E-04 -6.64604838E-05 -1.61800347E-04 -2.71421534E-09
 -7.34876292E-09  6.80148584E-06  2.42096999E-05  2.85639477E-05 -1.09964565E-05
  1.50206530E-05  1.11359474E-04 -1.92787716E-04  1.20325345E-04  9.82560368E-05
 -2.05929614E-06  7.62727087E-06  2.44263508E-05  1.11613192E-05 -4.34662088E-06
  4.72155873E-06  6.80191442E-06  2.42110372E-05  2.85634195E-05 -1.09954135E-05