
    -----------------------------------------------------------------------
          Psi4: An Open-Source Ab Initio Electronic Structure Package
                               Psi4 1.3.2 release

                         Git: Rev {HEAD} ecbda83 


    R. M. Parrish, L. A. Burns, D. G. A. Smith, A. C. Simmonett,
    A. E. DePrince III, E. G. Hohenstein, U. Bozkaya, A. Yu. Sokolov,
    R. Di Remigio, R. M. Richard, J. F. Gonthier, A. M. James,
    H. R. McAlexander, A. Kumar, M. Saitow, X. Wang, B. P. Pritchard,
    P. Verma, H. F. Schaefer III, K. Patkowski, R. A. King, E. F. Valeev,
    F. A. Evangelista, J. M. Turney, T. D. Crawford, and C. D. Sherrill,
    J. Chem. Theory Comput. 13(7) pp 3185--3197 (2017).
    (doi: 10.1021/acs.jctc.7b00174)


                         Additional Contributions by
    P. Kraus, H. Kruse, M. H. Lechner, M. C. Schieber, R. A. Shaw,
    A. Alenaizan, R. Galvelis, Z. L. Glick, S. Lehtola, and J. P. Misiewicz

    -----------------------------------------------------------------------


    Psi4 started on: Wednesday, 03 February 2021 02:56AM

    Process ID: 2118
    Host:       node35.bme.utexas.edu
    PSIDATADIR: /home/xy3866/psi4conda/share/psi4
    Memory:     500.0 MiB
    Threads:    8
    
  ==> Input File <==

--------------------------------------------------------------------------
#psi4
#
memory 32 gb

molecule  {
0 1
  O        1.4499930     1.0206980    -0.0000040
  O       -1.2728880     1.6029860     0.0000050
  N       -1.7320990    -0.6616920    -0.0000100
  N        1.0116944    -1.0386147     0.0000024
  C        0.5211730     0.0320620    -0.0000010
  C       -0.9157640     0.4229260    -0.0000010
  C       -3.1757780    -0.5360000     0.0000030
  C        2.6470610     0.3608020    -0.0000010
  C        2.3925880    -0.9806700     0.0000040
  H       -1.2896900    -1.5740920    -0.0000030
  H       -3.6075680    -0.9997290     0.8912900
  H       -3.6075830    -0.9997540    -0.8912630
  H       -3.4076560     0.5288570    -0.0000100
  H        3.5343540     0.9743460    -0.0000030
  H        3.0931030    -1.8035030     0.0000080
units angstrom
no_reorient  #important for SAPT in psi4, default
symmetry c1  #important for SAPT in psi4, default
}

set PROPERTIES_ORIGIN ["COM"]
properties('MP2/aug-cc-pvtz', properties = ['dipole'])
--------------------------------------------------------------------------

  Memory set to  29.802 GiB by Python driver.
    SCF Algorithm Type (re)set to DF.

*** tstart() called on node35.bme.utexas.edu
*** at Wed Feb  3 02:56:53 2021

   => Loading Basis Set <=

    Name: AUG-CC-PVTZ
    Role: ORBITAL
    Keyword: BASIS
    atoms 1-2   entry O          line   327 file /home/xy3866/psi4conda/share/psi4/basis/aug-cc-pvtz.gbs 
    atoms 3-4   entry N          line   281 file /home/xy3866/psi4conda/share/psi4/basis/aug-cc-pvtz.gbs 
    atoms 5-9   entry C          line   235 file /home/xy3866/psi4conda/share/psi4/basis/aug-cc-pvtz.gbs 
    atoms 10-15 entry H          line    36 file /home/xy3866/psi4conda/share/psi4/basis/aug-cc-pvtz.gbs 


         ---------------------------------------------------------
                                   SCF
               by Justin Turney, Rob Parrish, Andy Simmonett
                          and Daniel G. A. Smith
                              RHF Reference
                        8 Threads,  30517 MiB Core
         ---------------------------------------------------------

  ==> Geometry <==

    Molecular point group: c1
    Full point group: C1

    Geometry (in Angstrom), charge = 0, multiplicity = 1:

       Center              X                  Y                   Z               Mass       
    ------------   -----------------  -----------------  -----------------  -----------------
         O            1.409928357573     0.974354004821    -0.000003815303    15.994914619570
         O           -1.312952642427     1.556642004821     0.000005184697    15.994914619570
         N           -1.772163642427    -0.708035995179    -0.000009815303    14.003074004430
         N            0.971629757573    -1.084958695179     0.000002584697    14.003074004430
         C            0.481108357573    -0.014281995179    -0.000000815303    12.000000000000
         C           -0.955828642427     0.376582004821    -0.000000815303    12.000000000000
         C           -3.215842642427    -0.582343995179     0.000003184697    12.000000000000
         C            2.606996357573     0.314458004821    -0.000000815303    12.000000000000
         C            2.352523357573    -1.027013995179     0.000004184697    12.000000000000
         H           -1.329754642427    -1.620435995179    -0.000002815303     1.007825032230
         H           -3.647632642427    -1.046072995179     0.891290184697     1.007825032230
         H           -3.647647642427    -1.046097995179    -0.891262815303     1.007825032230
         H           -3.447720642427     0.482513004821    -0.000009815303     1.007825032230
         H            3.494289357573     0.928002004821    -0.000002815303     1.007825032230
         H            3.053038357573    -1.849846995179     0.000008184697     1.007825032230

  Running in c1 symmetry.

  Rotational constants: A =      0.15603  B =      0.03615  C =      0.02952 [cm^-1]
  Rotational constants: A =   4677.74063  B =   1083.83661  C =    884.88515 [MHz]
  Nuclear repulsion =  437.175718470945469

  Charge       = 0
  Multiplicity = 1
  Electrons    = 66
  Nalpha       = 33
  Nbeta        = 33

  ==> Algorithm <==

  SCF Algorithm Type is DF.
  DIIS enabled.
  MOM disabled.
  Fractional occupation disabled.
  Guess Type is SAD.
  Energy threshold   = 1.00e-10
  Density threshold  = 1.00e-10
  Integral threshold = 0.00e+00

  ==> Primary Basis <==

  Basis Set: AUG-CC-PVTZ
    Blend: AUG-CC-PVTZ
    Number of shells: 180
    Number of basis function: 552
    Number of Cartesian functions: 645
    Spherical Harmonics?: true
    Max angular momentum: 3

   => Loading Basis Set <=

    Name: (AUG-CC-PVTZ AUX)
    Role: JKFIT
    Keyword: DF_BASIS_SCF
    atoms 1-2   entry O          line   286 file /home/xy3866/psi4conda/share/psi4/basis/aug-cc-pvtz-jkfit.gbs 
    atoms 3-4   entry N          line   224 file /home/xy3866/psi4conda/share/psi4/basis/aug-cc-pvtz-jkfit.gbs 
    atoms 5-9   entry C          line   162 file /home/xy3866/psi4conda/share/psi4/basis/aug-cc-pvtz-jkfit.gbs 
    atoms 10-15 entry H          line    70 file /home/xy3866/psi4conda/share/psi4/basis/aug-cc-pvtz-jkfit.gbs 

  ==> Pre-Iterations <==

   -------------------------------------------------------
    Irrep   Nso     Nmo     Nalpha   Nbeta   Ndocc  Nsocc
   -------------------------------------------------------
     A        552     552       0       0       0       0
   -------------------------------------------------------
    Total     552     552      33      33      33       0
   -------------------------------------------------------

  ==> Integral Setup <==

  DFHelper Memory: AOs need 2.657 GiB; user supplied 22.352 GiB. Using in-core AOs.

  ==> MemDFJK: Density-Fitted J/K Matrices <==

    J tasked:                   Yes
    K tasked:                   Yes
    wK tasked:                   No
    OpenMP threads:               8
    Memory [MiB]:             22888
    Algorithm:                 Disk
    Schwarz Cutoff:           1E-12
    Mask sparsity (%):       6.7127
    Fitting Condition:        1E-10

   => Auxiliary Basis Set <=

  Basis Set: (AUG-CC-PVTZ AUX)
    Blend: AUG-CC-PVTZ-JKFIT
    Number of shells: 354
    Number of basis function: 1212
    Number of Cartesian functions: 1509
    Spherical Harmonics?: true
    Max angular momentum: 4

  Minimum eigenvalue in the overlap matrix is 2.7353302048E-06.
  Using Symmetric Orthogonalization.

  SCF Guess: Superposition of Atomic Densities via on-the-fly atomic UHF.

  ==> Iterations <==

                           Total Energy        Delta E     RMS |[F,P]|

   @DF-RHF iter SAD:  -451.07610629864018   -4.51076e+02   0.00000e+00 
   @DF-RHF iter   1:  -451.36594680015605   -2.89841e-01   1.24528e-03 DIIS
   @DF-RHF iter   2:  -451.53377821103032   -1.67831e-01   7.39691e-04 DIIS
   @DF-RHF iter   3:  -451.59183435763089   -5.80561e-02   1.55289e-04 DIIS
   @DF-RHF iter   4:  -451.59599054116666   -4.15618e-03   5.85437e-05 DIIS
   @DF-RHF iter   5:  -451.59664739206426   -6.56851e-04   1.53562e-05 DIIS
   @DF-RHF iter   6:  -451.59673481601817   -8.74240e-05   7.56373e-06 DIIS
   @DF-RHF iter   7:  -451.59675776789896   -2.29519e-05   2.97693e-06 DIIS
   @DF-RHF iter   8:  -451.59676193573944   -4.16784e-06   1.23786e-06 DIIS
   @DF-RHF iter   9:  -451.59676243671379   -5.00974e-07   5.08562e-07 DIIS
   @DF-RHF iter  10:  -451.59676252265251   -8.59387e-08   1.45186e-07 DIIS
   @DF-RHF iter  11:  -451.59676253097359   -8.32108e-09   5.57599e-08 DIIS
   @DF-RHF iter  12:  -451.59676253192566   -9.52070e-10   2.35133e-08 DIIS
   @DF-RHF iter  13:  -451.59676253211541   -1.89743e-10   5.43306e-09 DIIS
   @DF-RHF iter  14:  -451.59676253213001   -1.46088e-11   2.12615e-09 DIIS
   @DF-RHF iter  15:  -451.59676253213041   -3.97904e-13   7.88413e-10 DIIS
   @DF-RHF iter  16:  -451.59676253213041    0.00000e+00   3.05932e-10 DIIS
   @DF-RHF iter  17:  -451.59676253213161   -1.19371e-12   1.45654e-10 DIIS
   @DF-RHF iter  18:  -451.59676253213172   -1.13687e-13   4.60618e-11 DIIS
  Energy and wave function converged.


  ==> Post-Iterations <==

    Orbital Energies [Eh]
    ---------------------

    Doubly Occupied:                                                      

       1A    -20.638877     2A    -20.531074     3A    -15.595795  
       4A    -15.571243     5A    -11.370808     6A    -11.331278  
       7A    -11.317203     8A    -11.280460     9A    -11.264975  
      10A     -1.505811    11A     -1.382783    12A     -1.286574  
      13A     -1.237349    14A     -1.069502    15A     -0.971388  
      16A     -0.872005    17A     -0.856093    18A     -0.787808  
      19A     -0.773292    20A     -0.686662    21A     -0.685893  
      22A     -0.659045    23A     -0.632192    24A     -0.626551  
      25A     -0.597701    26A     -0.582707    27A     -0.553172  
      28A     -0.544758    29A     -0.482745    30A     -0.480518  
      31A     -0.437341    32A     -0.398183    33A     -0.364955  

    Virtual:                                                              

      34A      0.024347    35A      0.029863    36A      0.035874  
      37A      0.044827    38A      0.050694    39A      0.060904  
      40A      0.075896    41A      0.082277    42A      0.085682  
      43A      0.088692    44A      0.094689    45A      0.106068  
      46A      0.108504    47A      0.116673    48A      0.117844  
      49A      0.118295    50A      0.123686    51A      0.129615  
      52A      0.135204    53A      0.138174    54A      0.151343  
      55A      0.155113    56A      0.165052    57A      0.171358  
      58A      0.172594    59A      0.184895    60A      0.186486  
      61A      0.197506    62A      0.206672    63A      0.210450  
      64A      0.224685    65A      0.227725    66A      0.229183  
      67A      0.238212    68A      0.248090    69A      0.254933  
      70A      0.262517    71A      0.263281    72A      0.269320  
      73A      0.277158    74A      0.278196    75A      0.285257  
      76A      0.299129    77A      0.303158    78A      0.311869  
      79A      0.318117    80A      0.319671    81A      0.326221  
      82A      0.332817    83A      0.337216    84A      0.339139  
      85A      0.345769    86A      0.353096    87A      0.356945  
      88A      0.364011    89A      0.377357    90A      0.379968  
      91A      0.388108    92A      0.400168    93A      0.401419  
      94A      0.402574    95A      0.406270    96A      0.407174  
      97A      0.426287    98A      0.434577    99A      0.439215  
     100A      0.440821   101A      0.448074   102A      0.449537  
     103A      0.454711   104A      0.457793   105A      0.462669  
     106A      0.467488   107A      0.468061   108A      0.475971  
     109A      0.479038   110A      0.493089   111A      0.499985  
     112A      0.502032   113A      0.512492   114A      0.515024  
     115A      0.519912   116A      0.522387   117A      0.536569  
     118A      0.539231   119A      0.547474   120A      0.557179  
     121A      0.561126   122A      0.570499   123A      0.575302  
     124A      0.583608   125A      0.584717   126A      0.600131  
     127A      0.610659   128A      0.623324   129A      0.626276  
     130A      0.628541   131A      0.634570   132A      0.637805  
     133A      0.657382   134A      0.671891   135A      0.680319  
     136A      0.707044   137A      0.707750   138A      0.727989  
     139A      0.733939   140A      0.741899   141A      0.746241  
     142A      0.755102   143A      0.755129   144A      0.778862  
     145A      0.784298   146A      0.796969   147A      0.797682  
     148A      0.804711   149A      0.806863   150A      0.810778  
     151A      0.826092   152A      0.836519   153A      0.853026  
     154A      0.857094   155A      0.863026   156A      0.878295  
     157A      0.887162   158A      0.889242   159A      0.896036  
     160A      0.897682   161A      0.911182   162A      0.916041  
     163A      0.918325   164A      0.924749   165A      0.932012  
     166A      0.938030   167A      0.942963   168A      0.949228  
     169A      0.961489   170A      0.963439   171A      0.964292  
     172A      0.968515   173A      0.977455   174A      0.989557  
     175A      0.996002   176A      1.003392   177A      1.013361  
     178A      1.019524   179A      1.036836   180A      1.039499  
     181A      1.056423   182A      1.059159   183A      1.061564  
     184A      1.068052   185A      1.079803   186A      1.080546  
     187A      1.082230   188A      1.087017   189A      1.094089  
     190A      1.108624   191A      1.111310   192A      1.111543  
     193A      1.132729   194A      1.132963   195A      1.135874  
     196A      1.144759   197A      1.151553   198A      1.172282  
     199A      1.180241   200A      1.183019   201A      1.183671  
     202A      1.188423   203A      1.204826   204A      1.207280  
     205A      1.218556   206A      1.232076   207A      1.237075  
     208A      1.243504   209A      1.267984   210A      1.279511  
     211A      1.279520   212A      1.282033   213A      1.289354  
     214A      1.309373   215A      1.315536   216A      1.321299  
     217A      1.334424   218A      1.358552   219A      1.373777  
     220A      1.378963   221A      1.384410   222A      1.398057  
     223A      1.401541   224A      1.413717   225A      1.428400  
     226A      1.438859   227A      1.443910   228A      1.454109  
     229A      1.463304   230A      1.485362   231A      1.489904  
     232A      1.503654   233A      1.513524   234A      1.519465  
     235A      1.520644   236A      1.544703   237A      1.548108  
     238A      1.580413   239A      1.580912   240A      1.585469  
     241A      1.594521   242A      1.607562   243A      1.613490  
     244A      1.624935   245A      1.634615   246A      1.643951  
     247A      1.652457   248A      1.680674   249A      1.683754  
     250A      1.698230   251A      1.708988   252A      1.714338  
     253A      1.722059   254A      1.727842   255A      1.732592  
     256A      1.754876   257A      1.757876   258A      1.766556  
     259A      1.775802   260A      1.785317   261A      1.802211  
     262A      1.809646   263A      1.822836   264A      1.833633  
     265A      1.845562   266A      1.881409   267A      1.891453  
     268A      1.891846   269A      1.912227   270A      1.926705  
     271A      1.935104   272A      1.955285   273A      1.958171  
     274A      1.975420   275A      1.987127   276A      1.999439  
     277A      2.009814   278A      2.025603   279A      2.026609  
     280A      2.055649   281A      2.064997   282A      2.079442  
     283A      2.090995   284A      2.105000   285A      2.113034  
     286A      2.146708   287A      2.157061   288A      2.167408  
     289A      2.181682   290A      2.194792   291A      2.204345  
     292A      2.218185   293A      2.224640   294A      2.237388  
     295A      2.241677   296A      2.283546   297A      2.289088  
     298A      2.290495   299A      2.297754   300A      2.317042  
     301A      2.326280   302A      2.364663   303A      2.383790  
     304A      2.390828   305A      2.396034   306A      2.411119  
     307A      2.431684   308A      2.440032   309A      2.454350  
     310A      2.461574   311A      2.487851   312A      2.496853  
     313A      2.510835   314A      2.535769   315A      2.537872  
     316A      2.549100   317A      2.586618   318A      2.595626  
     319A      2.604421   320A      2.631340   321A      2.631372  
     322A      2.641363   323A      2.657853   324A      2.659391  
     325A      2.691755   326A      2.691964   327A      2.736887  
     328A      2.749664   329A      2.756794   330A      2.811831  
     331A      2.815016   332A      2.826375   333A      2.840304  
     334A      2.888287   335A      2.919899   336A      2.921485  
     337A      2.952787   338A      2.973149   339A      3.000760  
     340A      3.011875   341A      3.081155   342A      3.094671  
     343A      3.102889   344A      3.126175   345A      3.132508  
     346A      3.151591   347A      3.162675   348A      3.181185  
     349A      3.186816   350A      3.256504   351A      3.272786  
     352A      3.278978   353A      3.279867   354A      3.304970  
     355A      3.340254   356A      3.353393   357A      3.369957  
     358A      3.380172   359A      3.382537   360A      3.415019  
     361A      3.419606   362A      3.454738   363A      3.487631  
     364A      3.507289   365A      3.512796   366A      3.523361  
     367A      3.570087   368A      3.572732   369A      3.600567  
     370A      3.601206   371A      3.623958   372A      3.652829  
     373A      3.661474   374A      3.673956   375A      3.700243  
     376A      3.707654   377A      3.711240   378A      3.726508  
     379A      3.736100   380A      3.759929   381A      3.777021  
     382A      3.787419   383A      3.794822   384A      3.796888  
     385A      3.839930   386A      3.848515   387A      3.874683  
     388A      3.879916   389A      3.902674   390A      3.910477  
     391A      3.914562   392A      3.940045   393A      3.953939  
     394A      3.954279   395A      3.969710   396A      3.985858  
     397A      4.013064   398A      4.022376   399A      4.022942  
     400A      4.048414   401A      4.048703   402A      4.074540  
     403A      4.075255   404A      4.113309   405A      4.119295  
     406A      4.124365   407A      4.135098   408A      4.147222  
     409A      4.168967   410A      4.171206   411A      4.218806  
     412A      4.235739   413A      4.259504   414A      4.276187  
     415A      4.296004   416A      4.296581   417A      4.321908  
     418A      4.333169   419A      4.354787   420A      4.366407  
     421A      4.372695   422A      4.384881   423A      4.412869  
     424A      4.426543   425A      4.430700   426A      4.463388  
     427A      4.484409   428A      4.500451   429A      4.508141  
     430A      4.520816   431A      4.556319   432A      4.579359  
     433A      4.597972   434A      4.639069   435A      4.657008  
     436A      4.676077   437A      4.686172   438A      4.711667  
     439A      4.723318   440A      4.753024   441A      4.762748  
     442A      4.782931   443A      4.800030   444A      4.820902  
     445A      4.849020   446A      4.851325   447A      4.856085  
     448A      4.905497   449A      4.916414   450A      4.936610  
     451A      4.964375   452A      4.984577   453A      4.994158  
     454A      5.027104   455A      5.034144   456A      5.050789  
     457A      5.087596   458A      5.092620   459A      5.127645  
     460A      5.141729   461A      5.154421   462A      5.199472  
     463A      5.201070   464A      5.223283   465A      5.233911  
     466A      5.272953   467A      5.295910   468A      5.329610  
     469A      5.346840   470A      5.364612   471A      5.421436  
     472A      5.440317   473A      5.489106   474A      5.496770  
     475A      5.555298   476A      5.614656   477A      5.625751  
     478A      5.645665   479A      5.659340   480A      5.668128  
     481A      5.716187   482A      5.729855   483A      5.752381  
     484A      5.781110   485A      5.796207   486A      5.829479  
     487A      5.852317   488A      5.854920   489A      5.898960  
     490A      5.902916   491A      5.953863   492A      6.018013  
     493A      6.082547   494A      6.101088   495A      6.137994  
     496A      6.166081   497A      6.179747   498A      6.183247  
     499A      6.202843   500A      6.261177   501A      6.288473  
     502A      6.308830   503A      6.422176   504A      6.453456  
     505A      6.467506   506A      6.561826   507A      6.642423  
     508A      6.660040   509A      6.686530   510A      6.700595  
     511A      6.732033   512A      6.765044   513A      6.773111  
     514A      6.819225   515A      6.874512   516A      6.877259  
     517A      6.880963   518A      6.930752   519A      6.989721  
     520A      6.993909   521A      7.012513   522A      7.053588  
     523A      7.067954   524A      7.146155   525A      7.210876  
     526A      7.229522   527A      7.243001   528A      7.362014  
     529A      7.418429   530A      7.476214   531A      7.506259  
     532A      7.587319   533A      7.646971   534A      7.681223  
     535A      7.709319   536A      7.759768   537A      7.765692  
     538A      7.879071   539A      7.955854   540A      8.026935  
     541A      8.056435   542A      8.366865   543A      8.509381  
     544A     14.978870   545A     16.549614   546A     16.722203  
     547A     17.512536   548A     18.079982   549A     18.308480  
     550A     18.976949   551A     20.182176   552A     21.124956  

    Final Occupation by Irrep:
              A 
    DOCC [    33 ]

  @DF-RHF Final Energy:  -451.59676253213172

   => Energetics <=

    Nuclear Repulsion Energy =            437.1757184709454691
    One-Electron Energy =               -1482.7914778001420473
    Two-Electron Energy =                 594.0189967970649150
    Total Energy =                       -451.5967625321317200

Computation Completed

*** tstop() called on node35.bme.utexas.edu at Wed Feb  3 02:57:58 2021
Module time:
	user time   =     286.24 seconds =       4.77 minutes
	system time =      40.29 seconds =       0.67 minutes
	total time  =         65 seconds =       1.08 minutes
Total time:
	user time   =     286.24 seconds =       4.77 minutes
	system time =      40.29 seconds =       0.67 minutes
	total time  =         65 seconds =       1.08 minutes
   => Loading Basis Set <=

    Name: (AUG-CC-PVTZ AUX)
    Role: RIFIT
    Keyword: DF_BASIS_MP2
    atoms 1-2   entry O          line   264 file /home/xy3866/psi4conda/share/psi4/basis/aug-cc-pvtz-ri.gbs 
    atoms 3-4   entry N          line   206 file /home/xy3866/psi4conda/share/psi4/basis/aug-cc-pvtz-ri.gbs 
    atoms 5-9   entry C          line   148 file /home/xy3866/psi4conda/share/psi4/basis/aug-cc-pvtz-ri.gbs 
    atoms 10-15 entry H          line    30 file /home/xy3866/psi4conda/share/psi4/basis/aug-cc-pvtz-ri.gbs 


*** tstart() called on node35.bme.utexas.edu
*** at Wed Feb  3 02:57:58 2021


  //>>>>>>>>>>>>>>>>>>>>>>>>>>>>>>>>>>>//
  //               DFMP2               //
  //<<<<<<<<<<<<<<<<<<<<<<<<<<<<<<<<<<<//

	 --------------------------------------------------------
	                          DF-MP2                         
	      2nd-Order Density-Fitted Moller-Plesset Theory     
	              RMP2 Wavefunction,   8 Threads             
	                                                         
	        Rob Parrish, Justin Turney, Andy Simmonett,      
	           Ed Hohenstein, and C. David Sherrill          
	 --------------------------------------------------------

   => Auxiliary Basis Set <=

  Basis Set: (AUG-CC-PVTZ AUX)
    Blend: AUG-CC-PVTZ-RI
    Number of shells: 336
    Number of basis function: 1230
    Number of Cartesian functions: 1554
    Spherical Harmonics?: true
    Max angular momentum: 4

	 --------------------------------------------------------
	                 NBF =   552, NAUX =  1230
	 --------------------------------------------------------
	   CLASS    FOCC     OCC    AOCC    AVIR     VIR    FVIR
	   PAIRS       0      33      33     519     519       0
	 --------------------------------------------------------

  DFHelper Memory: AOs need 2.657 GiB; user supplied 22.352 GiB. Using in-core AOs.


         ------------------------------------------------------------
                                     CPHF                           
                                  Rob Parrish                       
         ------------------------------------------------------------

  ==> Geometry <==

    Molecular point group: c1
    Full point group: C1

    Geometry (in Angstrom), charge = 0, multiplicity = 1:

       Center              X                  Y                   Z               Mass       
    ------------   -----------------  -----------------  -----------------  -----------------
         O            1.409928357573     0.974354004821    -0.000003815303    15.994914619570
         O           -1.312952642427     1.556642004821     0.000005184697    15.994914619570
         N           -1.772163642427    -0.708035995179    -0.000009815303    14.003074004430
         N            0.971629757573    -1.084958695179     0.000002584697    14.003074004430
         C            0.481108357573    -0.014281995179    -0.000000815303    12.000000000000
         C           -0.955828642427     0.376582004821    -0.000000815303    12.000000000000
         C           -3.215842642427    -0.582343995179     0.000003184697    12.000000000000
         C            2.606996357573     0.314458004821    -0.000000815303    12.000000000000
         C            2.352523357573    -1.027013995179     0.000004184697    12.000000000000
         H           -1.329754642427    -1.620435995179    -0.000002815303     1.007825032230
         H           -3.647632642427    -1.046072995179     0.891290184697     1.007825032230
         H           -3.647647642427    -1.046097995179    -0.891262815303     1.007825032230
         H           -3.447720642427     0.482513004821    -0.000009815303     1.007825032230
         H            3.494289357573     0.928002004821    -0.000002815303     1.007825032230
         H            3.053038357573    -1.849846995179     0.000008184697     1.007825032230

  Nuclear repulsion =  437.175718470945469
  Reference energy  = -451.596762532131720

  ==> Basis Set <==

  Basis Set: AUG-CC-PVTZ
    Blend: AUG-CC-PVTZ
    Number of shells: 180
    Number of basis function: 552
    Number of Cartesian functions: 645
    Spherical Harmonics?: true
    Max angular momentum: 3

  ==> CGRSolver (by Rob Parrish) <==

   Number of roots    =         1
   Preconditioning    =    JACOBI
   Convergence cutoff =     1E-06
   Maximum iterations =       100

  ==> CPHFRHamiltonian (by Rob Parrish) <== 

  ==> MemDFJK: Density-Fitted J/K Matrices <==

    J tasked:                   Yes
    K tasked:                   Yes
    wK tasked:                   No
    OpenMP threads:               8
    Memory [MiB]:             22888
    Algorithm:                 Disk
    Schwarz Cutoff:           1E-12
    Mask sparsity (%):       6.7127
    Fitting Condition:        1E-10

   => Auxiliary Basis Set <=

  Basis Set: (AUG-CC-PVTZ AUX)
    Blend: AUG-CC-PVTZ-JKFIT
    Number of shells: 354
    Number of basis function: 1212
    Number of Cartesian functions: 1509
    Spherical Harmonics?: true
    Max angular momentum: 4

  ==> CPHF Iterations <==

  => Iterations <=

             Iter  Converged  Remaining    Residual
  CGR           1          0          1   1.290E-01
  CGR           2          0          1   4.333E-02
  CGR           3          0          1   1.843E-02
  CGR           4          0          1   5.848E-03
  CGR           5          0          1   2.176E-03
  CGR           6          0          1   8.201E-04
  CGR           7          0          1   2.437E-04
  CGR           8          0          1   9.970E-05
  CGR           9          0          1   4.175E-05
  CGR          10          0          1   1.503E-05
  CGR          11          0          1   6.019E-06
  CGR          12          0          1   1.954E-06
  CGR          13          1          0   7.126E-07

    CGRSolver converged.

	-----------------------------------------------------------
	 ==================> DF-MP2 Energies <==================== 
	-----------------------------------------------------------
	 Reference Energy          =    -451.5967625321317200 [Eh]
	 Singles Energy            =      -0.0000000000000000 [Eh]
	 Same-Spin Energy          =      -0.4589103973715855 [Eh]
	 Opposite-Spin Energy      =      -1.3849995240207864 [Eh]
	 Correlation Energy        =      -1.8439099213923720 [Eh]
	 Total Energy              =    -453.4406724535240869 [Eh]
	-----------------------------------------------------------
	 ================> DF-SCS-MP2 Energies <================== 
	-----------------------------------------------------------
	 SCS Same-Spin Scale       =       0.3333333333333333 [-]
	 SCS Opposite-Spin Scale   =       1.2000000000000000 [-]
	 SCS Same-Spin Energy      =      -0.1529701324571952 [Eh]
	 SCS Opposite-Spin Energy  =      -1.6619994288249436 [Eh]
	 SCS Correlation Energy    =      -1.8149695612821386 [Eh]
	 SCS Total Energy          =    -453.4117320934138320 [Eh]
	-----------------------------------------------------------



Properties will be evaluated at   0.000000,  -0.000000,   0.000000 [a0]

Properties computed using the MP2 density matrix

  Nuclear Dipole Moment: [e a0]
     X:    -5.1771      Y:    -3.8749      Z:     0.0000

  Electronic Dipole Moment: [e a0]
     X:     5.6069      Y:     2.6708      Z:    -0.0000

  Dipole Moment: [e a0]
     X:     0.4298      Y:    -1.2042      Z:     0.0000     Total:     1.2786

  Dipole Moment: [D]
     X:     1.0924      Y:    -3.0608      Z:     0.0000     Total:     3.2499


*** tstop() called on node35.bme.utexas.edu at Wed Feb  3 03:00:24 2021
Module time:
	user time   =     858.92 seconds =      14.32 minutes
	system time =      48.25 seconds =       0.80 minutes
	total time  =        146 seconds =       2.43 minutes
Total time:
	user time   =    1145.38 seconds =      19.09 minutes
	system time =      88.56 seconds =       1.48 minutes
	total time  =        211 seconds =       3.52 minutes

    Psi4 stopped on: Wednesday, 03 February 2021 03:00AM
    Psi4 wall time for execution: 0:03:31.53

*** Psi4 exiting successfully. Buy a developer a beer!
