15431                                                                   
Freq      RMP2-FC                                                     6-31G(d)            
Number of atoms                            I               21
Info1-9                                    I   N=           9
          33          31        1002           0           0         100
           6           2           1
Charge                                     I                0
Multiplicity                               I                1
Number of electrons                        I               56
Number of alpha electrons                  I               28
Number of beta electrons                   I               28
Number of basis functions                  I              133
Number of independent functions            I              133
Number of point charges in /Mol/           I                0
Number of translation vectors              I                0
Atomic numbers                             I   N=          21
           6           6           6           6           6           6
           6           1           1           1           1           1
           1           1           1           1           1           1
           1           1           1
Nuclear charges                            R   N=          21
  6.00000000E+00  6.00000000E+00  6.00000000E+00  6.00000000E+00  6.00000000E+00
  6.00000000E+00  6.00000000E+00  1.00000000E+00  1.00000000E+00  1.00000000E+00
  1.00000000E+00  1.00000000E+00  1.00000000E+00  1.00000000E+00  1.00000000E+00
  1.00000000E+00  1.00000000E+00  1.00000000E+00  1.00000000E+00  1.00000000E+00
  1.00000000E+00
Current cartesian coordinates              R   N=          63
 -5.28444527E-01 -4.78878207E-01  5.10151217E-01  1.56338640E+00 -2.30580507E+00
 -2.96460182E-01  5.00974379E-01  2.07832206E+00 -3.98265659E-01  3.99317754E+00
 -9.07467572E-01  4.19782496E-01  3.40451447E+00  1.91270389E+00 -8.72720543E-02
 -3.14771000E+00 -1.14519341E+00 -4.86286465E-01 -5.20504803E+00  6.92611975E-01
  3.62219357E-01 -5.95817621E-01 -4.63850524E-01  2.59080786E+00  1.46525384E+00
 -2.57708473E+00 -2.35265268E+00  1.40100335E+00 -4.17131230E+00  5.87246516E-01
 -3.14840668E-01  3.68359432E+00  6.18960401E-01  5.45250588E-03  2.31533301E+00
 -2.39935837E+00  5.64957353E+00 -1.57693452E+00 -6.22642490E-01  4.38536216E+00
 -1.20332454E+00  2.43143926E+00  4.06769978E+00  3.10085174E+00  1.47012421E+00
  4.36546682E+00  2.58400262E+00 -1.79120626E+00 -3.63994452E+00 -3.06364455E+00
  1.30518449E-01 -3.07023486E+00 -1.19884482E+00 -2.56021858E+00 -5.28640740E+00
  7.99262655E-01  2.42678853E+00 -4.85186651E+00  2.59702062E+00 -3.58017922E-01
 -7.06580179E+00  9.71689832E-02 -3.15001188E-01
Force Field                                I                0
Int Atom Types                             I   N=          21
           0           0           0           0           0           0
           0           0           0           0           0           0
           0           0           0           0           0           0
           0           0           0
MM charges                                 R   N=          21
  0.00000000E+00  0.00000000E+00  0.00000000E+00  0.00000000E+00  0.00000000E+00
  0.00000000E+00  0.00000000E+00  0.00000000E+00  0.00000000E+00  0.00000000E+00
  0.00000000E+00  0.00000000E+00  0.00000000E+00  0.00000000E+00  0.00000000E+00
  0.00000000E+00  0.00000000E+00  0.00000000E+00  0.00000000E+00  0.00000000E+00
  0.00000000E+00
Integer atomic weights                     I   N=          21
          12          12          12          12          12          12
          12           1           1           1           1           1
           1           1           1           1           1           1
           1           1           1
Real atomic weights                        R   N=          21
  1.20000000E+01  1.20000000E+01  1.20000000E+01  1.20000000E+01  1.20000000E+01
  1.20000000E+01  1.20000000E+01  1.00782504E+00  1.00782504E+00  1.00782504E+00
  1.00782504E+00  1.00782504E+00  1.00782504E+00  1.00782504E+00  1.00782504E+00
  1.00782504E+00  1.00782504E+00  1.00782504E+00  1.00782504E+00  1.00782504E+00
  1.00782504E+00
Atom fragment info                         I   N=          21
           0           0           0           0           0           0
           0           0           0           0           0           0
           0           0           0           0           0           0
           0           0           0
Atom residue num                           I   N=          21
           0           0           0           0           0           0
           0           0           0           0           0           0
           0           0           0           0           0           0
           0           0           0
Nuclear spins                              I   N=          21
           0           0           0           0           0           0
           0           1           1           1           1           1
           1           1           1           1           1           1
           1           1           1
Nuclear ZEff                               R   N=          21
 -3.60000000E+00 -3.60000000E+00 -3.60000000E+00 -3.60000000E+00 -3.60000000E+00
 -3.60000000E+00 -3.60000000E+00 -1.00000000E+00 -1.00000000E+00 -1.00000000E+00
 -1.00000000E+00 -1.00000000E+00 -1.00000000E+00 -1.00000000E+00 -1.00000000E+00
 -1.00000000E+00 -1.00000000E+00 -1.00000000E+00 -1.00000000E+00 -1.00000000E+00
 -1.00000000E+00
Nuclear QMom                               R   N=          21
  0.00000000E+00  0.00000000E+00  0.00000000E+00  0.00000000E+00  0.00000000E+00
  0.00000000E+00  0.00000000E+00  0.00000000E+00  0.00000000E+00  0.00000000E+00
  0.00000000E+00  0.00000000E+00  0.00000000E+00  0.00000000E+00  0.00000000E+00
  0.00000000E+00  0.00000000E+00  0.00000000E+00  0.00000000E+00  0.00000000E+00
  0.00000000E+00
Nuclear GFac                               R   N=          21
  0.00000000E+00  0.00000000E+00  0.00000000E+00  0.00000000E+00  0.00000000E+00
  0.00000000E+00  0.00000000E+00  2.79284600E+00  2.79284600E+00  2.79284600E+00
  2.79284600E+00  2.79284600E+00  2.79284600E+00  2.79284600E+00  2.79284600E+00
  2.79284600E+00  2.79284600E+00  2.79284600E+00  2.79284600E+00  2.79284600E+00
  2.79284600E+00
MicOpt                                     I   N=          21
          -1          -1          -1          -1          -1          -1
          -1          -1          -1          -1          -1          -1
          -1          -1          -1          -1          -1          -1
          -1          -1          -1
Number of contracted shells                I               56
Number of primitive shells                 I              133
Pure/Cartesian d shells                    I                1
Pure/Cartesian f shells                    I                0
Highest angular momentum                   I                2
Largest degree of contraction              I                6
Shell types                                I   N=          56
           0          -1          -1           2           0          -1
          -1           2           0          -1          -1           2
           0          -1          -1           2           0          -1
          -1           2           0          -1          -1           2
           0          -1          -1           2           0           0
           0           0           0           0           0           0
           0           0           0           0           0           0
           0           0           0           0           0           0
           0           0           0           0           0           0
           0           0
Number of primitives per shell             I   N=          56
           6           3           1           1           6           3
           1           1           6           3           1           1
           6           3           1           1           6           3
           1           1           6           3           1           1
           6           3           1           1           3           1
           3           1           3           1           3           1
           3           1           3           1           3           1
           3           1           3           1           3           1
           3           1           3           1           3           1
           3           1
Shell to atom map                          I   N=          56
           1           1           1           1           2           2
           2           2           3           3           3           3
           4           4           4           4           5           5
           5           5           6           6           6           6
           7           7           7           7           8           8
           9           9          10          10          11          11
          12          12          13          13          14          14
          15          15          16          16          17          17
          18          18          19          19          20          20
          21          21
Primitive exponents                        R   N=         133
  3.04752488E+03  4.57369518E+02  1.03948685E+02  2.92101553E+01  9.28666296E+00
  3.16392696E+00  7.86827235E+00  1.88128854E+00  5.44249258E-01  1.68714478E-01
  8.00000000E-01  3.04752488E+03  4.57369518E+02  1.03948685E+02  2.92101553E+01
  9.28666296E+00  3.16392696E+00  7.86827235E+00  1.88128854E+00  5.44249258E-01
  1.68714478E-01  8.00000000E-01  3.04752488E+03  4.57369518E+02  1.03948685E+02
  2.92101553E+01  9.28666296E+00  3.16392696E+00  7.86827235E+00  1.88128854E+00
  5.44249258E-01  1.68714478E-01  8.00000000E-01  3.04752488E+03  4.57369518E+02
  1.03948685E+02  2.92101553E+01  9.28666296E+00  3.16392696E+00  7.86827235E+00
  1.88128854E+00  5.44249258E-01  1.68714478E-01  8.00000000E-01  3.04752488E+03
  4.57369518E+02  1.03948685E+02  2.92101553E+01  9.28666296E+00  3.16392696E+00
  7.86827235E+00  1.88128854E+00  5.44249258E-01  1.68714478E-01  8.00000000E-01
  3.04752488E+03  4.57369518E+02  1.03948685E+02  2.92101553E+01  9.28666296E+00
  3.16392696E+00  7.86827235E+00  1.88128854E+00  5.44249258E-01  1.68714478E-01
  8.00000000E-01  3.04752488E+03  4.57369518E+02  1.03948685E+02  2.92101553E+01
  9.28666296E+00  3.16392696E+00  7.86827235E+00  1.88128854E+00  5.44249258E-01
  1.68714478E-01  8.00000000E-01  1.87311370E+01  2.82539436E+00  6.40121692E-01
  1.61277759E-01  1.87311370E+01  2.82539436E+00  6.40121692E-01  1.61277759E-01
  1.87311370E+01  2.82539436E+00  6.40121692E-01  1.61277759E-01  1.87311370E+01
  2.82539436E+00  6.40121692E-01  1.61277759E-01  1.87311370E+01  2.82539436E+00
  6.40121692E-01  1.61277759E-01  1.87311370E+01  2.82539436E+00  6.40121692E-01
  1.61277759E-01  1.87311370E+01  2.82539436E+00  6.40121692E-01  1.61277759E-01
  1.87311370E+01  2.82539436E+00  6.40121692E-01  1.61277759E-01  1.87311370E+01
  2.82539436E+00  6.40121692E-01  1.61277759E-01  1.87311370E+01  2.82539436E+00
  6.40121692E-01  1.61277759E-01  1.87311370E+01  2.82539436E+00  6.40121692E-01
  1.61277759E-01  1.87311370E+01  2.82539436E+00  6.40121692E-01  1.61277759E-01
  1.87311370E+01  2.82539436E+00  6.40121692E-01  1.61277759E-01  1.87311370E+01
  2.82539436E+00  6.40121692E-01  1.61277759E-01
Contraction coefficients                   R   N=         133
  1.83473713E-03  1.40373228E-02  6.88426223E-02  2.32184443E-01  4.67941348E-01
  3.62311985E-01 -1.19332420E-01 -1.60854152E-01  1.14345644E+00  1.00000000E+00
  1.00000000E+00  1.83473713E-03  1.40373228E-02  6.88426223E-02  2.32184443E-01
  4.67941348E-01  3.62311985E-01 -1.19332420E-01 -1.60854152E-01  1.14345644E+00
  1.00000000E+00  1.00000000E+00  1.83473713E-03  1.40373228E-02  6.88426223E-02
  2.32184443E-01  4.67941348E-01  3.62311985E-01 -1.19332420E-01 -1.60854152E-01
  1.14345644E+00  1.00000000E+00  1.00000000E+00  1.83473713E-03  1.40373228E-02
  6.88426223E-02  2.32184443E-01  4.67941348E-01  3.62311985E-01 -1.19332420E-01
 -1.60854152E-01  1.14345644E+00  1.00000000E+00  1.00000000E+00  1.83473713E-03
  1.40373228E-02  6.88426223E-02  2.32184443E-01  4.67941348E-01  3.62311985E-01
 -1.19332420E-01 -1.60854152E-01  1.14345644E+00  1.00000000E+00  1.00000000E+00
  1.83473713E-03  1.40373228E-02  6.88426223E-02  2.32184443E-01  4.67941348E-01
  3.62311985E-01 -1.19332420E-01 -1.60854152E-01  1.14345644E+00  1.00000000E+00
  1.00000000E+00  1.83473713E-03  1.40373228E-02  6.88426223E-02  2.32184443E-01
  4.67941348E-01  3.62311985E-01 -1.19332420E-01 -1.60854152E-01  1.14345644E+00
  1.00000000E+00  1.00000000E+00  3.34946043E-02  2.34726953E-01  8.13757326E-01
  1.00000000E+00  3.34946043E-02  2.34726953E-01  8.13757326E-01  1.00000000E+00
  3.34946043E-02  2.34726953E-01  8.13757326E-01  1.00000000E+00  3.34946043E-02
  2.34726953E-01  8.13757326E-01  1.00000000E+00  3.34946043E-02  2.34726953E-01
  8.13757326E-01  1.00000000E+00  3.34946043E-02  2.34726953E-01  8.13757326E-01
  1.00000000E+00  3.34946043E-02  2.34726953E-01  8.13757326E-01  1.00000000E+00
  3.34946043E-02  2.34726953E-01  8.13757326E-01  1.00000000E+00  3.34946043E-02
  2.34726953E-01  8.13757326E-01  1.00000000E+00  3.34946043E-02  2.34726953E-01
  8.13757326E-01  1.00000000E+00  3.34946043E-02  2.34726953E-01  8.13757326E-01
  1.00000000E+00  3.34946043E-02  2.34726953E-01  8.13757326E-01  1.00000000E+00
  3.34946043E-02  2.34726953E-01  8.13757326E-01  1.00000000E+00  3.34946043E-02
  2.34726953E-01  8.13757326E-01  1.00000000E+00
P(S=P) Contraction coefficients            R   N=         133
  0.00000000E+00  0.00000000E+00  0.00000000E+00  0.00000000E+00  0.00000000E+00
  0.00000000E+00  6.89990666E-02  3.16423961E-01  7.44308291E-01  1.00000000E+00
  0.00000000E+00  0.00000000E+00  0.00000000E+00  0.00000000E+00  0.00000000E+00
  0.00000000E+00  0.00000000E+00  6.89990666E-02  3.16423961E-01  7.44308291E-01
  1.00000000E+00  0.00000000E+00  0.00000000E+00  0.00000000E+00  0.00000000E+00
  0.00000000E+00  0.00000000E+00  0.00000000E+00  6.89990666E-02  3.16423961E-01
  7.44308291E-01  1.00000000E+00  0.00000000E+00  0.00000000E+00  0.00000000E+00
  0.00000000E+00  0.00000000E+00  0.00000000E+00  0.00000000E+00  6.89990666E-02
  3.16423961E-01  7.44308291E-01  1.00000000E+00  0.00000000E+00  0.00000000E+00
  0.00000000E+00  0.00000000E+00  0.00000000E+00  0.00000000E+00  0.00000000E+00
  6.89990666E-02  3.16423961E-01  7.44308291E-01  1.00000000E+00  0.00000000E+00
  0.00000000E+00  0.00000000E+00  0.00000000E+00  0.00000000E+00  0.00000000E+00
  0.00000000E+00  6.89990666E-02  3.16423961E-01  7.44308291E-01  1.00000000E+00
  0.00000000E+00  0.00000000E+00  0.00000000E+00  0.00000000E+00  0.00000000E+00
  0.00000000E+00  0.00000000E+00  6.89990666E-02  3.16423961E-01  7.44308291E-01
  1.00000000E+00  0.00000000E+00  0.00000000E+00  0.00000000E+00  0.00000000E+00
  0.00000000E+00  0.00000000E+00  0.00000000E+00  0.00000000E+00  0.00000000E+00
  0.00000000E+00  0.00000000E+00  0.00000000E+00  0.00000000E+00  0.00000000E+00
  0.00000000E+00  0.00000000E+00  0.00000000E+00  0.00000000E+00  0.00000000E+00
  0.00000000E+00  0.00000000E+00  0.00000000E+00  0.00000000E+00  0.00000000E+00
  0.00000000E+00  0.00000000E+00  0.00000000E+00  0.00000000E+00  0.00000000E+00
  0.00000000E+00  0.00000000E+00  0.00000000E+00  0.00000000E+00  0.00000000E+00
  0.00000000E+00  0.00000000E+00  0.00000000E+00  0.00000000E+00  0.00000000E+00
  0.00000000E+00  0.00000000E+00  0.00000000E+00  0.00000000E+00  0.00000000E+00
  0.00000000E+00  0.00000000E+00  0.00000000E+00  0.00000000E+00  0.00000000E+00
  0.00000000E+00  0.00000000E+00  0.00000000E+00  0.00000000E+00  0.00000000E+00
  0.00000000E+00  0.00000000E+00  0.00000000E+00
Coordinates of each shell                  R   N=         168
 -5.28444527E-01 -4.78878207E-01  5.10151217E-01 -5.28444527E-01 -4.78878207E-01
  5.10151217E-01 -5.28444527E-01 -4.78878207E-01  5.10151217E-01 -5.28444527E-01
 -4.78878207E-01  5.10151217E-01  1.56338640E+00 -2.30580507E+00 -2.96460182E-01
  1.56338640E+00 -2.30580507E+00 -2.96460182E-01  1.56338640E+00 -2.30580507E+00
 -2.96460182E-01  1.56338640E+00 -2.30580507E+00 -2.96460182E-01  5.00974379E-01
  2.07832206E+00 -3.98265659E-01  5.00974379E-01  2.07832206E+00 -3.98265659E-01
  5.00974379E-01  2.07832206E+00 -3.98265659E-01  5.00974379E-01  2.07832206E+00
 -3.98265659E-01  3.99317754E+00 -9.07467572E-01  4.19782496E-01  3.99317754E+00
 -9.07467572E-01  4.19782496E-01  3.99317754E+00 -9.07467572E-01  4.19782496E-01
  3.99317754E+00 -9.07467572E-01  4.19782496E-01  3.40451447E+00  1.91270389E+00
 -8.72720543E-02  3.40451447E+00  1.91270389E+00 -8.72720543E-02  3.40451447E+00
  1.91270389E+00 -8.72720543E-02  3.40451447E+00  1.91270389E+00 -8.72720543E-02
 -3.14771000E+00 -1.14519341E+00 -4.86286465E-01 -3.14771000E+00 -1.14519341E+00
 -4.86286465E-01 -3.14771000E+00 -1.14519341E+00 -4.86286465E-01 -3.14771000E+00
 -1.14519341E+00 -4.86286465E-01 -5.20504803E+00  6.92611975E-01  3.62219357E-01
 -5.20504803E+00  6.92611975E-01  3.62219357E-01 -5.20504803E+00  6.92611975E-01
  3.62219357E-01 -5.20504803E+00  6.92611975E-01  3.62219357E-01 -5.95817621E-01
 -4.63850524E-01  2.59080786E+00 -5.95817621E-01 -4.63850524E-01  2.59080786E+00
  1.46525384E+00 -2.57708473E+00 -2.35265268E+00  1.46525384E+00 -2.57708473E+00
 -2.35265268E+00  1.40100335E+00 -4.17131230E+00  5.87246516E-01  1.40100335E+00
 -4.17131230E+00  5.87246516E-01 -3.14840668E-01  3.68359432E+00  6.18960401E-01
 -3.14840668E-01  3.68359432E+00  6.18960401E-01  5.45250588E-03  2.31533301E+00
 -2.39935837E+00  5.45250588E-03  2.31533301E+00 -2.39935837E+00  5.64957353E+00
 -1.57693452E+00 -6.22642490E-01  5.64957353E+00 -1.57693452E+00 -6.22642490E-01
  4.38536216E+00 -1.20332454E+00  2.43143926E+00  4.38536216E+00 -1.20332454E+00
  2.43143926E+00  4.06769978E+00  3.10085174E+00  1.47012421E+00  4.06769978E+00
  3.10085174E+00  1.47012421E+00  4.36546682E+00  2.58400262E+00 -1.79120626E+00
  4.36546682E+00  2.58400262E+00 -1.79120626E+00 -3.63994452E+00 -3.06364455E+00
  1.30518449E-01 -3.63994452E+00 -3.06364455E+00  1.30518449E-01 -3.07023486E+00
 -1.19884482E+00 -2.56021858E+00 -3.07023486E+00 -1.19884482E+00 -2.56021858E+00
 -5.28640740E+00  7.99262655E-01  2.42678853E+00 -5.28640740E+00  7.99262655E-01
  2.42678853E+00 -4.85186651E+00  2.59702062E+00 -3.58017922E-01 -4.85186651E+00
  2.59702062E+00 -3.58017922E-01 -7.06580179E+00  9.71689832E-02 -3.15001188E-01
 -7.06580179E+00  9.71689832E-02 -3.15001188E-01
Constraint Structure                       R   N=          63
 -5.28444527E-01 -4.78878207E-01  5.10151217E-01  1.56338640E+00 -2.30580507E+00
 -2.96460182E-01  5.00974379E-01  2.07832206E+00 -3.98265659E-01  3.99317754E+00
 -9.07467572E-01  4.19782496E-01  3.40451447E+00  1.91270389E+00 -8.72720543E-02
 -3.14771000E+00 -1.14519341E+00 -4.86286465E-01 -5.20504803E+00  6.92611975E-01
  3.62219357E-01 -5.95817621E-01 -4.63850524E-01  2.59080786E+00  1.46525384E+00
 -2.57708473E+00 -2.35265268E+00  1.40100335E+00 -4.17131230E+00  5.87246516E-01
 -3.14840668E-01  3.68359432E+00  6.18960401E-01  5.45250588E-03  2.31533301E+00
 -2.39935837E+00  5.64957353E+00 -1.57693452E+00 -6.22642490E-01  4.38536216E+00
 -1.20332454E+00  2.43143926E+00  4.06769978E+00  3.10085174E+00  1.47012421E+00
  4.36546682E+00  2.58400262E+00 -1.79120626E+00 -3.63994452E+00 -3.06364455E+00
  1.30518449E-01 -3.07023486E+00 -1.19884482E+00 -2.56021858E+00 -5.28640740E+00
  7.99262655E-01  2.42678853E+00 -4.85186651E+00  2.59702062E+00 -3.58017922E-01
 -7.06580179E+00  9.71689832E-02 -3.15001188E-01
Num ILSW                                   I              100
ILSW                                       I   N=         100
           0           1           0           0           2           0
           0           0           0           0           0          -1
           0           0           0           0           0           0
           0           0           0           0           1           0
           1           0           0           0           0           0
           0           0      100000           0          -1           0
           0           0           0           0           0           0
           0           0           0           1           1           0
           0           0           1           0           0           0
           0           0           4          40           0           0
           0           0           0           0           0           0
           0           0           0           0           0           0
           0           0           0           0           0           0
           0           0           0           0           0           0
           0           0           0           0           0           0
           0           0           0           0           0           0
           0           0           0           0
Num RLSW                                   I               40
RLSW                                       R   N=          40
  1.00000000E+00  1.00000000E+00  1.00000000E+00  1.00000000E+00  1.00000000E+00
  0.00000000E+00  0.00000000E+00  1.00000000E+00  0.00000000E+00  0.00000000E+00
  0.00000000E+00  0.00000000E+00  1.00000000E+00  0.00000000E+00  0.00000000E+00
  0.00000000E+00  0.00000000E+00  1.00000000E+00  0.00000000E+00  0.00000000E+00
  0.00000000E+00  0.00000000E+00  1.00000000E+00  0.00000000E+00  0.00000000E+00
  0.00000000E+00  0.00000000E+00  1.00000000E+00  0.00000000E+00  0.00000000E+00
  0.00000000E+00  0.00000000E+00  0.00000000E+00  0.00000000E+00  0.00000000E+00
  0.00000000E+00  0.00000000E+00  0.00000000E+00  1.00000000E+00  1.00000000E+00
MxBond                                     I                4
NBond                                      I   N=          21
           4           4           4           4           4           4
           4           1           1           1           1           1
           1           1           1           1           1           1
           1           1           1
IBond                                      I   N=          84
           2           3           6           8           1           4
           9          10           1           5          11          12
           2           5          13          14           3           4
          15          16           1           7          17          18
           6          19          20          21           1           0
           0           0           2           0           0           0
           2           0           0           0           3           0
           0           0           3           0           0           0
           4           0           0           0           4           0
           0           0           5           0           0           0
           5           0           0           0           6           0
           0           0           6           0           0           0
           7           0           0           0           7           0
           0           0           7           0           0           0
RBond                                      R   N=          84
  1.00000000E+00  1.00000000E+00  1.00000000E+00  1.00000000E+00  1.00000000E+00
  1.00000000E+00  1.00000000E+00  1.00000000E+00  1.00000000E+00  1.00000000E+00
  1.00000000E+00  1.00000000E+00  1.00000000E+00  1.00000000E+00  1.00000000E+00
  1.00000000E+00  1.00000000E+00  1.00000000E+00  1.00000000E+00  1.00000000E+00
  1.00000000E+00  1.00000000E+00  1.00000000E+00  1.00000000E+00  1.00000000E+00
  1.00000000E+00  1.00000000E+00  1.00000000E+00  1.00000000E+00  0.00000000E+00
  0.00000000E+00  0.00000000E+00  1.00000000E+00  0.00000000E+00  0.00000000E+00
  0.00000000E+00  1.00000000E+00  0.00000000E+00  0.00000000E+00  0.00000000E+00
  1.00000000E+00  0.00000000E+00  0.00000000E+00  0.00000000E+00  1.00000000E+00
  0.00000000E+00  0.00000000E+00  0.00000000E+00  1.00000000E+00  0.00000000E+00
  0.00000000E+00  0.00000000E+00  1.00000000E+00  0.00000000E+00  0.00000000E+00
  0.00000000E+00  1.00000000E+00  0.00000000E+00  0.00000000E+00  0.00000000E+00
  1.00000000E+00  0.00000000E+00  0.00000000E+00  0.00000000E+00  1.00000000E+00
  0.00000000E+00  0.00000000E+00  0.00000000E+00  1.00000000E+00  0.00000000E+00
  0.00000000E+00  0.00000000E+00  1.00000000E+00  0.00000000E+00  0.00000000E+00
  0.00000000E+00  1.00000000E+00  0.00000000E+00  0.00000000E+00  0.00000000E+00
  1.00000000E+00  0.00000000E+00  0.00000000E+00  0.00000000E+00
Virial Ratio                               R      2.000904271626262E+00
SCF Energy                                 R     -2.732323604117480E+02
MP2 Energy                                 R     -2.741506815858254E+02
Total Energy                               R     -2.741506815858254E+02
Post-SCF wavefunction norm                 R      1.617571561140993E+00
RMS Force                                  R      2.363827813376566E-08
RMS Density                                R      1.072083193285063E-09
External E-field                           R   N=          35
  0.00000000E+00  0.00000000E+00  0.00000000E+00  0.00000000E+00  0.00000000E+00
  0.00000000E+00  0.00000000E+00  0.00000000E+00  0.00000000E+00  0.00000000E+00
  0.00000000E+00  0.00000000E+00  0.00000000E+00  0.00000000E+00  0.00000000E+00
  0.00000000E+00  0.00000000E+00  0.00000000E+00  0.00000000E+00  0.00000000E+00
  0.00000000E+00  0.00000000E+00  0.00000000E+00  0.00000000E+00  0.00000000E+00
  0.00000000E+00  0.00000000E+00  0.00000000E+00  0.00000000E+00  0.00000000E+00
  0.00000000E+00  0.00000000E+00  0.00000000E+00  0.00000000E+00  0.00000000E+00
IOpCl                                      I                0
IROHF                                      I                0
Alpha Orbital Energies                     R   N=         133
 -1.12155597E+01 -1.12143953E+01 -1.12128146E+01 -1.12121785E+01 -1.12109399E+01
 -1.12103288E+01 -1.12097100E+01 -1.12491676E+00 -1.03395752E+00 -9.56028211E-01
 -9.39596825E-01 -8.33540547E-01 -7.70718324E-01 -7.51257266E-01 -6.51821770E-01
 -6.29828301E-01 -6.04494228E-01 -5.68912609E-01 -5.56355596E-01 -5.52207577E-01
 -5.12870099E-01 -4.84961113E-01 -4.72484866E-01 -4.63883338E-01 -4.51639154E-01
 -4.45583887E-01 -4.42466349E-01 -4.34716180E-01  2.21568385E-01  2.42777403E-01
  2.51477080E-01  2.80548259E-01  2.90003399E-01  3.04220951E-01  3.08216912E-01
  3.24598904E-01  3.30762904E-01  3.37885266E-01  3.48701034E-01  3.60024753E-01
  3.67902676E-01  3.74531749E-01  3.85740170E-01  4.11055495E-01  4.30217547E-01
  4.50807955E-01  4.57807106E-01  4.97224052E-01  5.11598357E-01  7.11607087E-01
  7.20156314E-01  7.33086747E-01  7.41550595E-01  7.65496999E-01  7.98145883E-01
  8.09254747E-01  8.38991705E-01  9.01503484E-01  9.11668039E-01  9.37569825E-01
  9.48577398E-01  9.58241107E-01  9.62052696E-01  1.01924591E+00  1.03645948E+00
  1.05428522E+00  1.08666802E+00  1.12038277E+00  1.13579888E+00  1.15028492E+00
  1.15567200E+00  1.15793537E+00  1.16003184E+00  1.17232160E+00  1.18522486E+00
  1.20020962E+00  1.20144583E+00  1.21689212E+00  1.22212018E+00  1.22624688E+00
  1.24667642E+00  1.25223797E+00  1.28191835E+00  1.32116509E+00  1.47644594E+00
  1.51146575E+00  1.59285645E+00  1.61790920E+00  1.66769165E+00  1.78521247E+00
  1.87097530E+00  1.89102511E+00  1.92227105E+00  2.04665360E+00  2.06643346E+00
  2.10075586E+00  2.13250482E+00  2.13637946E+00  2.16455286E+00  2.23413071E+00
  2.24419018E+00  2.29320963E+00  2.30582642E+00  2.31754457E+00  2.33765857E+00
  2.36027927E+00  2.38296807E+00  2.42341697E+00  2.45110828E+00  2.49974953E+00
  2.54067719E+00  2.59496023E+00  2.61809988E+00  2.66264085E+00  2.67271987E+00
  2.72944310E+00  2.74766210E+00  2.83767935E+00  2.85613397E+00  2.90741159E+00
  2.93457796E+00  3.00798043E+00  3.02983309E+00  3.06391000E+00  3.16016126E+00
  3.24559037E+00  4.57165472E+00  4.64441228E+00  4.71514100E+00  4.75679655E+00
  4.86670035E+00  5.04836814E+00  5.09250031E+00
Alpha MO coefficients                      R   N=       17689
  9.55196655E-01  2.77033109E-02  9.85118471E-05  4.69199673E-05 -1.09170506E-04
 -1.86038418E-02 -1.40453937E-03 -7.14766483E-04  1.39327122E-03 -1.32946642E-03
 -1.41422222E-03 -1.26614956E-03 -1.44120230E-05 -3.59225816E-06  1.46607466E-05
  5.56321371E-02  1.63197031E-03 -1.55104865E-04  8.69398741E-05  3.97458557E-05
  3.61725384E-03 -1.63682299E-03  1.23350564E-03  9.90461692E-05 -3.70542155E-04
 -3.67930539E-04 -2.12363581E-04  1.39883950E-04  1.04862397E-04 -1.17054807E-04
  6.14038410E-02  1.58951363E-03 -5.43545624E-05 -1.36087103E-04  6.62454605E-05
  5.05992429E-03 -7.85907592E-04 -2.36717493E-03  3.82904624E-04 -3.04816406E-04
 -4.98909774E-04 -2.72653977E-04 -8.66382734E-05  5.58717440E-05  1.30234892E-04
  3.30361399E-03 -2.17125379E-04  5.09089130E-05  5.50518646E-05 -4.92087767E-05
  1.15750564E-03 -5.09802106E-04  1.38867157E-04  3.74676625E-04  3.94420787E-05
 -7.49942746E-05 -8.61831440E-05 -6.65481682E-05 -4.66601354E-05 -7.44880883E-06
  4.38078189E-03  8.23309627E-05  6.28432965E-05 -4.99876797E-05 -5.30245048E-05
 -6.63844655E-04  1.70959165E-04  5.96557503E-04  3.22685626E-04 -1.15258299E-05
  1.22609788E-05 -2.99693191E-05  3.55309530E-05 -4.35969613E-05 -1.04568322E-05
  2.69022189E-01  7.77049526E-03  9.59124529E-05  3.03790268E-05  4.94594865E-05
 -7.27667501E-04  1.91157002E-03  2.48636172E-04 -1.20120481E-04 -8.05837299E-04
 -5.76074414E-04 -5.79043936E-04 -5.74794829E-05 -2.01309656E-04 -7.52052529E-05
  1.24925829E-02  1.38647891E-04 -7.51274478E-05  1.15970525E-05 -3.60638609E-05