12215236                                                                
Freq      RMP2-FC                                                     6-31G(d)            
Number of atoms                            I               18
Info1-9                                    I   N=           9
          30          28        1002           0           0         100
           6           2           1
Charge                                     I                0
Multiplicity                               I                1
Number of electrons                        I               76
Number of alpha electrons                  I               38
Number of beta electrons                   I               38
Number of basis functions                  I              179
Number of independent functions            I              179
Number of point charges in /Mol/           I                0
Number of translation vectors              I                0
Atomic numbers                             I   N=          18
           8           7           6           6           6           6
           6           6           6           6           6           1
           1           1           1           1           1           1
Nuclear charges                            R   N=          18
  8.00000000E+00  7.00000000E+00  6.00000000E+00  6.00000000E+00  6.00000000E+00
  6.00000000E+00  6.00000000E+00  6.00000000E+00  6.00000000E+00  6.00000000E+00
  6.00000000E+00  1.00000000E+00  1.00000000E+00  1.00000000E+00  1.00000000E+00
  1.00000000E+00  1.00000000E+00  1.00000000E+00
Current cartesian coordinates              R   N=          54
  5.83374574E+00 -1.39474501E+00  1.12834472E-04 -2.03004964E+00 -2.22445965E+00
 -1.50504786E-04  1.84460417E+00  8.21685564E-02 -2.78178769E-05 -9.22387054E-01
  8.13849384E-02 -7.32095600E-06  3.55545066E+00  2.18361148E+00 -1.92458242E-04
 -2.33054138E+00  2.32630137E+00  1.57455060E-04  3.33923871E+00 -2.04057653E+00
  1.47344289E-04 -4.95869436E+00  2.19178223E+00  1.53177319E-04  5.93375347E+00
  1.18594114E+00 -8.68561405E-05 -6.10987228E+00 -1.77628162E-01  3.37568248E-06
 -4.56371770E+00 -2.31513737E+00 -1.35261701E-04  3.10288371E+00  4.17711143E+00
 -4.01425417E-04 -1.38289664E+00  4.14747635E+00  2.97681347E-04  2.91324437E+00
 -4.03465773E+00  2.97795948E-04  7.80630834E+00  1.99730407E+00 -1.36511902E-04
 -6.08689786E+00  3.90928986E+00  2.74455367E-04 -8.15336089E+00 -3.72604949E-01
 -4.13203266E-06 -5.38590491E+00 -4.20182738E+00 -2.46830191E-04
Force Field                                I                0
Int Atom Types                             I   N=          18
           0           0           0           0           0           0
           0           0           0           0           0           0
           0           0           0           0           0           0
MM charges                                 R   N=          18
  0.00000000E+00  0.00000000E+00  0.00000000E+00  0.00000000E+00  0.00000000E+00
  0.00000000E+00  0.00000000E+00  0.00000000E+00  0.00000000E+00  0.00000000E+00
  0.00000000E+00  0.00000000E+00  0.00000000E+00  0.00000000E+00  0.00000000E+00
  0.00000000E+00  0.00000000E+00  0.00000000E+00
Integer atomic weights                     I   N=          18
          16          14          12          12          12          12
          12          12          12          12          12           1
           1           1           1           1           1           1
Real atomic weights                        R   N=          18
  1.59949146E+01  1.40030740E+01  1.20000000E+01  1.20000000E+01  1.20000000E+01
  1.20000000E+01  1.20000000E+01  1.20000000E+01  1.20000000E+01  1.20000000E+01
  1.20000000E+01  1.00782504E+00  1.00782504E+00  1.00782504E+00  1.00782504E+00
  1.00782504E+00  1.00782504E+00  1.00782504E+00
Atom fragment info                         I   N=          18
           0           0           0           0           0           0
           0           0           0           0           0           0
           0           0           0           0           0           0
Atom residue num                           I   N=          18
           0           0           0           0           0           0
           0           0           0           0           0           0
           0           0           0           0           0           0
Nuclear spins                              I   N=          18
           0           2           0           0           0           0
           0           0           0           0           0           1
           1           1           1           1           1           1
Nuclear ZEff                               R   N=          18
 -5.60000000E+00 -4.55000000E+00 -3.60000000E+00 -3.60000000E+00 -3.60000000E+00
 -3.60000000E+00 -3.60000000E+00 -3.60000000E+00 -3.60000000E+00 -3.60000000E+00
 -3.60000000E+00 -1.00000000E+00 -1.00000000E+00 -1.00000000E+00 -1.00000000E+00
 -1.00000000E+00 -1.00000000E+00 -1.00000000E+00
Nuclear QMom                               R   N=          18
  0.00000000E+00  2.04400000E+00  0.00000000E+00  0.00000000E+00  0.00000000E+00
  0.00000000E+00  0.00000000E+00  0.00000000E+00  0.00000000E+00  0.00000000E+00
  0.00000000E+00  0.00000000E+00  0.00000000E+00  0.00000000E+00  0.00000000E+00
  0.00000000E+00  0.00000000E+00  0.00000000E+00
Nuclear GFac                               R   N=          18
  0.00000000E+00  4.03761000E-01  0.00000000E+00  0.00000000E+00  0.00000000E+00
  0.00000000E+00  0.00000000E+00  0.00000000E+00  0.00000000E+00  0.00000000E+00
  0.00000000E+00  2.79284600E+00  2.79284600E+00  2.79284600E+00  2.79284600E+00
  2.79284600E+00  2.79284600E+00  2.79284600E+00
MicOpt                                     I   N=          18
          -1          -1          -1          -1          -1          -1
          -1          -1          -1          -1          -1          -1
          -1          -1          -1          -1          -1          -1
Number of contracted shells                I               58
Number of primitive shells                 I              149
Pure/Cartesian d shells                    I                1
Pure/Cartesian f shells                    I                0
Highest angular momentum                   I                2
Largest degree of contraction              I                6
Shell types                                I   N=          58
           0          -1          -1           2           0          -1
          -1           2           0          -1          -1           2
           0          -1          -1           2           0          -1
          -1           2           0          -1          -1           2
           0          -1          -1           2           0          -1
          -1           2           0          -1          -1           2
           0          -1          -1           2           0          -1
          -1           2           0           0           0           0
           0           0           0           0           0           0
           0           0           0           0
Number of primitives per shell             I   N=          58
           6           3           1           1           6           3
           1           1           6           3           1           1
           6           3           1           1           6           3
           1           1           6           3           1           1
           6           3           1           1           6           3
           1           1           6           3           1           1
           6           3           1           1           6           3
           1           1           3           1           3           1
           3           1           3           1           3           1
           3           1           3           1
Shell to atom map                          I   N=          58
           1           1           1           1           2           2
           2           2           3           3           3           3
           4           4           4           4           5           5
           5           5           6           6           6           6
           7           7           7           7           8           8
           8           8           9           9           9           9
          10          10          10          10          11          11
          11          11          12          12          13          13
          14          14          15          15          16          16
          17          17          18          18
Primitive exponents                        R   N=         149
  5.48467166E+03  8.25234946E+02  1.88046958E+02  5.29645000E+01  1.68975704E+01
  5.79963534E+00  1.55396162E+01  3.59993359E+00  1.01376175E+00  2.70005823E-01
  8.00000000E-01  4.17351146E+03  6.27457911E+02  1.42902093E+02  4.02343293E+01
  1.28202129E+01  4.39043701E+00  1.16263619E+01  2.71627981E+00  7.72218397E-01
  2.12031498E-01  8.00000000E-01  3.04752488E+03  4.57369518E+02  1.03948685E+02
  2.92101553E+01  9.28666296E+00  3.16392696E+00  7.86827235E+00  1.88128854E+00
  5.44249258E-01  1.68714478E-01  8.00000000E-01  3.04752488E+03  4.57369518E+02
  1.03948685E+02  2.92101553E+01  9.28666296E+00  3.16392696E+00  7.86827235E+00
  1.88128854E+00  5.44249258E-01  1.68714478E-01  8.00000000E-01  3.04752488E+03
  4.57369518E+02  1.03948685E+02  2.92101553E+01  9.28666296E+00  3.16392696E+00
  7.86827235E+00  1.88128854E+00  5.44249258E-01  1.68714478E-01  8.00000000E-01
  3.04752488E+03  4.57369518E+02  1.03948685E+02  2.92101553E+01  9.28666296E+00
  3.16392696E+00  7.86827235E+00  1.88128854E+00  5.44249258E-01  1.68714478E-01
  8.00000000E-01  3.04752488E+03  4.57369518E+02  1.03948685E+02  2.92101553E+01
  9.28666296E+00  3.16392696E+00  7.86827235E+00  1.88128854E+00  5.44249258E-01
  1.68714478E-01  8.00000000E-01  3.04752488E+03  4.57369518E+02  1.03948685E+02
  2.92101553E+01  9.28666296E+00  3.16392696E+00  7.86827235E+00  1.88128854E+00
  5.44249258E-01  1.68714478E-01  8.00000000E-01  3.04752488E+03  4.57369518E+02
  1.03948685E+02  2.92101553E+01  9.28666296E+00  3.16392696E+00  7.86827235E+00
  1.88128854E+00  5.44249258E-01  1.68714478E-01  8.00000000E-01  3.04752488E+03
  4.57369518E+02  1.03948685E+02  2.92101553E+01  9.28666296E+00  3.16392696E+00
  7.86827235E+00  1.88128854E+00  5.44249258E-01  1.68714478E-01  8.00000000E-01
  3.04752488E+03  4.57369518E+02  1.03948685E+02  2.92101553E+01  9.28666296E+00
  3.16392696E+00  7.86827235E+00  1.88128854E+00  5.44249258E-01  1.68714478E-01
  8.00000000E-01  1.87311370E+01  2.82539436E+00  6.40121692E-01  1.61277759E-01
  1.87311370E+01  2.82539436E+00  6.40121692E-01  1.61277759E-01  1.87311370E+01
  2.82539436E+00  6.40121692E-01  1.61277759E-01  1.87311370E+01  2.82539436E+00
  6.40121692E-01  1.61277759E-01  1.87311370E+01  2.82539436E+00  6.40121692E-01
  1.61277759E-01  1.87311370E+01  2.82539436E+00  6.40121692E-01  1.61277759E-01
  1.87311370E+01  2.82539436E+00  6.40121692E-01  1.61277759E-01
Contraction coefficients                   R   N=         149
  1.83107443E-03  1.39501722E-02  6.84450781E-02  2.32714336E-01  4.70192898E-01
  3.58520853E-01 -1.10777550E-01 -1.48026263E-01  1.13076702E+00  1.00000000E+00
  1.00000000E+00  1.83477216E-03  1.39946270E-02  6.85865518E-02  2.32240873E-01
  4.69069948E-01  3.60455199E-01 -1.14961182E-01 -1.69117479E-01  1.14585195E+00
  1.00000000E+00  1.00000000E+00  1.83473713E-03  1.40373228E-02  6.88426223E-02
  2.32184443E-01  4.67941348E-01  3.62311985E-01 -1.19332420E-01 -1.60854152E-01
  1.14345644E+00  1.00000000E+00  1.00000000E+00  1.83473713E-03  1.40373228E-02
  6.88426223E-02  2.32184443E-01  4.67941348E-01  3.62311985E-01 -1.19332420E-01
 -1.60854152E-01  1.14345644E+00  1.00000000E+00  1.00000000E+00  1.83473713E-03
  1.40373228E-02  6.88426223E-02  2.32184443E-01  4.67941348E-01  3.62311985E-01
 -1.19332420E-01 -1.60854152E-01  1.14345644E+00  1.00000000E+00  1.00000000E+00
  1.83473713E-03  1.40373228E-02  6.88426223E-02  2.32184443E-01  4.67941348E-01
  3.62311985E-01 -1.19332420E-01 -1.60854152E-01  1.14345644E+00  1.00000000E+00
  1.00000000E+00  1.83473713E-03  1.40373228E-02  6.88426223E-02  2.32184443E-01
  4.67941348E-01  3.62311985E-01 -1.19332420E-01 -1.60854152E-01  1.14345644E+00
  1.00000000E+00  1.00000000E+00  1.83473713E-03  1.40373228E-02  6.88426223E-02
  2.32184443E-01  4.67941348E-01  3.62311985E-01 -1.19332420E-01 -1.60854152E-01
  1.14345644E+00  1.00000000E+00  1.00000000E+00  1.83473713E-03  1.40373228E-02
  6.88426223E-02  2.32184443E-01  4.67941348E-01  3.62311985E-01 -1.19332420E-01
 -1.60854152E-01  1.14345644E+00  1.00000000E+00  1.00000000E+00  1.83473713E-03
  1.40373228E-02  6.88426223E-02  2.32184443E-01  4.67941348E-01  3.62311985E-01
 -1.19332420E-01 -1.60854152E-01  1.14345644E+00  1.00000000E+00  1.00000000E+00
  1.83473713E-03  1.40373228E-02  6.88426223E-02  2.32184443E-01  4.67941348E-01
  3.62311985E-01 -1.19332420E-01 -1.60854152E-01  1.14345644E+00  1.00000000E+00
  1.00000000E+00  3.34946043E-02  2.34726953E-01  8.13757326E-01  1.00000000E+00
  3.34946043E-02  2.34726953E-01  8.13757326E-01  1.00000000E+00  3.34946043E-02
  2.34726953E-01  8.13757326E-01  1.00000000E+00  3.34946043E-02  2.34726953E-01
  8.13757326E-01  1.00000000E+00  3.34946043E-02  2.34726953E-01  8.13757326E-01
  1.00000000E+00  3.34946043E-02  2.34726953E-01  8.13757326E-01  1.00000000E+00
  3.34946043E-02  2.34726953E-01  8.13757326E-01  1.00000000E+00
P(S=P) Contraction coefficients            R   N=         149
  0.00000000E+00  0.00000000E+00  0.00000000E+00  0.00000000E+00  0.00000000E+00
  0.00000000E+00  7.08742682E-02  3.39752839E-01  7.27158577E-01  1.00000000E+00
  0.00000000E+00  0.00000000E+00  0.00000000E+00  0.00000000E+00  0.00000000E+00
  0.00000000E+00  0.00000000E+00  6.75797439E-02  3.23907296E-01  7.40895140E-01
  1.00000000E+00  0.00000000E+00  0.00000000E+00  0.00000000E+00  0.00000000E+00
  0.00000000E+00  0.00000000E+00  0.00000000E+00  6.89990666E-02  3.16423961E-01
  7.44308291E-01  1.00000000E+00  0.00000000E+00  0.00000000E+00  0.00000000E+00
  0.00000000E+00  0.00000000E+00  0.00000000E+00  0.00000000E+00  6.89990666E-02
  3.16423961E-01  7.44308291E-01  1.00000000E+00  0.00000000E+00  0.00000000E+00
  0.00000000E+00  0.00000000E+00  0.00000000E+00  0.00000000E+00  0.00000000E+00
  6.89990666E-02  3.16423961E-01  7.44308291E-01  1.00000000E+00  0.00000000E+00
  0.00000000E+00  0.00000000E+00  0.00000000E+00  0.00000000E+00  0.00000000E+00
  0.00000000E+00  6.89990666E-02  3.16423961E-01  7.44308291E-01  1.00000000E+00
  0.00000000E+00  0.00000000E+00  0.00000000E+00  0.00000000E+00  0.00000000E+00
  0.00000000E+00  0.00000000E+00  6.89990666E-02  3.16423961E-01  7.44308291E-01
  1.00000000E+00  0.00000000E+00  0.00000000E+00  0.00000000E+00  0.00000000E+00
  0.00000000E+00  0.00000000E+00  0.00000000E+00  6.89990666E-02  3.16423961E-01
  7.44308291E-01  1.00000000E+00  0.00000000E+00  0.00000000E+00  0.00000000E+00
  0.00000000E+00  0.00000000E+00  0.00000000E+00  0.00000000E+00  6.89990666E-02
  3.16423961E-01  7.44308291E-01  1.00000000E+00  0.00000000E+00  0.00000000E+00
  0.00000000E+00  0.00000000E+00  0.00000000E+00  0.00000000E+00  0.00000000E+00
  6.89990666E-02  3.16423961E-01  7.44308291E-01  1.00000000E+00  0.00000000E+00
  0.00000000E+00  0.00000000E+00  0.00000000E+00  0.00000000E+00  0.00000000E+00
  0.00000000E+00  6.89990666E-02  3.16423961E-01  7.44308291E-01  1.00000000E+00
  0.00000000E+00  0.00000000E+00  0.00000000E+00  0.00000000E+00  0.00000000E+00
  0.00000000E+00  0.00000000E+00  0.00000000E+00  0.00000000E+00  0.00000000E+00
  0.00000000E+00  0.00000000E+00  0.00000000E+00  0.00000000E+00  0.00000000E+00
  0.00000000E+00  0.00000000E+00  0.00000000E+00  0.00000000E+00  0.00000000E+00
  0.00000000E+00  0.00000000E+00  0.00000000E+00  0.00000000E+00  0.00000000E+00
  0.00000000E+00  0.00000000E+00  0.00000000E+00  0.00000000E+00
Coordinates of each shell                  R   N=         174
  5.83374574E+00 -1.39474501E+00  1.12834472E-04  5.83374574E+00 -1.39474501E+00
  1.12834472E-04  5.83374574E+00 -1.39474501E+00  1.12834472E-04  5.83374574E+00
 -1.39474501E+00  1.12834472E-04 -2.03004964E+00 -2.22445965E+00 -1.50504786E-04
 -2.03004964E+00 -2.22445965E+00 -1.50504786E-04 -2.03004964E+00 -2.22445965E+00
 -1.50504786E-04 -2.03004964E+00 -2.22445965E+00 -1.50504786E-04  1.84460417E+00
  8.21685564E-02 -2.78178769E-05  1.84460417E+00  8.21685564E-02 -2.78178769E-05
  1.84460417E+00  8.21685564E-02 -2.78178769E-05  1.84460417E+00  8.21685564E-02
 -2.78178769E-05 -9.22387054E-01  8.13849384E-02 -7.32095600E-06 -9.22387054E-01
  8.13849384E-02 -7.32095600E-06 -9.22387054E-01  8.13849384E-02 -7.32095600E-06
 -9.22387054E-01  8.13849384E-02 -7.32095600E-06  3.55545066E+00  2.18361148E+00
 -1.92458242E-04  3.55545066E+00  2.18361148E+00 -1.92458242E-04  3.55545066E+00
  2.18361148E+00 -1.92458242E-04  3.55545066E+00  2.18361148E+00 -1.92458242E-04
 -2.33054138E+00  2.32630137E+00  1.57455060E-04 -2.33054138E+00  2.32630137E+00
  1.57455060E-04 -2.33054138E+00  2.32630137E+00  1.57455060E-04 -2.33054138E+00
  2.32630137E+00  1.57455060E-04  3.33923871E+00 -2.04057653E+00  1.47344289E-04
  3.33923871E+00 -2.04057653E+00  1.47344289E-04  3.33923871E+00 -2.04057653E+00
  1.47344289E-04  3.33923871E+00 -2.04057653E+00  1.47344289E-04 -4.95869436E+00
  2.19178223E+00  1.53177319E-04 -4.95869436E+00  2.19178223E+00  1.53177319E-04
 -4.95869436E+00  2.19178223E+00  1.53177319E-04 -4.95869436E+00  2.19178223E+00
  1.53177319E-04  5.93375347E+00  1.18594114E+00 -8.68561405E-05  5.93375347E+00
  1.18594114E+00 -8.68561405E-05  5.93375347E+00  1.18594114E+00 -8.68561405E-05
  5.93375347E+00  1.18594114E+00 -8.68561405E-05 -6.10987228E+00 -1.77628162E-01
  3.37568248E-06 -6.10987228E+00 -1.77628162E-01  3.37568248E-06 -6.10987228E+00
 -1.77628162E-01  3.37568248E-06 -6.10987228E+00 -1.77628162E-01  3.37568248E-06
 -4.56371770E+00 -2.31513737E+00 -1.35261701E-04 -4.56371770E+00 -2.31513737E+00
 -1.35261701E-04 -4.56371770E+00 -2.31513737E+00 -1.35261701E-04 -4.56371770E+00
 -2.31513737E+00 -1.35261701E-04  3.10288371E+00  4.17711143E+00 -4.01425417E-04
  3.10288371E+00  4.17711143E+00 -4.01425417E-04 -1.38289664E+00  4.14747635E+00
  2.97681347E-04 -1.38289664E+00  4.14747635E+00  2.97681347E-04  2.91324437E+00
 -4.03465773E+00  2.97795948E-04  2.91324437E+00 -4.03465773E+00  2.97795948E-04
  7.80630834E+00  1.99730407E+00 -1.36511902E-04  7.80630834E+00  1.99730407E+00
 -1.36511902E-04 -6.08689786E+00  3.90928986E+00  2.74455367E-04 -6.08689786E+00
  3.90928986E+00  2.74455367E-04 -8.15336089E+00 -3.72604949E-01 -4.13203266E-06
 -8.15336089E+00 -3.72604949E-01 -4.13203266E-06 -5.38590491E+00 -4.20182738E+00
 -2.46830191E-04 -5.38590491E+00 -4.20182738E+00 -2.46830191E-04
Constraint Structure                       R   N=          54
  5.83374574E+00 -1.39474501E+00  1.12834472E-04 -2.03004964E+00 -2.22445965E+00
 -1.50504786E-04  1.84460417E+00  8.21685564E-02 -2.78178769E-05 -9.22387054E-01
  8.13849384E-02 -7.32095600E-06  3.55545066E+00  2.18361148E+00 -1.92458242E-04
 -2.33054138E+00  2.32630137E+00  1.57455060E-04  3.33923871E+00 -2.04057653E+00
  1.47344289E-04 -4.95869436E+00  2.19178223E+00  1.53177319E-04  5.93375347E+00
  1.18594114E+00 -8.68561405E-05 -6.10987228E+00 -1.77628162E-01  3.37568248E-06
 -4.56371770E+00 -2.31513737E+00 -1.35261701E-04  3.10288371E+00  4.17711143E+00
 -4.01425417E-04 -1.38289664E+00  4.14747635E+00  2.97681347E-04  2.91324437E+00
 -4.03465773E+00  2.97795948E-04  7.80630834E+00  1.99730407E+00 -1.36511902E-04
 -6.08689786E+00  3.90928986E+00  2.74455367E-04 -8.15336089E+00 -3.72604949E-01
 -4.13203266E-06 -5.38590491E+00 -4.20182738E+00 -2.46830191E-04
Num ILSW                                   I              100
ILSW                                       I   N=         100
           0           1           0           1           2           0
           0           0           0           0           0          -1
           0           0           0           0           0           0
           0           0           0           0           1           0
           1           0           0           0           0           0
           0           0      100000           0          -1           0
           0           0           0           0           0           0
           0           0           0           1           1           0
           0           0           1           0           0           0
           0           0           4          40           0           0
           0           0           0           0           0           0
           0           0           0           0           0           0
           0           0           0           0           0           0
           0           0           0           0           0           0
           0           0           0           0           0           0
           0           0           0           0           0           0
           0           0           0           0
Num RLSW                                   I               40
RLSW                                       R   N=          40
  1.00000000E+00  1.00000000E+00  1.00000000E+00  1.00000000E+00  1.00000000E+00
  0.00000000E+00  0.00000000E+00  1.00000000E+00  0.00000000E+00  0.00000000E+00
  0.00000000E+00  0.00000000E+00  1.00000000E+00  0.00000000E+00  0.00000000E+00
  0.00000000E+00  0.00000000E+00  1.00000000E+00  0.00000000E+00  0.00000000E+00
  0.00000000E+00  0.00000000E+00  1.00000000E+00  0.00000000E+00  0.00000000E+00
  0.00000000E+00  0.00000000E+00  1.00000000E+00  0.00000000E+00  0.00000000E+00
  0.00000000E+00  0.00000000E+00  0.00000000E+00  0.00000000E+00  0.00000000E+00
  0.00000000E+00  0.00000000E+00  0.00000000E+00  1.00000000E+00  1.00000000E+00
MxBond                                     I                3
NBond                                      I   N=          18
           2           2           3           3           3           3
           3           3           3           3           3           1
           1           1           1           1           1           1
IBond                                      I   N=          54
           7           9           0           4          11           0
           4           5           7           2           3           6
           3           9          12           4           8          13
           1           3          14           6          10          16
           1           5          15           8          11          17
           2          10          18           5           0           0
           6           0           0           7           0           0
           9           0           0           8           0           0
          10           0           0          11           0           0
RBond                                      R   N=          54
  1.50000000E+00  1.50000000E+00  0.00000000E+00  1.50000000E+00  1.50000000E+00
  0.00000000E+00  1.00000000E+00  1.50000000E+00  1.50000000E+00  1.50000000E+00
  1.00000000E+00  1.50000000E+00  1.50000000E+00  1.50000000E+00  1.00000000E+00
  1.50000000E+00  1.50000000E+00  1.00000000E+00  1.50000000E+00  1.50000000E+00
  1.00000000E+00  1.50000000E+00  1.50000000E+00  1.00000000E+00  1.50000000E+00
  1.50000000E+00  1.00000000E+00  1.50000000E+00  1.50000000E+00  1.00000000E+00
  1.50000000E+00  1.50000000E+00  1.00000000E+00  1.00000000E+00  0.00000000E+00
  0.00000000E+00  1.00000000E+00  0.00000000E+00  0.00000000E+00  1.00000000E+00
  0.00000000E+00  0.00000000E+00  1.00000000E+00  0.00000000E+00  0.00000000E+00
  1.00000000E+00  0.00000000E+00  0.00000000E+00  1.00000000E+00  0.00000000E+00
  0.00000000E+00  1.00000000E+00  0.00000000E+00  0.00000000E+00
Virial Ratio                               R      2.002543106004143E+00
SCF Energy                                 R     -4.741692687043527E+02
MP2 Energy                                 R     -4.756474014769703E+02
Total Energy                               R     -4.756474014769703E+02
Post-SCF wavefunction norm                 R      1.745189582363286E+00
RMS Force                                  R      1.493276144634339E-06
RMS Density                                R      1.211167632665464E-09
External E-field                           R   N=          35
  0.00000000E+00  0.00000000E+00  0.00000000E+00  0.00000000E+00  0.00000000E+00
  0.00000000E+00  0.00000000E+00  0.00000000E+00  0.00000000E+00  0.00000000E+00
  0.00000000E+00  0.00000000E+00  0.00000000E+00  0.00000000E+00  0.00000000E+00
  0.00000000E+00  0.00000000E+00  0.00000000E+00  0.00000000E+00  0.00000000E+00
  0.00000000E+00  0.00000000E+00  0.00000000E+00  0.00000000E+00  0.00000000E+00
  0.00000000E+00  0.00000000E+00  0.00000000E+00  0.00000000E+00  0.00000000E+00
  0.00000000E+00  0.00000000E+00  0.00000000E+00  0.00000000E+00  0.00000000E+00
IOpCl                                      I                0
IROHF                                      I                0
Alpha Orbital Energies                     R   N=         179
 -2.06312635E+01 -1.55660403E+01 -1.12906953E+01 -1.12903851E+01 -1.12887344E+01
 -1.12773166E+01 -1.12615778E+01 -1.12418957E+01 -1.12399827E+01 -1.12355633E+01
 -1.12342988E+01 -1.45384179E+00 -1.25427704E+00 -1.09990153E+00 -1.08411569E+00
 -1.02929549E+00 -9.93527985E-01 -8.70361998E-01 -8.58668877E-01 -7.90745073E-01
 -7.72448629E-01 -7.39881828E-01 -6.82691675E-01 -6.56761948E-01 -6.42116348E-01
 -6.27693656E-01 -6.02532077E-01 -5.81290372E-01 -5.70481067E-01 -5.66953183E-01
 -5.42357762E-01 -5.31387202E-01 -5.15659507E-01 -4.17494526E-01 -4.15416680E-01
 -3.77384735E-01 -3.42882344E-01 -2.92501177E-01  1.03528218E-01  1.29384972E-01
  1.78498387E-01  2.33979902E-01  2.60021255E-01  2.64477964E-01  2.81584393E-01
  2.96103139E-01  3.08363174E-01  3.19901469E-01  3.37906590E-01  3.63047639E-01
  3.80594023E-01  3.96574897E-01  4.08608784E-01  4.52261075E-01  4.92507679E-01
  5.02640932E-01  5.39556569E-01  5.53028655E-01  5.86778312E-01  6.54136551E-01
  6.77705601E-01  7.02465182E-01  7.24282166E-01  7.35267350E-01  7.60839773E-01
  7.80604100E-01  7.89666113E-01  7.99620801E-01  8.01658629E-01  8.06019609E-01
  8.21241160E-01  8.27697143E-01  8.35597380E-01  8.42585516E-01  8.53234354E-01
  8.80989177E-01  8.90305136E-01  9.05462736E-01  9.21133814E-01  9.30522945E-01
  9.52215821E-01  1.01162348E+00  1.04344435E+00  1.06174737E+00  1.08222615E+00
  1.09474732E+00  1.09777012E+00  1.12375967E+00  1.13829163E+00  1.14855212E+00
  1.15145214E+00  1.16493571E+00  1.19076547E+00  1.20519156E+00  1.21401225E+00
  1.24343788E+00  1.26824283E+00  1.27687927E+00  1.28568070E+00  1.31245288E+00
  1.33475329E+00  1.41655585E+00  1.41942219E+00  1.45662176E+00  1.50036415E+00
  1.51334676E+00  1.52399544E+00  1.58353700E+00  1.63215405E+00  1.63216560E+00
  1.64537497E+00  1.65914387E+00  1.70028840E+00  1.74435549E+00  1.75517143E+00
  1.76140486E+00  1.76504932E+00  1.79630675E+00  1.81142298E+00  1.83893354E+00
  1.84919213E+00  1.88688743E+00  1.97399931E+00  1.99123451E+00  2.09498239E+00
  2.10516967E+00  2.11468974E+00  2.15795703E+00  2.21285110E+00  2.22997528E+00
  2.26018733E+00  2.30073600E+00  2.38078756E+00  2.38784766E+00  2.41330174E+00
  2.42220442E+00  2.45775805E+00  2.48617726E+00  2.50075940E+00  2.50076224E+00
  2.53275007E+00  2.54574932E+00  2.57032881E+00  2.59383728E+00  2.60603631E+00
  2.64894835E+00  2.65863721E+00  2.66904561E+00  2.71968382E+00  2.86014035E+00
  2.86935395E+00  2.90094498E+00  2.90491716E+00  2.96906391E+00  2.99130029E+00
  3.01383424E+00  3.04183372E+00  3.04927055E+00  3.06490014E+00  3.10653812E+00
  3.13360742E+00  3.18209683E+00  3.27449776E+00  3.31899107E+00  3.39130801E+00
  3.49242863E+00  3.64680540E+00  3.79657825E+00  4.39365038E+00  4.47340085E+00
  4.51711976E+00  4.56611946E+00  4.60900205E+00  4.61764206E+00  4.68320802E+00
  4.72626224E+00  4.78395561E+00  4.93244468E+00  5.11591404E+00
Alpha MO coefficients                      R   N=       32041
  9.94669015E-01  2.11824135E-02 -1.01676505E-03  8.24944624E-04 -7.01122871E-08
  3.83968681E-03  6.08459073E-04 -5.56081852E-04  4.99935416E-08 -4.04051870E-03
 -4.06547127E-03 -3.91890957E-03 -3.80644275E-05  1.85217147E-09  1.19379074E-08
  3.02423094E-06  8.16208922E-06  9.06334285E-06 -3.16404059E-06  2.54087845E-09
 -1.30859265E-04 -2.02750120E-04 -6.02776992E-05 -1.49351888E-08  1.15887329E-05
  5.72791810E-06  5.18088752E-06 -1.26388728E-05 -1.66373780E-09 -6.85770563E-10
  8.14435032E-06  6.23780448E-05 -5.93184541E-05  1.60706336E-05 -2.70510705E-09
 -9.96237949E-04  3.55003551E-04  6.56529147E-04 -4.02391676E-08 -5.34641157E-05
 -1.94025439E-05 -5.41432836E-06  4.71729432E-05 -4.64606262E-09  2.80140120E-09
 -3.30557723E-06 -2.83515576E-05 -3.21280220E-06  7.16149399E-06  3.28659765E-10
  4.39589167E-04  5.23660724E-04 -4.09710275E-04 -1.26816015E-08  2.57095753E-05
  4.98628741E-06 -6.69736192E-06  4.36235218E-06  1.42557299E-09  1.78974253E-09
  7.46087132E-06  5.56507881E-05 -3.58228351E-05  5.21508712E-05 -5.65590661E-09
 -1.03955833E-03 -2.56282503E-04  3.06861079E-04 -2.85931474E-08 -4.70371307E-05
 -2.19604894E-05 -4.99772167E-06  3.97731744E-05 -3.34385983E-09  2.62389631E-09
 -2.18054928E-06 -1.74473774E-05  1.75336982E-05 -4.33318544E-06 -2.32229004E-09
  4.92141183E-04 -1.93402083E-04 -2.13833893E-04 -1.30197761E-08  7.75800372E-06
  8.91538658E-07 -2.68498414E-06  3.79674282E-06  4.61533779E-10  1.17656254E-09
 -7.14294764E-06  3.33545145E-04  3.60196069E-04  8.81583839E-05 -3.12524960E-09
  4.44035654E-04 -5.55367887E-04  5.41969765E-04 -5.37385399E-08 -3.89504410E-05