
    -----------------------------------------------------------------------
          Psi4: An Open-Source Ab Initio Electronic Structure Package
                               Psi4 1.3.2 release

                         Git: Rev {HEAD} ecbda83 


    R. M. Parrish, L. A. Burns, D. G. A. Smith, A. C. Simmonett,
    A. E. DePrince III, E. G. Hohenstein, U. Bozkaya, A. Yu. Sokolov,
    R. Di Remigio, R. M. Richard, J. F. Gonthier, A. M. James,
    H. R. McAlexander, A. Kumar, M. Saitow, X. Wang, B. P. Pritchard,
    P. Verma, H. F. Schaefer III, K. Patkowski, R. A. King, E. F. Valeev,
    F. A. Evangelista, J. M. Turney, T. D. Crawford, and C. D. Sherrill,
    J. Chem. Theory Comput. 13(7) pp 3185--3197 (2017).
    (doi: 10.1021/acs.jctc.7b00174)


                         Additional Contributions by
    P. Kraus, H. Kruse, M. H. Lechner, M. C. Schieber, R. A. Shaw,
    A. Alenaizan, R. Galvelis, Z. L. Glick, S. Lehtola, and J. P. Misiewicz

    -----------------------------------------------------------------------


    Psi4 started on: Thursday, 05 November 2020 05:30AM

    Process ID: 35321
    Host:       node96.bme.utexas.edu
    PSIDATADIR: /home/xy3866/psi4conda/share/psi4
    Memory:     500.0 MiB
    Threads:    8
    
  ==> Input File <==

--------------------------------------------------------------------------
#psi4
#
memory 32 gb

molecule  {
0 1
  O       -0.7087550    -1.1193400    -0.2546710
  O       -0.7529000     2.5454980     0.2011280
  O        1.9863450     1.9788980    -0.3426730
  O        2.9116540    -0.6744470     0.1695670
  O        0.9157630    -2.7262860    -0.0672430
  O       -3.4138550    -0.8877920     0.1899090
  C       -0.3205170     1.2520290    -0.2382820
  C        1.1174580     1.0033160     0.2012620
  C       -1.2273170     0.1250620     0.2312770
  C        1.5822600    -0.3816350    -0.2226430
  C        0.5842790    -1.4279170     0.2862350
  C       -2.5525655     0.1965870    -0.2616659
  H       -0.3421210     1.3021240    -1.3326030
  H        1.1389810     1.0438400     1.3116400
  H       -1.2614020     0.1027960     1.3365120
  H        1.5823060    -0.4261990    -1.3195550
  H        0.5265370    -1.4152780     1.3862880
  H       -2.6088310     0.2173240    -1.3960300
  H       -3.1281770     1.1200080     0.0454480
  H       -0.8264260     2.5110960     1.1737150
  H        1.5069660     2.8252470    -0.2509780
  H        3.0031740    -0.4532420     1.1134330
  H        1.2543330    -2.7122130    -0.9803670
  H       -2.8912910    -1.6827110    -0.0238270
units angstrom
no_reorient  #important for SAPT in psi4, default
symmetry c1  #important for SAPT in psi4, default
}

set PROPERTIES_ORIGIN ["COM"]
properties('MP2/aug-cc-pvtz', properties = ['dipole'])
--------------------------------------------------------------------------

  Memory set to  29.802 GiB by Python driver.
    SCF Algorithm Type (re)set to DF.

*** tstart() called on node96.bme.utexas.edu
*** at Thu Nov  5 05:30:48 2020

   => Loading Basis Set <=

    Name: AUG-CC-PVTZ
    Role: ORBITAL
    Keyword: BASIS
    atoms 1-6   entry O          line   327 file /home/xy3866/psi4conda/share/psi4/basis/aug-cc-pvtz.gbs 
    atoms 7-12  entry C          line   235 file /home/xy3866/psi4conda/share/psi4/basis/aug-cc-pvtz.gbs 
    atoms 13-24 entry H          line    36 file /home/xy3866/psi4conda/share/psi4/basis/aug-cc-pvtz.gbs 


         ---------------------------------------------------------
                                   SCF
               by Justin Turney, Rob Parrish, Andy Simmonett
                          and Daniel G. A. Smith
                              RHF Reference
                        8 Threads,  30517 MiB Core
         ---------------------------------------------------------

  ==> Geometry <==

    Molecular point group: c1
    Full point group: C1

    Geometry (in Angstrom), charge = 0, multiplicity = 1:

       Center              X                  Y                   Z               Mass       
    ------------   -----------------  -----------------  -----------------  -----------------
         O           -0.726240342425    -1.105623282936    -0.251133341875    15.994914619570
         O           -0.770385342425     2.559214717064     0.204665658125    15.994914619570
         O            1.968859657575     1.992614717064    -0.339135341875    15.994914619570
         O            2.894168657575    -0.660730282936     0.173104658125    15.994914619570
         O            0.898277657575    -2.712569282936    -0.063705341875    15.994914619570
         O           -3.431340342425    -0.874075282936     0.193446658125    15.994914619570
         C           -0.338002342425     1.265745717064    -0.234744341875    12.000000000000
         C            1.099972657575     1.017032717064     0.204799658125    12.000000000000
         C           -1.244802342425     0.138778717064     0.234814658125    12.000000000000
         C            1.564774657575    -0.367918282936    -0.219105341875    12.000000000000
         C            0.566793657575    -1.414200282936     0.289772658125    12.000000000000
         C           -2.570050842425     0.210303717064    -0.258128241875    12.000000000000
         H           -0.359606342425     1.315840717064    -1.329065341875     1.007825032230
         H            1.121495657575     1.057556717064     1.315177658125     1.007825032230
         H           -1.278887342425     0.116512717064     1.340049658125     1.007825032230
         H            1.564820657575    -0.412482282936    -1.316017341875     1.007825032230
         H            0.509051657575    -1.401561282936     1.389825658125     1.007825032230
         H           -2.626316342425     0.231040717064    -1.392492341875     1.007825032230
         H           -3.145662342425     1.133724717064     0.048985658125     1.007825032230
         H           -0.843911342425     2.524812717064     1.177252658125     1.007825032230
         H            1.489480657575     2.838963717064    -0.247440341875     1.007825032230
         H            2.985688657575    -0.439525282936     1.116970658125     1.007825032230
         H            1.236847657575    -2.698496282936    -0.976829341875     1.007825032230
         H           -2.908776342425    -1.668994282936    -0.020289341875     1.007825032230

  Running in c1 symmetry.

  Rotational constants: A =      0.03854  B =      0.02674  C =      0.01651 [cm^-1]
  Rotational constants: A =   1155.25847  B =    801.68857  C =    495.03571 [MHz]
  Nuclear repulsion =  826.497232647619512

  Charge       = 0
  Multiplicity = 1
  Electrons    = 96
  Nalpha       = 48
  Nbeta        = 48

  ==> Algorithm <==

  SCF Algorithm Type is DF.
  DIIS enabled.
  MOM disabled.
  Fractional occupation disabled.
  Guess Type is SAD.
  Energy threshold   = 1.00e-10
  Density threshold  = 1.00e-10
  Integral threshold = 0.00e+00

  ==> Primary Basis <==

  Basis Set: AUG-CC-PVTZ
    Blend: AUG-CC-PVTZ
    Number of shells: 276
    Number of basis function: 828
    Number of Cartesian functions: 960
    Spherical Harmonics?: true
    Max angular momentum: 3

   => Loading Basis Set <=

    Name: (AUG-CC-PVTZ AUX)
    Role: JKFIT
    Keyword: DF_BASIS_SCF
    atoms 1-6   entry O          line   286 file /home/xy3866/psi4conda/share/psi4/basis/aug-cc-pvtz-jkfit.gbs 
    atoms 7-12  entry C          line   162 file /home/xy3866/psi4conda/share/psi4/basis/aug-cc-pvtz-jkfit.gbs 
    atoms 13-24 entry H          line    70 file /home/xy3866/psi4conda/share/psi4/basis/aug-cc-pvtz-jkfit.gbs 

  ==> Pre-Iterations <==

   -------------------------------------------------------
    Irrep   Nso     Nmo     Nalpha   Nbeta   Ndocc  Nsocc
   -------------------------------------------------------
     A        828     828       0       0       0       0
   -------------------------------------------------------
    Total     828     828      48      48      48       0
   -------------------------------------------------------

  ==> Integral Setup <==

  DFHelper Memory: AOs need 8.738 GiB; user supplied 22.352 GiB. Using in-core AOs.

  ==> MemDFJK: Density-Fitted J/K Matrices <==

    J tasked:                   Yes
    K tasked:                   Yes
    wK tasked:                   No
    OpenMP threads:               8
    Memory [MiB]:             22888
    Algorithm:                 Disk
    Schwarz Cutoff:           1E-12
    Mask sparsity (%):       7.1702
    Fitting Condition:        1E-10

   => Auxiliary Basis Set <=

  Basis Set: (AUG-CC-PVTZ AUX)
    Blend: AUG-CC-PVTZ-JKFIT
    Number of shells: 528
    Number of basis function: 1800
    Number of Cartesian functions: 2232
    Spherical Harmonics?: true
    Max angular momentum: 4

  Minimum eigenvalue in the overlap matrix is 1.7424171764E-06.
  Using Symmetric Orthogonalization.

  SCF Guess: Superposition of Atomic Densities via on-the-fly atomic UHF.

  ==> Iterations <==

                           Total Energy        Delta E     RMS |[F,P]|

   @DF-RHF iter SAD:  -683.04161506323942   -6.83042e+02   0.00000e+00 
   @DF-RHF iter   1:  -683.21353266340270   -1.71918e-01   1.05673e-03 DIIS
   @DF-RHF iter   2:  -683.51054559130080   -2.97013e-01   5.81533e-04 DIIS
   @DF-RHF iter   3:  -683.58515594970311   -7.46104e-02   1.08564e-04 DIIS
   @DF-RHF iter   4:  -683.59025598750407   -5.10004e-03   3.66665e-05 DIIS
   @DF-RHF iter   5:  -683.59077850291681   -5.22515e-04   8.23675e-06 DIIS
   @DF-RHF iter   6:  -683.59081789968366   -3.93968e-05   2.27409e-06 DIIS
   @DF-RHF iter   7:  -683.59082187737363   -3.97769e-06   8.83362e-07 DIIS
   @DF-RHF iter   8:  -683.59082226957707   -3.92203e-07   2.85673e-07 DIIS
   @DF-RHF iter   9:  -683.59082231988361   -5.03065e-08   7.42231e-08 DIIS
   @DF-RHF iter  10:  -683.59082232271589   -2.83228e-09   2.25326e-08 DIIS
   @DF-RHF iter  11:  -683.59082232300102   -2.85127e-10   5.87663e-09 DIIS
   @DF-RHF iter  12:  -683.59082232302251   -2.14868e-11   2.47753e-09 DIIS
   @DF-RHF iter  13:  -683.59082232302546   -2.95586e-12   7.06653e-10 DIIS
   @DF-RHF iter  14:  -683.59082232302490    5.68434e-13   2.03050e-10 DIIS
   @DF-RHF iter  15:  -683.59082232302478    1.13687e-13   7.47246e-11 DIIS
  Energy and wave function converged.


  ==> Post-Iterations <==

    Orbital Energies [Eh]
    ---------------------

    Doubly Occupied:                                                      

       1A    -20.599775     2A    -20.590009     3A    -20.584644  
       4A    -20.580242     5A    -20.578905     6A    -20.560906  
       7A    -11.358025     8A    -11.313332     9A    -11.311461  
      10A    -11.306911    11A    -11.306280    12A    -11.288478  
      13A     -1.442504    14A     -1.406665    15A     -1.389098  
      16A     -1.372077    17A     -1.366401    18A     -1.344619  
      19A     -1.088247    20A     -1.064225    21A     -0.951162  
      22A     -0.893434    23A     -0.851574    24A     -0.840934  
      25A     -0.756026    26A     -0.732845    27A     -0.723200  
      28A     -0.711614    29A     -0.694129    30A     -0.681041  
      31A     -0.658883    32A     -0.650920    33A     -0.621585  
      34A     -0.615052    35A     -0.589470    36A     -0.584708  
      37A     -0.569532    38A     -0.563234    39A     -0.557398  
      40A     -0.544450    41A     -0.527522    42A     -0.518100  
      43A     -0.502862    44A     -0.488742    45A     -0.475977  
      46A     -0.457769    47A     -0.453172    48A     -0.434419  

    Virtual:                                                              

      49A      0.018914    50A      0.030414    51A      0.033579  
      52A      0.037348    53A      0.046482    54A      0.050815  
      55A      0.051246    56A      0.054073    57A      0.059589  
      58A      0.072047    59A      0.073868    60A      0.076913  
      61A      0.096282    62A      0.100698    63A      0.109585  
      64A      0.111277    65A      0.113550    66A      0.116091  
      67A      0.121190    68A      0.124849    69A      0.129667  
      70A      0.131584    71A      0.138068    72A      0.140077  
      73A      0.140933    74A      0.143050    75A      0.152809  
      76A      0.154115    77A      0.157937    78A      0.160521  
      79A      0.172055    80A      0.181528    81A      0.183970  
      82A      0.188103    83A      0.190946    84A      0.197870  
      85A      0.206642    86A      0.216990    87A      0.218919  
      88A      0.229135    89A      0.232722    90A      0.239548  
      91A      0.243001    92A      0.248542    93A      0.249604  
      94A      0.251547    95A      0.258074    96A      0.259359  
      97A      0.263977    98A      0.268051    99A      0.272441  
     100A      0.273640   101A      0.278626   102A      0.287266  
     103A      0.289526   104A      0.291674   105A      0.298272  
     106A      0.300049   107A      0.303725   108A      0.309911  
     109A      0.313457   110A      0.320923   111A      0.323141  
     112A      0.330292   113A      0.331968   114A      0.333774  
     115A      0.345040   116A      0.350748   117A      0.353810  
     118A      0.355618   119A      0.358402   120A      0.366779  
     121A      0.373363   122A      0.375691   123A      0.382050  
     124A      0.387428   125A      0.395810   126A      0.398391  
     127A      0.401990   128A      0.407190   129A      0.413694  
     130A      0.416613   131A      0.419478   132A      0.426452  
     133A      0.428918   134A      0.433209   135A      0.436720  
     136A      0.442199   137A      0.445908   138A      0.448680  
     139A      0.456000   140A      0.458660   141A      0.462850  
     142A      0.466923   143A      0.469382   144A      0.475124  
     145A      0.478561   146A      0.488029   147A      0.493642  
     148A      0.493735   149A      0.502158   150A      0.505243  
     151A      0.511176   152A      0.513909   153A      0.515818  
     154A      0.521882   155A      0.524485   156A      0.526792  
     157A      0.531337   158A      0.534852   159A      0.539489  
     160A      0.544302   161A      0.545503   162A      0.550268  
     163A      0.560677   164A      0.564012   165A      0.571053  
     166A      0.575428   167A      0.582422   168A      0.586296  
     169A      0.588079   170A      0.590039   171A      0.595411  
     172A      0.596649   173A      0.599608   174A      0.613771  
     175A      0.618052   176A      0.618724   177A      0.620702  
     178A      0.629219   179A      0.634088   180A      0.639677  
     181A      0.650400   182A      0.650917   183A      0.653664  
     184A      0.663809   185A      0.670691   186A      0.672997  
     187A      0.680186   188A      0.688015   189A      0.694774  
     190A      0.700803   191A      0.705750   192A      0.712592  
     193A      0.727020   194A      0.730051   195A      0.733631  
     196A      0.741929   197A      0.753000   198A      0.762278  
     199A      0.765284   200A      0.769953   201A      0.778354  
     202A      0.789477   203A      0.798533   204A      0.804003  
     205A      0.812263   206A      0.816605   207A      0.824916  
     208A      0.829380   209A      0.836213   210A      0.841846  
     211A      0.845078   212A      0.853520   213A      0.862027  
     214A      0.866091   215A      0.872501   216A      0.878369  
     217A      0.883781   218A      0.893223   219A      0.896709  
     220A      0.907550   221A      0.910207   222A      0.914741  
     223A      0.918737   224A      0.926347   225A      0.934859  
     226A      0.941118   227A      0.947223   228A      0.948629  
     229A      0.956915   230A      0.961315   231A      0.966546  
     232A      0.974207   233A      0.976795   234A      0.991368  
     235A      0.993728   236A      0.998558   237A      1.004646  
     238A      1.008397   239A      1.016285   240A      1.022741  
     241A      1.028521   242A      1.036517   243A      1.044860  
     244A      1.047402   245A      1.051422   246A      1.053849  
     247A      1.060527   248A      1.063023   249A      1.067861  
     250A      1.072243   251A      1.078116   252A      1.083349  
     253A      1.096345   254A      1.097086   255A      1.100162  
     256A      1.104127   257A      1.109042   258A      1.115827  
     259A      1.117746   260A      1.126543   261A      1.133918  
     262A      1.141694   263A      1.143187   264A      1.148719  
     265A      1.151439   266A      1.156552   267A      1.165164  
     268A      1.170188   269A      1.175170   270A      1.181405  
     271A      1.188632   272A      1.191881   273A      1.195560  
     274A      1.200991   275A      1.212845   276A      1.215816  
     277A      1.219996   278A      1.223028   279A      1.230596  
     280A      1.241249   281A      1.242625   282A      1.251251  
     283A      1.259136   284A      1.266596   285A      1.279793  
     286A      1.284612   287A      1.286823   288A      1.290990  
     289A      1.298295   290A      1.302230   291A      1.310163  
     292A      1.311878   293A      1.324555   294A      1.334443  
     295A      1.337522   296A      1.342533   297A      1.350262  
     298A      1.358787   299A      1.364988   300A      1.380824  
     301A      1.387019   302A      1.393577   303A      1.402341  
     304A      1.406291   305A      1.409006   306A      1.411788  
     307A      1.424604   308A      1.435412   309A      1.439197  
     310A      1.443153   311A      1.449518   312A      1.460540  
     313A      1.464546   314A      1.470444   315A      1.476299  
     316A      1.484703   317A      1.490217   318A      1.499759  
     319A      1.506087   320A      1.516225   321A      1.526234  
     322A      1.531333   323A      1.542014   324A      1.548345  
     325A      1.560219   326A      1.562129   327A      1.566109  
     328A      1.575452   329A      1.576721   330A      1.583225  
     331A      1.587942   332A      1.597298   333A      1.603142  
     334A      1.611132   335A      1.613164   336A      1.615944  
     337A      1.631844   338A      1.638993   339A      1.645013  
     340A      1.655725   341A      1.656245   342A      1.663130  
     343A      1.675671   344A      1.681274   345A      1.690426  
     346A      1.696360   347A      1.704574   348A      1.707627  
     349A      1.713174   350A      1.722109   351A      1.727012  
     352A      1.733746   353A      1.741417   354A      1.752452  
     355A      1.760774   356A      1.769648   357A      1.775082  
     358A      1.778452   359A      1.785887   360A      1.790753  
     361A      1.798578   362A      1.803820   363A      1.813190  
     364A      1.817515   365A      1.828469   366A      1.832471  
     367A      1.833797   368A      1.848770   369A      1.857398  
     370A      1.860802   371A      1.865921   372A      1.871862  
     373A      1.875608   374A      1.883589   375A      1.889608  
     376A      1.901370   377A      1.915221   378A      1.925178  
     379A      1.930108   380A      1.931918   381A      1.935097  
     382A      1.948016   383A      1.955756   384A      1.960604  
     385A      1.967744   386A      1.976443   387A      1.985537  
     388A      2.003731   389A      2.005864   390A      2.010233  
     391A      2.018092   392A      2.028108   393A      2.033450  
     394A      2.039228   395A      2.049794   396A      2.062776  
     397A      2.065953   398A      2.067392   399A      2.080460  
     400A      2.084394   401A      2.102578   402A      2.106931  
     403A      2.108618   404A      2.122259   405A      2.132340  
     406A      2.143898   407A      2.165772   408A      2.170008  
     409A      2.177521   410A      2.178777   411A      2.187636  
     412A      2.194406   413A      2.205078   414A      2.210306  
     415A      2.211804   416A      2.224427   417A      2.245230  
     418A      2.250637   419A      2.257327   420A      2.276081  
     421A      2.287930   422A      2.299700   423A      2.306008  
     424A      2.320097   425A      2.324213   426A      2.343246  
     427A      2.347608   428A      2.373159   429A      2.386554  
     430A      2.403021   431A      2.408167   432A      2.423180  
     433A      2.432641   434A      2.438700   435A      2.441767  
     436A      2.459298   437A      2.470319   438A      2.482862  
     439A      2.489538   440A      2.502700   441A      2.521637  
     442A      2.533066   443A      2.546447   444A      2.560257  
     445A      2.566435   446A      2.579374   447A      2.597047  
     448A      2.610197   449A      2.625505   450A      2.644696  
     451A      2.649208   452A      2.656151   453A      2.666063  
     454A      2.681221   455A      2.684025   456A      2.707980  
     457A      2.719887   458A      2.724428   459A      2.736737  
     460A      2.752575   461A      2.770004   462A      2.779579  
     463A      2.790193   464A      2.796784   465A      2.806124  
     466A      2.815400   467A      2.823380   468A      2.839940  
     469A      2.846154   470A      2.857113   471A      2.866055  
     472A      2.869209   473A      2.883467   474A      2.902665  
     475A      2.907203   476A      2.914300   477A      2.934802  
     478A      2.943544   479A      2.948403   480A      2.958014  
     481A      2.969407   482A      2.983874   483A      2.989927  
     484A      2.992296   485A      3.003291   486A      3.007487  
     487A      3.021384   488A      3.030349   489A      3.054554  
     490A      3.060917   491A      3.068384   492A      3.072015  
     493A      3.080883   494A      3.096479   495A      3.103511  
     496A      3.106822   497A      3.126470   498A      3.135744  
     499A      3.153504   500A      3.160766   501A      3.169868  
     502A      3.182121   503A      3.187028   504A      3.200193  
     505A      3.204551   506A      3.211607   507A      3.220873  
     508A      3.251328   509A      3.258633   510A      3.263636  
     511A      3.277521   512A      3.288392   513A      3.294975  
     514A      3.311009   515A      3.321262   516A      3.336316  
     517A      3.347239   518A      3.349282   519A      3.366439  
     520A      3.386797   521A      3.404226   522A      3.424174  
     523A      3.435966   524A      3.476556   525A      3.494522  
     526A      3.503528   527A      3.532800   528A      3.539502  
     529A      3.575692   530A      3.592485   531A      3.599805  
     532A      3.628411   533A      3.637322   534A      3.652600  
     535A      3.662323   536A      3.675105   537A      3.694833  
     538A      3.704591   539A      3.723166   540A      3.729189  
     541A      3.751510   542A      3.761856   543A      3.793709  
     544A      3.799669   545A      3.802332   546A      3.821049  
     547A      3.844034   548A      3.863799   549A      3.869185  
     550A      3.883813   551A      3.894773   552A      3.898830  
     553A      3.907493   554A      3.921268   555A      3.925608  
     556A      3.951684   557A      3.962169   558A      3.967847  
     559A      3.972315   560A      3.990515   561A      4.005921  
     562A      4.011714   563A      4.022512   564A      4.035057  
     565A      4.047886   566A      4.063111   567A      4.070978  
     568A      4.073317   569A      4.087423   570A      4.089792  
     571A      4.093269   572A      4.107913   573A      4.116293  
     574A      4.125040   575A      4.138861   576A      4.148729  
     577A      4.154350   578A      4.162998   579A      4.169593  
     580A      4.180391   581A      4.194010   582A      4.216107  
     583A      4.233252   584A      4.241858   585A      4.246120  
     586A      4.262285   587A      4.276460   588A      4.287361  
     589A      4.294351   590A      4.298565   591A      4.315256  
     592A      4.322163   593A      4.342372   594A      4.355663  
     595A      4.362864   596A      4.386564   597A      4.389907  
     598A      4.405519   599A      4.419820   600A      4.437014  
     601A      4.448159   602A      4.452175   603A      4.467451  
     604A      4.472053   605A      4.486038   606A      4.504862  
     607A      4.515678   608A      4.525365   609A      4.531498  
     610A      4.541940   611A      4.559451   612A      4.564391  
     613A      4.574777   614A      4.585331   615A      4.598601  
     616A      4.607927   617A      4.619269   618A      4.627259  
     619A      4.633640   620A      4.649518   621A      4.656009  
     622A      4.667004   623A      4.682761   624A      4.690843  
     625A      4.711680   626A      4.727747   627A      4.729980  
     628A      4.739241   629A      4.752736   630A      4.754968  
     631A      4.771838   632A      4.782892   633A      4.786322  
     634A      4.795747   635A      4.813721   636A      4.822749  
     637A      4.846625   638A      4.865955   639A      4.871308  
     640A      4.891338   641A      4.903980   642A      4.905748  
     643A      4.915233   644A      4.921074   645A      4.937980  
     646A      4.951340   647A      4.964230   648A      4.989796  
     649A      4.997320   650A      5.006732   651A      5.018681  
     652A      5.029007   653A      5.039761   654A      5.048851  
     655A      5.058035   656A      5.070230   657A      5.083171  
     658A      5.094136   659A      5.104948   660A      5.113885  
     661A      5.124872   662A      5.134836   663A      5.137899  
     664A      5.163919   665A      5.170224   666A      5.176058  
     667A      5.196140   668A      5.210546   669A      5.243769  
     670A      5.248719   671A      5.260749   672A      5.283903  
     673A      5.288705   674A      5.307571   675A      5.323116  
     676A      5.336273   677A      5.348816   678A      5.369072  
     679A      5.383504   680A      5.390245   681A      5.404106  
     682A      5.411479   683A      5.417185   684A      5.428161  
     685A      5.449313   686A      5.459261   687A      5.473050  
     688A      5.485581   689A      5.499380   690A      5.521000  
     691A      5.527505   692A      5.533737   693A      5.550535  
     694A      5.557958   695A      5.582839   696A      5.595968  
     697A      5.603584   698A      5.616117   699A      5.641476  
     700A      5.652354   701A      5.666868   702A      5.670328  
     703A      5.691801   704A      5.716483   705A      5.735097  
     706A      5.743835   707A      5.753946   708A      5.772651  
     709A      5.810344   710A      5.837201   711A      5.844615  
     712A      5.863795   713A      5.909828   714A      5.925303  
     715A      5.937472   716A      5.950123   717A      6.007785  
     718A      6.021417   719A      6.036972   720A      6.053447  
     721A      6.071802   722A      6.096003   723A      6.142258  
     724A      6.214699   725A      6.241377   726A      6.291851  
     727A      6.311688   728A      6.321958   729A      6.334115  
     730A      6.373409   731A      6.419246   732A      6.558011  
     733A      6.605047   734A      6.680364   735A      6.701736  
     736A      6.724193   737A      6.740671   738A      6.747990  
     739A      6.761587   740A      6.790172   741A      6.794737  
     742A      6.847126   743A      6.886817   744A      6.927036  
     745A      6.960973   746A      6.983149   747A      6.992878  
     748A      7.005722   749A      7.015149   750A      7.032217  
     751A      7.045105   752A      7.050172   753A      7.062956  
     754A      7.083686   755A      7.112521   756A      7.134222  
     757A      7.138605   758A      7.145808   759A      7.153545  
     760A      7.168376   761A      7.188126   762A      7.290877  
     763A      7.314221   764A      7.324678   765A      7.333846  
     766A      7.337947   767A      7.345272   768A      7.367473  
     769A      7.375039   770A      7.394842   771A      7.414451  
     772A      7.423401   773A      7.441017   774A      7.481825  
     775A      7.487093   776A      7.501436   777A      7.516489  
     778A      7.522466   779A      7.544006   780A      7.549295  
     781A      7.572692   782A      7.576223   783A      7.593781  
     784A      7.616019   785A      7.625252   786A      7.703217  
     787A      7.725625   788A      7.735093   789A      7.772136  
     790A      7.794124   791A      7.811445   792A      7.833402  
     793A      7.866002   794A      7.885063   795A      7.897502  
     796A      7.921590   797A      7.947798   798A      7.980861  
     799A      8.005510   800A      8.044324   801A      8.053499  
     802A      8.070699   803A      8.118969   804A      8.159393  
     805A      8.234323   806A      8.279616   807A      8.319735  
     808A      8.335474   809A      8.354774   810A      8.460775  
     811A      8.552922   812A      8.603065   813A      8.649816  
     814A      8.679911   815A      8.698530   816A      8.743204  
     817A     16.231971   818A     16.546481   819A     16.664687  
     820A     17.010413   821A     17.231200   822A     17.353778  
     823A     18.654734   824A     18.899237   825A     19.000502  
     826A     19.212001   827A     19.810521   828A     20.551832  

    Final Occupation by Irrep:
              A 
    DOCC [    48 ]

  @DF-RHF Final Energy:  -683.59082232302478

   => Energetics <=

    Nuclear Repulsion Energy =            826.4972326476195121
    One-Electron Energy =               -2581.1709928948826018
    Two-Electron Energy =                1071.0829379242381947
    Total Energy =                       -683.5908223230248950

Computation Completed

*** tstop() called on node96.bme.utexas.edu at Thu Nov  5 05:33:50 2020
Module time:
	user time   =     577.46 seconds =       9.62 minutes
	system time =      58.85 seconds =       0.98 minutes
	total time  =        182 seconds =       3.03 minutes
Total time:
	user time   =     577.46 seconds =       9.62 minutes
	system time =      58.85 seconds =       0.98 minutes
	total time  =        182 seconds =       3.03 minutes
   => Loading Basis Set <=

    Name: (AUG-CC-PVTZ AUX)
    Role: RIFIT
    Keyword: DF_BASIS_MP2
    atoms 1-6   entry O          line   264 file /home/xy3866/psi4conda/share/psi4/basis/aug-cc-pvtz-ri.gbs 
    atoms 7-12  entry C          line   148 file /home/xy3866/psi4conda/share/psi4/basis/aug-cc-pvtz-ri.gbs 
    atoms 13-24 entry H          line    30 file /home/xy3866/psi4conda/share/psi4/basis/aug-cc-pvtz-ri.gbs 


*** tstart() called on node96.bme.utexas.edu
*** at Thu Nov  5 05:33:50 2020


  //>>>>>>>>>>>>>>>>>>>>>>>>>>>>>>>>>>>//
  //               DFMP2               //
  //<<<<<<<<<<<<<<<<<<<<<<<<<<<<<<<<<<<//

	 --------------------------------------------------------
	                          DF-MP2                         
	      2nd-Order Density-Fitted Moller-Plesset Theory     
	              RMP2 Wavefunction,   8 Threads             
	                                                         
	        Rob Parrish, Justin Turney, Andy Simmonett,      
	           Ed Hohenstein, and C. David Sherrill          
	 --------------------------------------------------------

   => Auxiliary Basis Set <=

  Basis Set: (AUG-CC-PVTZ AUX)
    Blend: AUG-CC-PVTZ-RI
    Number of shells: 504
    Number of basis function: 1824
    Number of Cartesian functions: 2292
    Spherical Harmonics?: true
    Max angular momentum: 4

	 --------------------------------------------------------
	                 NBF =   828, NAUX =  1824
	 --------------------------------------------------------
	   CLASS    FOCC     OCC    AOCC    AVIR     VIR    FVIR
	   PAIRS       0      48      48     780     780       0
	 --------------------------------------------------------

  DFHelper Memory: AOs need 8.738 GiB; user supplied 22.352 GiB. Using in-core AOs.


         ------------------------------------------------------------
                                     CPHF                           
                                  Rob Parrish                       
         ------------------------------------------------------------

  ==> Geometry <==

    Molecular point group: c1
    Full point group: C1

    Geometry (in Angstrom), charge = 0, multiplicity = 1:

       Center              X                  Y                   Z               Mass       
    ------------   -----------------  -----------------  -----------------  -----------------
         O           -0.726240342425    -1.105623282936    -0.251133341875    15.994914619570
         O           -0.770385342425     2.559214717064     0.204665658125    15.994914619570
         O            1.968859657575     1.992614717064    -0.339135341875    15.994914619570
         O            2.894168657575    -0.660730282936     0.173104658125    15.994914619570
         O            0.898277657575    -2.712569282936    -0.063705341875    15.994914619570
         O           -3.431340342425    -0.874075282936     0.193446658125    15.994914619570
         C           -0.338002342425     1.265745717064    -0.234744341875    12.000000000000
         C            1.099972657575     1.017032717064     0.204799658125    12.000000000000
         C           -1.244802342425     0.138778717064     0.234814658125    12.000000000000
         C            1.564774657575    -0.367918282936    -0.219105341875    12.000000000000
         C            0.566793657575    -1.414200282936     0.289772658125    12.000000000000
         C           -2.570050842425     0.210303717064    -0.258128241875    12.000000000000
         H           -0.359606342425     1.315840717064    -1.329065341875     1.007825032230
         H            1.121495657575     1.057556717064     1.315177658125     1.007825032230
         H           -1.278887342425     0.116512717064     1.340049658125     1.007825032230
         H            1.564820657575    -0.412482282936    -1.316017341875     1.007825032230
         H            0.509051657575    -1.401561282936     1.389825658125     1.007825032230
         H           -2.626316342425     0.231040717064    -1.392492341875     1.007825032230
         H           -3.145662342425     1.133724717064     0.048985658125     1.007825032230
         H           -0.843911342425     2.524812717064     1.177252658125     1.007825032230
         H            1.489480657575     2.838963717064    -0.247440341875     1.007825032230
         H            2.985688657575    -0.439525282936     1.116970658125     1.007825032230
         H            1.236847657575    -2.698496282936    -0.976829341875     1.007825032230
         H           -2.908776342425    -1.668994282936    -0.020289341875     1.007825032230

  Nuclear repulsion =  826.497232647619512
  Reference energy  = -683.590822323024781

  ==> Basis Set <==

  Basis Set: AUG-CC-PVTZ
    Blend: AUG-CC-PVTZ
    Number of shells: 276
    Number of basis function: 828
    Number of Cartesian functions: 960
    Spherical Harmonics?: true
    Max angular momentum: 3

  ==> CGRSolver (by Rob Parrish) <==

   Number of roots    =         1
   Preconditioning    =    JACOBI
   Convergence cutoff =     1E-06
   Maximum iterations =       100

  ==> CPHFRHamiltonian (by Rob Parrish) <== 

  ==> MemDFJK: Density-Fitted J/K Matrices <==

    J tasked:                   Yes
    K tasked:                   Yes
    wK tasked:                   No
    OpenMP threads:               8
    Memory [MiB]:             22888
    Algorithm:                 Disk
    Schwarz Cutoff:           1E-12
    Mask sparsity (%):       7.1702
    Fitting Condition:        1E-10

   => Auxiliary Basis Set <=

  Basis Set: (AUG-CC-PVTZ AUX)
    Blend: AUG-CC-PVTZ-JKFIT
    Number of shells: 528
    Number of basis function: 1800
    Number of Cartesian functions: 2232
    Spherical Harmonics?: true
    Max angular momentum: 4

  ==> CPHF Iterations <==

  => Iterations <=

             Iter  Converged  Remaining    Residual
  CGR           1          0          1   8.459E-02
  CGR           2          0          1   1.935E-02
  CGR           3          0          1   7.767E-03
  CGR           4          0          1   1.886E-03
  CGR           5          0          1   4.858E-04
  CGR           6          0          1   1.610E-04
  CGR           7          0          1   4.334E-05
  CGR           8          0          1   1.536E-05
  CGR           9          0          1   5.278E-06
  CGR          10          0          1   1.591E-06
  CGR          11          1          0   5.374E-07

    CGRSolver converged.

	-----------------------------------------------------------
	 ==================> DF-MP2 Energies <==================== 
	-----------------------------------------------------------
	 Reference Energy          =    -683.5908223230247813 [Eh]
	 Singles Energy            =      -0.0000000000000000 [Eh]
	 Same-Spin Energy          =      -0.6667514579279623 [Eh]
	 Opposite-Spin Energy      =      -2.0471117239454051 [Eh]
	 Correlation Energy        =      -2.7138631818733674 [Eh]
	 Total Energy              =    -686.3046855048982025 [Eh]
	-----------------------------------------------------------
	 ================> DF-SCS-MP2 Energies <================== 
	-----------------------------------------------------------
	 SCS Same-Spin Scale       =       0.3333333333333333 [-]
	 SCS Opposite-Spin Scale   =       1.2000000000000000 [-]
	 SCS Same-Spin Energy      =      -0.2222504859759874 [Eh]
	 SCS Opposite-Spin Energy  =      -2.4565340687344861 [Eh]
	 SCS Correlation Energy    =      -2.6787845547104734 [Eh]
	 SCS Total Energy          =    -686.2696068777352139 [Eh]
	-----------------------------------------------------------



Properties will be evaluated at  -0.000000,   0.000000,  -0.000000 [a0]

Properties computed using the MP2 density matrix

  Nuclear Dipole Moment: [e a0]
     X:    -2.1107      Y:     2.4311      Z:     1.0366

  Electronic Dipole Moment: [e a0]
     X:     2.2691      Y:    -1.7710      Z:    -0.4848

  Dipole Moment: [e a0]
     X:     0.1583      Y:     0.6601      Z:     0.5517     Total:     0.8748

  Dipole Moment: [D]
     X:     0.4025      Y:     1.6778      Z:     1.4024     Total:     2.2235


*** tstop() called on node96.bme.utexas.edu at Thu Nov  5 05:43:01 2020
Module time:
	user time   =    2233.47 seconds =      37.22 minutes
	system time =      85.42 seconds =       1.42 minutes
	total time  =        551 seconds =       9.18 minutes
Total time:
	user time   =    2812.07 seconds =      46.87 minutes
	system time =     144.32 seconds =       2.41 minutes
	total time  =        733 seconds =      12.22 minutes

    Psi4 stopped on: Thursday, 05 November 2020 05:43AM
    Psi4 wall time for execution: 0:12:14.00

*** Psi4 exiting successfully. Buy a developer a beer!
