
    -----------------------------------------------------------------------
          Psi4: An Open-Source Ab Initio Electronic Structure Package
                               Psi4 1.3.2 release

                         Git: Rev {HEAD} ecbda83 


    R. M. Parrish, L. A. Burns, D. G. A. Smith, A. C. Simmonett,
    A. E. DePrince III, E. G. Hohenstein, U. Bozkaya, A. Yu. Sokolov,
    R. Di Remigio, R. M. Richard, J. F. Gonthier, A. M. James,
    H. R. McAlexander, A. Kumar, M. Saitow, X. Wang, B. P. Pritchard,
    P. Verma, H. F. Schaefer III, K. Patkowski, R. A. King, E. F. Valeev,
    F. A. Evangelista, J. M. Turney, T. D. Crawford, and C. D. Sherrill,
    J. Chem. Theory Comput. 13(7) pp 3185--3197 (2017).
    (doi: 10.1021/acs.jctc.7b00174)


                         Additional Contributions by
    P. Kraus, H. Kruse, M. H. Lechner, M. C. Schieber, R. A. Shaw,
    A. Alenaizan, R. Galvelis, Z. L. Glick, S. Lehtola, and J. P. Misiewicz

    -----------------------------------------------------------------------


    Psi4 started on: Wednesday, 04 November 2020 12:39AM

    Process ID: 100798
    Host:       node96.bme.utexas.edu
    PSIDATADIR: /home/xy3866/psi4conda/share/psi4
    Memory:     500.0 MiB
    Threads:    8
    
  ==> Input File <==

--------------------------------------------------------------------------
#psi4
#
memory 32 gb

molecule  {
0 1
  O       -0.7087550    -1.1193400    -0.2546710
  O       -0.7529000     2.5454980     0.2011280
  O        1.9863450     1.9788980    -0.3426730
  O        2.9116540    -0.6744470     0.1695670
  O        0.9157630    -2.7262860    -0.0672430
  O       -3.4138550    -0.8877920     0.1899090
  C       -0.3205170     1.2520290    -0.2382820
  C        1.1174580     1.0033160     0.2012620
  C       -1.2635033     0.2118988     0.2651874
  C        1.5822600    -0.3816350    -0.2226430
  C        0.5842790    -1.4279170     0.2862350
  C       -2.6461720     0.2016390    -0.2964840
  H       -0.3421210     1.3021240    -1.3326030
  H        1.1389810     1.0438400     1.3116400
  H       -1.2614020     0.1027960     1.3365120
  H        1.5823060    -0.4261990    -1.3195550
  H        0.5265370    -1.4152780     1.3862880
  H       -2.6088310     0.2173240    -1.3960300
  H       -3.1281770     1.1200080     0.0454480
  H       -0.8264260     2.5110960     1.1737150
  H        1.5069660     2.8252470    -0.2509780
  H        3.0031740    -0.4532420     1.1134330
  H        1.2543330    -2.7122130    -0.9803670
  H       -2.8912910    -1.6827110    -0.0238270
units angstrom
no_reorient  #important for SAPT in psi4, default
symmetry c1  #important for SAPT in psi4, default
}

set PROPERTIES_ORIGIN ["COM"]
properties('MP2/aug-cc-pvtz', properties = ['dipole'])
--------------------------------------------------------------------------

  Memory set to  29.802 GiB by Python driver.
    SCF Algorithm Type (re)set to DF.

*** tstart() called on node96.bme.utexas.edu
*** at Wed Nov  4 00:39:18 2020

   => Loading Basis Set <=

    Name: AUG-CC-PVTZ
    Role: ORBITAL
    Keyword: BASIS
    atoms 1-6   entry O          line   327 file /home/xy3866/psi4conda/share/psi4/basis/aug-cc-pvtz.gbs 
    atoms 7-12  entry C          line   235 file /home/xy3866/psi4conda/share/psi4/basis/aug-cc-pvtz.gbs 
    atoms 13-24 entry H          line    36 file /home/xy3866/psi4conda/share/psi4/basis/aug-cc-pvtz.gbs 


         ---------------------------------------------------------
                                   SCF
               by Justin Turney, Rob Parrish, Andy Simmonett
                          and Daniel G. A. Smith
                              RHF Reference
                        8 Threads,  30517 MiB Core
         ---------------------------------------------------------

  ==> Geometry <==

    Molecular point group: c1
    Full point group: C1

    Geometry (in Angstrom), charge = 0, multiplicity = 1:

       Center              X                  Y                   Z               Mass       
    ------------   -----------------  -----------------  -----------------  -----------------
         O           -0.717590535174    -1.111747046415    -0.251072849845    15.994914619570
         O           -0.761735535174     2.553090953585     0.204726150155    15.994914619570
         O            1.977509464826     1.986490953585    -0.339074849845    15.994914619570
         O            2.902818464826    -0.666854046415     0.173165150155    15.994914619570
         O            0.906927464826    -2.718693046415    -0.063644849845    15.994914619570
         O           -3.422690535174    -0.880199046415     0.193507150155    15.994914619570
         C           -0.329352535174     1.259621953585    -0.234683849845    12.000000000000
         C            1.108622464826     1.010908953585     0.204860150155    12.000000000000
         C           -1.272338835174     0.219491753585     0.268785550155    12.000000000000
         C            1.573424464826    -0.374042046415    -0.219044849845    12.000000000000
         C            0.575443464826    -1.420324046415     0.289833150155    12.000000000000
         C           -2.655007535174     0.209231953585    -0.292885849845    12.000000000000
         H           -0.350956535174     1.309716953585    -1.329004849845     1.007825032230
         H            1.130145464826     1.051432953585     1.315238150155     1.007825032230
         H           -1.270237535174     0.110388953585     1.340110150155     1.007825032230
         H            1.573470464826    -0.418606046415    -1.315956849845     1.007825032230
         H            0.517701464826    -1.407685046415     1.389886150155     1.007825032230
         H           -2.617666535174     0.224916953585    -1.392431849845     1.007825032230
         H           -3.137012535174     1.127600953585     0.049046150155     1.007825032230
         H           -0.835261535174     2.518688953585     1.177313150155     1.007825032230
         H            1.498130464826     2.832839953585    -0.247379849845     1.007825032230
         H            2.994338464826    -0.445649046415     1.117031150155     1.007825032230
         H            1.245497464826    -2.704620046415    -0.976768849845     1.007825032230
         H           -2.900126535174    -1.675118046415    -0.020228849845     1.007825032230

  Running in c1 symmetry.

  Rotational constants: A =      0.03846  B =      0.02643  C =      0.01639 [cm^-1]
  Rotational constants: A =   1152.92632  B =    792.43609  C =    491.49861 [MHz]
  Nuclear repulsion =  823.683891440305047

  Charge       = 0
  Multiplicity = 1
  Electrons    = 96
  Nalpha       = 48
  Nbeta        = 48

  ==> Algorithm <==

  SCF Algorithm Type is DF.
  DIIS enabled.
  MOM disabled.
  Fractional occupation disabled.
  Guess Type is SAD.
  Energy threshold   = 1.00e-10
  Density threshold  = 1.00e-10
  Integral threshold = 0.00e+00

  ==> Primary Basis <==

  Basis Set: AUG-CC-PVTZ
    Blend: AUG-CC-PVTZ
    Number of shells: 276
    Number of basis function: 828
    Number of Cartesian functions: 960
    Spherical Harmonics?: true
    Max angular momentum: 3

   => Loading Basis Set <=

    Name: (AUG-CC-PVTZ AUX)
    Role: JKFIT
    Keyword: DF_BASIS_SCF
    atoms 1-6   entry O          line   286 file /home/xy3866/psi4conda/share/psi4/basis/aug-cc-pvtz-jkfit.gbs 
    atoms 7-12  entry C          line   162 file /home/xy3866/psi4conda/share/psi4/basis/aug-cc-pvtz-jkfit.gbs 
    atoms 13-24 entry H          line    70 file /home/xy3866/psi4conda/share/psi4/basis/aug-cc-pvtz-jkfit.gbs 

  ==> Pre-Iterations <==

   -------------------------------------------------------
    Irrep   Nso     Nmo     Nalpha   Nbeta   Ndocc  Nsocc
   -------------------------------------------------------
     A        828     828       0       0       0       0
   -------------------------------------------------------
    Total     828     828      48      48      48       0
   -------------------------------------------------------

  ==> Integral Setup <==

  DFHelper Memory: AOs need 8.733 GiB; user supplied 22.352 GiB. Using in-core AOs.

  ==> MemDFJK: Density-Fitted J/K Matrices <==

    J tasked:                   Yes
    K tasked:                   Yes
    wK tasked:                   No
    OpenMP threads:               8
    Memory [MiB]:             22888
    Algorithm:                 Disk
    Schwarz Cutoff:           1E-12
    Mask sparsity (%):       7.2283
    Fitting Condition:        1E-10

   => Auxiliary Basis Set <=

  Basis Set: (AUG-CC-PVTZ AUX)
    Blend: AUG-CC-PVTZ-JKFIT
    Number of shells: 528
    Number of basis function: 1800
    Number of Cartesian functions: 2232
    Spherical Harmonics?: true
    Max angular momentum: 4

  Minimum eigenvalue in the overlap matrix is 1.7408469350E-06.
  Using Symmetric Orthogonalization.

  SCF Guess: Superposition of Atomic Densities via on-the-fly atomic UHF.

  ==> Iterations <==

                           Total Energy        Delta E     RMS |[F,P]|

   @DF-RHF iter SAD:  -682.89365190592116   -6.82894e+02   0.00000e+00 
   @DF-RHF iter   1:  -683.22118129980458   -3.27529e-01   1.05187e-03 DIIS
   @DF-RHF iter   2:  -683.51421528394940   -2.93034e-01   5.78498e-04 DIIS
   @DF-RHF iter   3:  -683.58777244758380   -7.35572e-02   1.08737e-04 DIIS
   @DF-RHF iter   4:  -683.59285097611166   -5.07853e-03   3.58017e-05 DIIS
   @DF-RHF iter   5:  -683.59335134862113   -5.00373e-04   7.96445e-06 DIIS
   @DF-RHF iter   6:  -683.59338853188001   -3.71833e-05   2.18669e-06 DIIS
   @DF-RHF iter   7:  -683.59339227154715   -3.73967e-06   7.84845e-07 DIIS
   @DF-RHF iter   8:  -683.59339261383025   -3.42283e-07   2.61280e-07 DIIS
   @DF-RHF iter   9:  -683.59339265602910   -4.21988e-08   6.50507e-08 DIIS
   @DF-RHF iter  10:  -683.59339265828567   -2.25657e-09   1.97849e-08 DIIS
   @DF-RHF iter  11:  -683.59339265851213   -2.26464e-10   4.51800e-09 DIIS
   @DF-RHF iter  12:  -683.59339265852441   -1.22782e-11   1.64818e-09 DIIS
   @DF-RHF iter  13:  -683.59339265852589   -1.47793e-12   6.10751e-10 DIIS
   @DF-RHF iter  14:  -683.59339265852907   -3.18323e-12   1.89814e-10 DIIS
   @DF-RHF iter  15:  -683.59339265852600    3.06954e-12   7.20204e-11 DIIS
  Energy and wave function converged.


  ==> Post-Iterations <==

    Orbital Energies [Eh]
    ---------------------

    Doubly Occupied:                                                      

       1A    -20.598818     2A    -20.579441     3A    -20.579308  
       4A    -20.577862     5A    -20.577296     6A    -20.565125  
       7A    -11.350818     8A    -11.313905     9A    -11.311546  
      10A    -11.311031    11A    -11.302623    12A    -11.289886  
      13A     -1.426266    14A     -1.406820    15A     -1.385591  
      16A     -1.369841    17A     -1.365969    18A     -1.338595  
      19A     -1.085936    20A     -1.052775    21A     -0.949984  
      22A     -0.888068    23A     -0.853729    24A     -0.844715  
      25A     -0.750277    26A     -0.725014    27A     -0.720807  
      28A     -0.709559    29A     -0.691369    30A     -0.676873  
      31A     -0.654440    32A     -0.652308    33A     -0.622678  
      34A     -0.614538    35A     -0.597361    36A     -0.589633  
      37A     -0.568868    38A     -0.557970    39A     -0.555213  
      40A     -0.545310    41A     -0.520716    42A     -0.507873  
      43A     -0.502599    44A     -0.484058    45A     -0.474640  
      46A     -0.466873    47A     -0.451296    48A     -0.431906  

    Virtual:                                                              

      49A      0.018651    50A      0.030478    51A      0.034228  
      52A      0.037023    53A      0.046931    54A      0.050749  
      55A      0.051294    56A      0.053794    57A      0.059481  
      58A      0.072072    59A      0.074179    60A      0.076400  
      61A      0.096049    62A      0.100803    63A      0.110121  
      64A      0.110895    65A      0.112893    66A      0.116001  
      67A      0.121506    68A      0.124891    69A      0.130471  
      70A      0.131814    71A      0.137150    72A      0.139499  
      73A      0.141230    74A      0.141890    75A      0.153212  
      76A      0.154104    77A      0.157907    78A      0.159692  
      79A      0.171947    80A      0.182645    81A      0.184754  
      82A      0.187672    83A      0.192516    84A      0.199011  
      85A      0.205741    86A      0.216360    87A      0.218499  
      88A      0.228328    89A      0.230868    90A      0.239214  
      91A      0.239975    92A      0.247474    93A      0.248868  
      94A      0.251690    95A      0.257834    96A      0.259908  
      97A      0.263337    98A      0.264846    99A      0.271843  
     100A      0.274150   101A      0.279179   102A      0.287395  
     103A      0.289985   104A      0.293026   105A      0.297891  
     106A      0.299674   107A      0.302648   108A      0.310913  
     109A      0.312408   110A      0.319377   111A      0.324544  
     112A      0.328265   113A      0.330225   114A      0.334557  
     115A      0.346960   116A      0.349397   117A      0.352939  
     118A      0.356022   119A      0.358788   120A      0.370259  
     121A      0.374373   122A      0.375749   123A      0.383268  
     124A      0.389914   125A      0.394877   126A      0.399499  
     127A      0.401855   128A      0.405981   129A      0.413529  
     130A      0.417313   131A      0.419768   132A      0.425208  
     133A      0.427719   134A      0.434817   135A      0.438814  
     136A      0.439257   137A      0.445455   138A      0.450923  
     139A      0.455432   140A      0.457046   141A      0.463432  
     142A      0.467179   143A      0.467909   144A      0.472456  
     145A      0.480406   146A      0.488168   147A      0.492965  
     148A      0.495475   149A      0.500485   150A      0.503428  
     151A      0.510612   152A      0.515855   153A      0.516903  
     154A      0.521934   155A      0.524699   156A      0.527524  
     157A      0.529733   158A      0.531697   159A      0.542222  
     160A      0.542884   161A      0.545525   162A      0.549819  
     163A      0.558856   164A      0.562744   165A      0.569632  
     166A      0.575318   167A      0.582561   168A      0.584912  
     169A      0.587895   170A      0.590255   171A      0.591289  
     172A      0.595128   173A      0.600821   174A      0.611413  
     175A      0.617305   176A      0.620770   177A      0.622358  
     178A      0.627667   179A      0.635097   180A      0.639741  
     181A      0.647529   182A      0.653094   183A      0.655709  
     184A      0.664807   185A      0.669120   186A      0.675751  
     187A      0.678596   188A      0.688066   189A      0.695739  
     190A      0.702584   191A      0.705134   192A      0.713437  
     193A      0.721341   194A      0.724459   195A      0.729301  
     196A      0.742683   197A      0.749693   198A      0.756944  
     199A      0.766358   200A      0.768893   201A      0.778509  
     202A      0.786606   203A      0.796412   204A      0.805209  
     205A      0.808713   206A      0.814451   207A      0.827106  
     208A      0.831447   209A      0.838081   210A      0.840888  
     211A      0.846361   212A      0.853425   213A      0.859671  
     214A      0.865105   215A      0.872470   216A      0.877703  
     217A      0.883101   218A      0.892584   219A      0.897980  
     220A      0.905488   221A      0.909094   222A      0.913046  
     223A      0.920226   224A      0.926255   225A      0.932328  
     226A      0.938403   227A      0.945392   228A      0.948713  
     229A      0.956453   230A      0.963496   231A      0.965716  
     232A      0.968240   233A      0.973978   234A      0.984782  
     235A      0.994271   236A      0.998797   237A      1.004905  
     238A      1.006919   239A      1.015829   240A      1.018905  
     241A      1.027720   242A      1.035080   243A      1.047865  
     244A      1.048924   245A      1.052144   246A      1.054211  
     247A      1.059801   248A      1.061206   249A      1.069185  
     250A      1.071510   251A      1.078313   252A      1.081051  
     253A      1.094182   254A      1.097828   255A      1.102677  
     256A      1.106754   257A      1.109182   258A      1.111898  
     259A      1.116921   260A      1.121998   261A      1.133889  
     262A      1.143192   263A      1.146633   264A      1.148715  
     265A      1.150571   266A      1.157089   267A      1.167304  
     268A      1.171081   269A      1.174357   270A      1.181309  
     271A      1.187004   272A      1.192954   273A      1.194672  
     274A      1.195214   275A      1.209707   276A      1.217797  
     277A      1.220078   278A      1.223100   279A      1.229884  
     280A      1.238912   281A      1.242210   282A      1.254048  
     283A      1.259361   284A      1.269639   285A      1.279123  
     286A      1.283887   287A      1.286463   288A      1.290692  
     289A      1.296712   290A      1.302544   291A      1.306571  
     292A      1.316287   293A      1.322538   294A      1.331863  
     295A      1.338880   296A      1.342972   297A      1.347334  
     298A      1.358510   299A      1.366536   300A      1.381275  
     301A      1.383136   302A      1.393365   303A      1.402597  
     304A      1.404867   305A      1.408190   306A      1.410743  
     307A      1.424734   308A      1.428480   309A      1.440032  
     310A      1.444497   311A      1.447237   312A      1.461567  
     313A      1.465476   314A      1.468375   315A      1.475193  
     316A      1.482283   317A      1.484463   318A      1.501041  
     319A      1.508442   320A      1.513428   321A      1.520563  
     322A      1.533521   323A      1.540816   324A      1.551470  
     325A      1.556574   326A      1.560852   327A      1.568695  
     328A      1.571152   329A      1.579202   330A      1.587211  
     331A      1.589487   332A      1.595715   333A      1.599779  
     334A      1.609201   335A      1.612357   336A      1.615027  
     337A      1.630755   338A      1.640169   339A      1.648202  
     340A      1.654901   341A      1.657258   342A      1.659706  
     343A      1.674236   344A      1.680124   345A      1.689489  
     346A      1.692660   347A      1.699335   348A      1.703694  
     349A      1.712570   350A      1.722249   351A      1.729484  
     352A      1.732674   353A      1.746177   354A      1.755691  
     355A      1.763012   356A      1.771543   357A      1.772663  
     358A      1.775745   359A      1.784065   360A      1.789145  
     361A      1.795849   362A      1.799284   363A      1.809167  
     364A      1.819739   365A      1.824926   366A      1.828143  
     367A      1.833223   368A      1.845288   369A      1.852404  
     370A      1.862129   371A      1.867392   372A      1.873491  
     373A      1.877343   374A      1.882510   375A      1.888593  
     376A      1.900123   377A      1.910710   378A      1.921011  
     379A      1.922909   380A      1.936627   381A      1.939484  
     382A      1.950166   383A      1.951996   384A      1.957639  
     385A      1.965377   386A      1.973915   387A      1.986474  
     388A      1.996664   389A      2.004684   390A      2.008928  
     391A      2.017653   392A      2.024892   393A      2.038604  
     394A      2.044425   395A      2.048950   396A      2.054625  
     397A      2.064564   398A      2.071336   399A      2.079115  
     400A      2.086717   401A      2.097774   402A      2.110155  
     403A      2.115339   404A      2.124096   405A      2.131235  
     406A      2.135481   407A      2.158233   408A      2.163990  
     409A      2.172020   410A      2.177461   411A      2.184931  
     412A      2.192304   413A      2.202930   414A      2.207692  
     415A      2.215351   416A      2.226899   417A      2.241960  
     418A      2.246415   419A      2.263295   420A      2.274350  
     421A      2.288619   422A      2.297487   423A      2.307737  
     424A      2.315829   425A      2.324590   426A      2.335133  
     427A      2.358950   428A      2.365152   429A      2.390956  
     430A      2.396957   431A      2.404008   432A      2.419642  
     433A      2.434048   434A      2.439068   435A      2.445585  
     436A      2.456130   437A      2.470218   438A      2.487737  
     439A      2.494341   440A      2.498944   441A      2.520107  
     442A      2.528816   443A      2.541476   444A      2.548873  
     445A      2.563361   446A      2.576265   447A      2.595083  
     448A      2.606488   449A      2.615681   450A      2.641130  
     451A      2.644165   452A      2.651343   453A      2.660345  
     454A      2.677020   455A      2.680342   456A      2.706526  
     457A      2.713375   458A      2.718232   459A      2.731173  
     460A      2.739861   461A      2.763175   462A      2.781846  
     463A      2.790796   464A      2.793112   465A      2.806633  
     466A      2.812851   467A      2.817394   468A      2.822658  
     469A      2.847652   470A      2.861239   471A      2.866027  
     472A      2.870957   473A      2.887383   474A      2.895916  
     475A      2.898098   476A      2.918267   477A      2.928759  
     478A      2.941124   479A      2.946023   480A      2.955835  
     481A      2.967119   482A      2.971192   483A      2.987842  
     484A      2.998564   485A      3.005256   486A      3.013205  
     487A      3.021517   488A      3.031081   489A      3.053005  
     490A      3.059679   491A      3.060573   492A      3.065270  
     493A      3.077392   494A      3.088129   495A      3.100358  
     496A      3.104770   497A      3.117476   498A      3.130399  
     499A      3.143286   500A      3.158074   501A      3.166474  
     502A      3.174896   503A      3.178270   504A      3.188875  
     505A      3.199205   506A      3.205990   507A      3.217466  
     508A      3.231906   509A      3.246229   510A      3.256648  
     511A      3.268414   512A      3.277315   513A      3.290062  
     514A      3.303017   515A      3.315875   516A      3.328636  
     517A      3.330035   518A      3.344896   519A      3.364004  
     520A      3.382585   521A      3.396346   522A      3.410726  
     523A      3.430237   524A      3.459291   525A      3.482270  
     526A      3.502968   527A      3.519952   528A      3.538994  
     529A      3.565193   530A      3.588184   531A      3.599414  
     532A      3.617104   533A      3.625542   534A      3.642966  
     535A      3.652187   536A      3.656084   537A      3.690168  
     538A      3.703158   539A      3.721092   540A      3.727739  
     541A      3.745314   542A      3.755701   543A      3.774512  
     544A      3.781816   545A      3.802940   546A      3.813043  
     547A      3.839675   548A      3.860563   549A      3.861151  
     550A      3.880392   551A      3.882814   552A      3.891707  
     553A      3.903661   554A      3.904710   555A      3.924544  
     556A      3.945251   557A      3.951853   558A      3.960273  
     559A      3.981238   560A      3.988715   561A      4.006360  
     562A      4.014851   563A      4.015353   564A      4.041506  
     565A      4.051183   566A      4.057084   567A      4.074927  
     568A      4.079576   569A      4.084391   570A      4.095554  
     571A      4.101752   572A      4.110016   573A      4.117953  
     574A      4.130666   575A      4.138628   576A      4.148659  
     577A      4.153653   578A      4.168096   579A      4.170119  
     580A      4.179061   581A      4.200183   582A      4.213200  
     583A      4.230229   584A      4.232072   585A      4.238576  
     586A      4.254353   587A      4.270754   588A      4.289580  
     589A      4.299684   590A      4.306513   591A      4.316474  
     592A      4.330791   593A      4.338117   594A      4.354711  
     595A      4.359136   596A      4.374816   597A      4.388593  
     598A      4.393836   599A      4.414687   600A      4.416406  
     601A      4.430638   602A      4.453239   603A      4.466234  
     604A      4.474799   605A      4.483416   606A      4.491821  
     607A      4.510784   608A      4.522984   609A      4.527886  
     610A      4.542258   611A      4.547499   612A      4.564822  
     613A      4.569384   614A      4.577527   615A      4.589938  
     616A      4.603980   617A      4.615023   618A      4.622329  
     619A      4.631935   620A      4.637933   621A      4.652539  
     622A      4.665445   623A      4.673790   624A      4.687200  
     625A      4.706412   626A      4.723809   627A      4.726312  
     628A      4.731028   629A      4.739670   630A      4.756913  
     631A      4.768507   632A      4.781921   633A      4.791076  
     634A      4.809711   635A      4.819169   636A      4.824035  
     637A      4.847948   638A      4.863615   639A      4.877468  
     640A      4.886146   641A      4.899026   642A      4.912542  
     643A      4.916137   644A      4.918639   645A      4.943890  
     646A      4.961356   647A      4.965716   648A      4.990403  
     649A      5.000621   650A      5.001138   651A      5.017025  
     652A      5.038130   653A      5.038813   654A      5.047958  
     655A      5.060602   656A      5.072530   657A      5.077952  
     658A      5.097514   659A      5.114883   660A      5.117926  
     661A      5.123033   662A      5.135377   663A      5.149645  
     664A      5.152581   665A      5.179698   666A      5.186510  
     667A      5.200979   668A      5.213535   669A      5.230840  
     670A      5.252018   671A      5.266584   672A      5.276198  
     673A      5.293893   674A      5.307394   675A      5.318180  
     676A      5.338259   677A      5.357977   678A      5.361868  
     679A      5.379506   680A      5.389563   681A      5.397933  
     682A      5.408333   683A      5.426740   684A      5.435574  
     685A      5.444894   686A      5.474380   687A      5.485998  
     688A      5.488631   689A      5.502548   690A      5.515359  
     691A      5.519283   692A      5.532035   693A      5.552974  
     694A      5.560515   695A      5.578260   696A      5.598360  
     697A      5.604211   698A      5.627739   699A      5.645567  
     700A      5.654444   701A      5.666161   702A      5.677840  
     703A      5.696914   704A      5.736738   705A      5.740334  
     706A      5.750666   707A      5.757804   708A      5.780024  
     709A      5.813413   710A      5.817238   711A      5.833826  
     712A      5.848391   713A      5.901658   714A      5.921539  
     715A      5.936937   716A      5.986640   717A      6.001411  
     718A      6.028021   719A      6.057391   720A      6.069358  
     721A      6.099677   722A      6.126884   723A      6.144716  
     724A      6.213364   725A      6.234266   726A      6.291718  
     727A      6.307500   728A      6.319388   729A      6.340542  
     730A      6.375585   731A      6.420516   732A      6.530291  
     733A      6.578736   734A      6.643575   735A      6.698920  
     736A      6.718353   737A      6.722259   738A      6.734714  
     739A      6.763431   740A      6.779552   741A      6.792515  
     742A      6.839010   743A      6.858607   744A      6.911776  
     745A      6.963829   746A      6.983219   747A      6.996121  
     748A      7.006694   749A      7.014373   750A      7.033504  
     751A      7.044165   752A      7.052403   753A      7.059916  
     754A      7.083154   755A      7.115300   756A      7.134729  
     757A      7.143964   758A      7.151783   759A      7.156477  
     760A      7.169285   761A      7.189163   762A      7.284427  
     763A      7.322127   764A      7.325887   765A      7.335624  
     766A      7.339038   767A      7.346094   768A      7.366312  
     769A      7.388655   770A      7.400775   771A      7.409415  
     772A      7.413675   773A      7.439423   774A      7.458727  
     775A      7.488939   776A      7.505703   777A      7.514839  
     778A      7.524563   779A      7.546331   780A      7.553937  
     781A      7.564951   782A      7.579837   783A      7.594546  
     784A      7.615620   785A      7.616539   786A      7.691490  
     787A      7.717728   788A      7.729795   789A      7.774814  
     790A      7.788756   791A      7.802122   792A      7.831693  
     793A      7.861977   794A      7.874994   795A      7.889881  
     796A      7.921846   797A      7.932863   798A      7.975336  
     799A      8.002510   800A      8.038829   801A      8.047140  
     802A      8.060604   803A      8.112351   804A      8.153653  
     805A      8.253742   806A      8.276677   807A      8.312968  
     808A      8.329514   809A      8.350249   810A      8.432952  
     811A      8.519669   812A      8.607247   813A      8.652205  
     814A      8.680972   815A      8.702999   816A      8.738374  
     817A     16.223110   818A     16.296925   819A     16.628950  
     820A     17.014701   821A     17.149523   822A     17.381003  
     823A     18.695138   824A     18.781372   825A     18.948642  
     826A     19.021582   827A     19.799845   828A     20.541489  

    Final Occupation by Irrep:
              A 
    DOCC [    48 ]

  @DF-RHF Final Energy:  -683.59339265852600

   => Energetics <=

    Nuclear Repulsion Energy =            823.6838914403050467
    One-Electron Energy =               -2575.7583111552039554
    Two-Electron Energy =                1068.4810270563727954
    Total Energy =                       -683.5933926585259997

Computation Completed

*** tstop() called on node96.bme.utexas.edu at Wed Nov  4 00:44:22 2020
Module time:
	user time   =     583.77 seconds =       9.73 minutes
	system time =      62.46 seconds =       1.04 minutes
	total time  =        304 seconds =       5.07 minutes
Total time:
	user time   =     583.77 seconds =       9.73 minutes
	system time =      62.46 seconds =       1.04 minutes
	total time  =        304 seconds =       5.07 minutes
   => Loading Basis Set <=

    Name: (AUG-CC-PVTZ AUX)
    Role: RIFIT
    Keyword: DF_BASIS_MP2
    atoms 1-6   entry O          line   264 file /home/xy3866/psi4conda/share/psi4/basis/aug-cc-pvtz-ri.gbs 
    atoms 7-12  entry C          line   148 file /home/xy3866/psi4conda/share/psi4/basis/aug-cc-pvtz-ri.gbs 
    atoms 13-24 entry H          line    30 file /home/xy3866/psi4conda/share/psi4/basis/aug-cc-pvtz-ri.gbs 


*** tstart() called on node96.bme.utexas.edu
*** at Wed Nov  4 00:44:22 2020


  //>>>>>>>>>>>>>>>>>>>>>>>>>>>>>>>>>>>//
  //               DFMP2               //
  //<<<<<<<<<<<<<<<<<<<<<<<<<<<<<<<<<<<//

	 --------------------------------------------------------
	                          DF-MP2                         
	      2nd-Order Density-Fitted Moller-Plesset Theory     
	              RMP2 Wavefunction,   8 Threads             
	                                                         
	        Rob Parrish, Justin Turney, Andy Simmonett,      
	           Ed Hohenstein, and C. David Sherrill          
	 --------------------------------------------------------

   => Auxiliary Basis Set <=

  Basis Set: (AUG-CC-PVTZ AUX)
    Blend: AUG-CC-PVTZ-RI
    Number of shells: 504
    Number of basis function: 1824
    Number of Cartesian functions: 2292
    Spherical Harmonics?: true
    Max angular momentum: 4

	 --------------------------------------------------------
	                 NBF =   828, NAUX =  1824
	 --------------------------------------------------------
	   CLASS    FOCC     OCC    AOCC    AVIR     VIR    FVIR
	   PAIRS       0      48      48     780     780       0
	 --------------------------------------------------------

  DFHelper Memory: AOs need 8.733 GiB; user supplied 22.352 GiB. Using in-core AOs.


         ------------------------------------------------------------
                                     CPHF                           
                                  Rob Parrish                       
         ------------------------------------------------------------

  ==> Geometry <==

    Molecular point group: c1
    Full point group: C1

    Geometry (in Angstrom), charge = 0, multiplicity = 1:

       Center              X                  Y                   Z               Mass       
    ------------   -----------------  -----------------  -----------------  -----------------
         O           -0.717590535174    -1.111747046415    -0.251072849845    15.994914619570
         O           -0.761735535174     2.553090953585     0.204726150155    15.994914619570
         O            1.977509464826     1.986490953585    -0.339074849845    15.994914619570
         O            2.902818464826    -0.666854046415     0.173165150155    15.994914619570
         O            0.906927464826    -2.718693046415    -0.063644849845    15.994914619570
         O           -3.422690535174    -0.880199046415     0.193507150155    15.994914619570
         C           -0.329352535174     1.259621953585    -0.234683849845    12.000000000000
         C            1.108622464826     1.010908953585     0.204860150155    12.000000000000
         C           -1.272338835174     0.219491753585     0.268785550155    12.000000000000
         C            1.573424464826    -0.374042046415    -0.219044849845    12.000000000000
         C            0.575443464826    -1.420324046415     0.289833150155    12.000000000000
         C           -2.655007535174     0.209231953585    -0.292885849845    12.000000000000
         H           -0.350956535174     1.309716953585    -1.329004849845     1.007825032230
         H            1.130145464826     1.051432953585     1.315238150155     1.007825032230
         H           -1.270237535174     0.110388953585     1.340110150155     1.007825032230
         H            1.573470464826    -0.418606046415    -1.315956849845     1.007825032230
         H            0.517701464826    -1.407685046415     1.389886150155     1.007825032230
         H           -2.617666535174     0.224916953585    -1.392431849845     1.007825032230
         H           -3.137012535174     1.127600953585     0.049046150155     1.007825032230
         H           -0.835261535174     2.518688953585     1.177313150155     1.007825032230
         H            1.498130464826     2.832839953585    -0.247379849845     1.007825032230
         H            2.994338464826    -0.445649046415     1.117031150155     1.007825032230
         H            1.245497464826    -2.704620046415    -0.976768849845     1.007825032230
         H           -2.900126535174    -1.675118046415    -0.020228849845     1.007825032230

  Nuclear repulsion =  823.683891440305047
  Reference energy  = -683.593392658526000

  ==> Basis Set <==

  Basis Set: AUG-CC-PVTZ
    Blend: AUG-CC-PVTZ
    Number of shells: 276
    Number of basis function: 828
    Number of Cartesian functions: 960
    Spherical Harmonics?: true
    Max angular momentum: 3

  ==> CGRSolver (by Rob Parrish) <==

   Number of roots    =         1
   Preconditioning    =    JACOBI
   Convergence cutoff =     1E-06
   Maximum iterations =       100

  ==> CPHFRHamiltonian (by Rob Parrish) <== 

  ==> MemDFJK: Density-Fitted J/K Matrices <==

    J tasked:                   Yes
    K tasked:                   Yes
    wK tasked:                   No
    OpenMP threads:               8
    Memory [MiB]:             22888
    Algorithm:                 Disk
    Schwarz Cutoff:           1E-12
    Mask sparsity (%):       7.2283
    Fitting Condition:        1E-10

   => Auxiliary Basis Set <=

  Basis Set: (AUG-CC-PVTZ AUX)
    Blend: AUG-CC-PVTZ-JKFIT
    Number of shells: 528
    Number of basis function: 1800
    Number of Cartesian functions: 2232
    Spherical Harmonics?: true
    Max angular momentum: 4

  ==> CPHF Iterations <==

  => Iterations <=

             Iter  Converged  Remaining    Residual
  CGR           1          0          1   8.570E-02
  CGR           2          0          1   1.968E-02
  CGR           3          0          1   7.742E-03
  CGR           4          0          1   1.932E-03
  CGR           5          0          1   5.591E-04
  CGR           6          0          1   2.045E-04
  CGR           7          0          1   6.236E-05
  CGR           8          0          1   2.384E-05
  CGR           9          0          1   7.797E-06
  CGR          10          0          1   2.294E-06
  CGR          11          1          0   7.693E-07

    CGRSolver converged.

	-----------------------------------------------------------
	 ==================> DF-MP2 Energies <==================== 
	-----------------------------------------------------------
	 Reference Energy          =    -683.5933926585259997 [Eh]
	 Singles Energy            =      -0.0000000000000000 [Eh]
	 Same-Spin Energy          =      -0.6661845855702916 [Eh]
	 Opposite-Spin Energy      =      -2.0471413973028389 [Eh]
	 Correlation Energy        =      -2.7133259828731306 [Eh]
	 Total Energy              =    -686.3067186413991294 [Eh]
	-----------------------------------------------------------
	 ================> DF-SCS-MP2 Energies <================== 
	-----------------------------------------------------------
	 SCS Same-Spin Scale       =       0.3333333333333333 [-]
	 SCS Opposite-Spin Scale   =       1.2000000000000000 [-]
	 SCS Same-Spin Energy      =      -0.2220615285234305 [Eh]
	 SCS Opposite-Spin Energy  =      -2.4565696767634067 [Eh]
	 SCS Correlation Energy    =      -2.6786312052868371 [Eh]
	 SCS Total Energy          =    -686.2720238638128194 [Eh]
	-----------------------------------------------------------



Properties will be evaluated at   0.000000,   0.000000,   0.000000 [a0]

Properties computed using the MP2 density matrix

  Nuclear Dipole Moment: [e a0]
     X:    -2.0132      Y:     2.3621      Z:     1.0372

  Electronic Dipole Moment: [e a0]
     X:     2.0409      Y:    -1.6373      Z:    -0.4721

  Dipole Moment: [e a0]
     X:     0.0277      Y:     0.7248      Z:     0.5652     Total:     0.9195

  Dipole Moment: [D]
     X:     0.0704      Y:     1.8422      Z:     1.4365     Total:     2.3371


*** tstop() called on node96.bme.utexas.edu at Wed Nov  4 00:54:57 2020
Module time:
	user time   =    2394.40 seconds =      39.91 minutes
	system time =      82.42 seconds =       1.37 minutes
	total time  =        635 seconds =      10.58 minutes
Total time:
	user time   =    2978.86 seconds =      49.65 minutes
	system time =     144.91 seconds =       2.42 minutes
	total time  =        939 seconds =      15.65 minutes

    Psi4 stopped on: Wednesday, 04 November 2020 12:54AM
    Psi4 wall time for execution: 0:15:39.23

*** Psi4 exiting successfully. Buy a developer a beer!
