
    -----------------------------------------------------------------------
          Psi4: An Open-Source Ab Initio Electronic Structure Package
                               Psi4 1.3.2 release

                         Git: Rev {HEAD} ecbda83 


    R. M. Parrish, L. A. Burns, D. G. A. Smith, A. C. Simmonett,
    A. E. DePrince III, E. G. Hohenstein, U. Bozkaya, A. Yu. Sokolov,
    R. Di Remigio, R. M. Richard, J. F. Gonthier, A. M. James,
    H. R. McAlexander, A. Kumar, M. Saitow, X. Wang, B. P. Pritchard,
    P. Verma, H. F. Schaefer III, K. Patkowski, R. A. King, E. F. Valeev,
    F. A. Evangelista, J. M. Turney, T. D. Crawford, and C. D. Sherrill,
    J. Chem. Theory Comput. 13(7) pp 3185--3197 (2017).
    (doi: 10.1021/acs.jctc.7b00174)


                         Additional Contributions by
    P. Kraus, H. Kruse, M. H. Lechner, M. C. Schieber, R. A. Shaw,
    A. Alenaizan, R. Galvelis, Z. L. Glick, S. Lehtola, and J. P. Misiewicz

    -----------------------------------------------------------------------


    Psi4 started on: Thursday, 05 November 2020 08:06AM

    Process ID: 40392
    Host:       node96.bme.utexas.edu
    PSIDATADIR: /home/xy3866/psi4conda/share/psi4
    Memory:     500.0 MiB
    Threads:    8
    
  ==> Input File <==

--------------------------------------------------------------------------
#psi4
#
memory 32 gb

molecule  {
0 1
  O       -0.7087550    -1.1193400    -0.2546710
  O       -0.7529000     2.5454980     0.2011280
  O        1.9863450     1.9788980    -0.3426730
  O        2.9116540    -0.6744470     0.1695670
  O        0.9157630    -2.7262860    -0.0672430
  O       -3.4138550    -0.8877920     0.1899090
  C       -0.3205170     1.2520290    -0.2382820
  C        1.1174580     1.0033160     0.2012620
  C       -1.2273170     0.1250620     0.2312770
  C        1.5822600    -0.3816350    -0.2226430
  C        0.5912911    -1.4203921     0.2643435
  C       -2.6461720     0.2016390    -0.2964840
  H       -0.3421210     1.3021240    -1.3326030
  H        1.1389810     1.0438400     1.3116400
  H       -1.2614020     0.1027960     1.3365120
  H        1.5823060    -0.4261990    -1.3195550
  H        0.5265370    -1.4152780     1.3862880
  H       -2.6088310     0.2173240    -1.3960300
  H       -3.1281770     1.1200080     0.0454480
  H       -0.8264260     2.5110960     1.1737150
  H        1.5069660     2.8252470    -0.2509780
  H        3.0031740    -0.4532420     1.1134330
  H        1.2543330    -2.7122130    -0.9803670
  H       -2.8912910    -1.6827110    -0.0238270
units angstrom
no_reorient  #important for SAPT in psi4, default
symmetry c1  #important for SAPT in psi4, default
}

set PROPERTIES_ORIGIN ["COM"]
properties('MP2/aug-cc-pvtz', properties = ['dipole'])
--------------------------------------------------------------------------

  Memory set to  29.802 GiB by Python driver.
    SCF Algorithm Type (re)set to DF.

*** tstart() called on node96.bme.utexas.edu
*** at Thu Nov  5 08:06:09 2020

   => Loading Basis Set <=

    Name: AUG-CC-PVTZ
    Role: ORBITAL
    Keyword: BASIS
    atoms 1-6   entry O          line   327 file /home/xy3866/psi4conda/share/psi4/basis/aug-cc-pvtz.gbs 
    atoms 7-12  entry C          line   235 file /home/xy3866/psi4conda/share/psi4/basis/aug-cc-pvtz.gbs 
    atoms 13-24 entry H          line    36 file /home/xy3866/psi4conda/share/psi4/basis/aug-cc-pvtz.gbs 


         ---------------------------------------------------------
                                   SCF
               by Justin Turney, Rob Parrish, Andy Simmonett
                          and Daniel G. A. Smith
                              RHF Reference
                        8 Threads,  30517 MiB Core
         ---------------------------------------------------------

  ==> Geometry <==

    Molecular point group: c1
    Full point group: C1

    Geometry (in Angstrom), charge = 0, multiplicity = 1:

       Center              X                  Y                   Z               Mass       
    ------------   -----------------  -----------------  -----------------  -----------------
         O           -0.720469414692    -1.106461447771    -0.247354032782    15.994914619570
         O           -0.764614414692     2.558376552229     0.208444967218    15.994914619570
         O            1.974630585308     1.991776552229    -0.335356032782    15.994914619570
         O            2.899939585308    -0.661568447771     0.176883967218    15.994914619570
         O            0.904048585308    -2.713407447771    -0.059926032782    15.994914619570
         O           -3.425569414692    -0.874913447771     0.197225967218    15.994914619570
         C           -0.332231414692     1.264907552229    -0.230965032782    12.000000000000
         C            1.105743585308     1.016194552229     0.208578967218    12.000000000000
         C           -1.239031414692     0.137940552229     0.238593967218    12.000000000000
         C            1.570545585308    -0.368756447771    -0.215326032782    12.000000000000
         C            0.579576685308    -1.407513547771     0.271660467218    12.000000000000
         C           -2.657886414692     0.214517552229    -0.289167032782    12.000000000000
         H           -0.353835414692     1.315002552229    -1.325286032782     1.007825032230
         H            1.127266585308     1.056718552229     1.318956967218     1.007825032230
         H           -1.273116414692     0.115674552229     1.343828967218     1.007825032230
         H            1.570591585308    -0.413320447771    -1.312238032782     1.007825032230
         H            0.514822585308    -1.402399447771     1.393604967218     1.007825032230
         H           -2.620545414692     0.230202552229    -1.388713032782     1.007825032230
         H           -3.139891414692     1.132886552229     0.052764967218     1.007825032230
         H           -0.838140414692     2.523974552229     1.181031967218     1.007825032230
         H            1.495251585308     2.838125552229    -0.243661032782     1.007825032230
         H            2.991459585308    -0.440363447771     1.120749967218     1.007825032230
         H            1.242618585308    -2.699334447771    -0.973050032782     1.007825032230
         H           -2.903005414692    -1.669832447771    -0.016510032782     1.007825032230

  Running in c1 symmetry.

  Rotational constants: A =      0.03855  B =      0.02649  C =      0.01642 [cm^-1]
  Rotational constants: A =   1155.56437  B =    794.08178  C =    492.27795 [MHz]
  Nuclear repulsion =  824.936816933399541

  Charge       = 0
  Multiplicity = 1
  Electrons    = 96
  Nalpha       = 48
  Nbeta        = 48

  ==> Algorithm <==

  SCF Algorithm Type is DF.
  DIIS enabled.
  MOM disabled.
  Fractional occupation disabled.
  Guess Type is SAD.
  Energy threshold   = 1.00e-10
  Density threshold  = 1.00e-10
  Integral threshold = 0.00e+00

  ==> Primary Basis <==

  Basis Set: AUG-CC-PVTZ
    Blend: AUG-CC-PVTZ
    Number of shells: 276
    Number of basis function: 828
    Number of Cartesian functions: 960
    Spherical Harmonics?: true
    Max angular momentum: 3

   => Loading Basis Set <=

    Name: (AUG-CC-PVTZ AUX)
    Role: JKFIT
    Keyword: DF_BASIS_SCF
    atoms 1-6   entry O          line   286 file /home/xy3866/psi4conda/share/psi4/basis/aug-cc-pvtz-jkfit.gbs 
    atoms 7-12  entry C          line   162 file /home/xy3866/psi4conda/share/psi4/basis/aug-cc-pvtz-jkfit.gbs 
    atoms 13-24 entry H          line    70 file /home/xy3866/psi4conda/share/psi4/basis/aug-cc-pvtz-jkfit.gbs 

  ==> Pre-Iterations <==

   -------------------------------------------------------
    Irrep   Nso     Nmo     Nalpha   Nbeta   Ndocc  Nsocc
   -------------------------------------------------------
     A        828     828       0       0       0       0
   -------------------------------------------------------
    Total     828     828      48      48      48       0
   -------------------------------------------------------

  ==> Integral Setup <==

  DFHelper Memory: AOs need 8.734 GiB; user supplied 22.352 GiB. Using in-core AOs.

  ==> MemDFJK: Density-Fitted J/K Matrices <==

    J tasked:                   Yes
    K tasked:                   Yes
    wK tasked:                   No
    OpenMP threads:               8
    Memory [MiB]:             22888
    Algorithm:                 Disk
    Schwarz Cutoff:           1E-12
    Mask sparsity (%):       7.2195
    Fitting Condition:        1E-10

   => Auxiliary Basis Set <=

  Basis Set: (AUG-CC-PVTZ AUX)
    Blend: AUG-CC-PVTZ-JKFIT
    Number of shells: 528
    Number of basis function: 1800
    Number of Cartesian functions: 2232
    Spherical Harmonics?: true
    Max angular momentum: 4

  Minimum eigenvalue in the overlap matrix is 1.7619547152E-06.
  Using Symmetric Orthogonalization.

  SCF Guess: Superposition of Atomic Densities via on-the-fly atomic UHF.

  ==> Iterations <==

                           Total Energy        Delta E     RMS |[F,P]|

   @DF-RHF iter SAD:  -682.99023146600280   -6.82990e+02   0.00000e+00 
   @DF-RHF iter   1:  -683.23160899777395   -2.41378e-01   1.05108e-03 DIIS
   @DF-RHF iter   2:  -683.52422480827113   -2.92616e-01   5.76730e-04 DIIS
   @DF-RHF iter   3:  -683.59732418070882   -7.30994e-02   1.08361e-04 DIIS
   @DF-RHF iter   4:  -683.60237043548943   -5.04625e-03   3.59072e-05 DIIS
   @DF-RHF iter   5:  -683.60287191279417   -5.01477e-04   8.10885e-06 DIIS
   @DF-RHF iter   6:  -683.60290967008018   -3.77573e-05   2.29694e-06 DIIS
   @DF-RHF iter   7:  -683.60291350007424   -3.82999e-06   9.22036e-07 DIIS
   @DF-RHF iter   8:  -683.60291391219107   -4.12117e-07   2.78682e-07 DIIS
   @DF-RHF iter   9:  -683.60291396235186   -5.01608e-08   7.18152e-08 DIIS
   @DF-RHF iter  10:  -683.60291396512980   -2.77794e-09   2.13602e-08 DIIS
   @DF-RHF iter  11:  -683.60291396538753   -2.57728e-10   5.98787e-09 DIIS
   @DF-RHF iter  12:  -683.60291396541095   -2.34195e-11   2.63172e-09 DIIS
   @DF-RHF iter  13:  -683.60291396541436   -3.41061e-12   6.86302e-10 DIIS
   @DF-RHF iter  14:  -683.60291396541561   -1.25056e-12   1.91996e-10 DIIS
   @DF-RHF iter  15:  -683.60291396541265    2.95586e-12   7.29028e-11 DIIS
  Energy and wave function converged.


  ==> Post-Iterations <==

    Orbital Energies [Eh]
    ---------------------

    Doubly Occupied:                                                      

       1A    -20.598585     2A    -20.589010     3A    -20.584717  
       4A    -20.579927     5A    -20.577844     6A    -20.562843  
       7A    -11.357575     8A    -11.310946     9A    -11.310239  
      10A    -11.308278    11A    -11.305125    12A    -11.287467  
      13A     -1.441472    14A     -1.405434    15A     -1.388408  
      16A     -1.373254    17A     -1.366368    18A     -1.353720  
      19A     -1.081973    20A     -1.052916    21A     -0.947289  
      22A     -0.889628    23A     -0.855328    24A     -0.841904  
      25A     -0.754262    26A     -0.730739    27A     -0.721733  
      28A     -0.709700    29A     -0.693421    30A     -0.675794  
      31A     -0.660723    32A     -0.653450    33A     -0.620517  
      34A     -0.615676    35A     -0.598449    36A     -0.587116  
      37A     -0.571388    38A     -0.561964    39A     -0.556523  
      40A     -0.543744    41A     -0.526607    42A     -0.516835  
      43A     -0.501364    44A     -0.487787    45A     -0.474326  
      46A     -0.462861    47A     -0.447145    48A     -0.432717  

    Virtual:                                                              

      49A      0.019520    50A      0.030517    51A      0.033881  
      52A      0.037462    53A      0.046769    54A      0.051113  
      55A      0.051381    56A      0.053893    57A      0.059595  
      58A      0.072147    59A      0.074166    60A      0.076811  
      61A      0.096975    62A      0.100250    63A      0.110039  
      64A      0.111330    65A      0.113691    66A      0.116489  
      67A      0.121629    68A      0.125170    69A      0.129807  
      70A      0.132096    71A      0.138383    72A      0.140020  
      73A      0.140982    74A      0.142338    75A      0.152792  
      76A      0.154209    77A      0.158010    78A      0.159615  
      79A      0.172609    80A      0.181993    81A      0.185173  
      82A      0.188667    83A      0.191571    84A      0.198342  
      85A      0.206490    86A      0.216517    87A      0.218485  
      88A      0.229392    89A      0.231316    90A      0.240202  
      91A      0.243956    92A      0.248569    93A      0.250397  
      94A      0.251612    95A      0.257371    96A      0.260379  
      97A      0.264332    98A      0.268360    99A      0.272450  
     100A      0.273833   101A      0.278801   102A      0.287253  
     103A      0.289902   104A      0.292285   105A      0.298863  
     106A      0.301873   107A      0.303348   108A      0.311201  
     109A      0.312852   110A      0.321526   111A      0.324318  
     112A      0.329786   113A      0.331873   114A      0.334970  
     115A      0.346031   116A      0.350828   117A      0.353428  
     118A      0.356625   119A      0.359510   120A      0.369190  
     121A      0.374092   122A      0.376333   123A      0.384053  
     124A      0.388530   125A      0.395683   126A      0.400483  
     127A      0.403042   128A      0.405830   129A      0.414168  
     130A      0.416575   131A      0.418531   132A      0.425038  
     133A      0.429482   134A      0.433497   135A      0.438387  
     136A      0.443446   137A      0.446787   138A      0.450728  
     139A      0.454910   140A      0.456752   141A      0.464085  
     142A      0.467144   143A      0.468402   144A      0.475215  
     145A      0.478671   146A      0.487277   147A      0.493240  
     148A      0.494976   149A      0.501327   150A      0.505269  
     151A      0.511440   152A      0.515327   153A      0.515658  
     154A      0.521719   155A      0.523061   156A      0.526136  
     157A      0.529537   158A      0.533242   159A      0.539634  
     160A      0.542570   161A      0.546251   162A      0.550547  
     163A      0.559524   164A      0.562392   165A      0.570372  
     166A      0.574167   167A      0.581304   168A      0.584028  
     169A      0.588169   170A      0.589829   171A      0.591140  
     172A      0.594281   173A      0.599875   174A      0.611932  
     175A      0.617457   176A      0.618838   177A      0.621913  
     178A      0.627464   179A      0.634155   180A      0.638708  
     181A      0.649857   182A      0.651492   183A      0.654002  
     184A      0.664683   185A      0.670615   186A      0.674385  
     187A      0.679953   188A      0.687784   189A      0.695152  
     190A      0.701996   191A      0.704755   192A      0.715859  
     193A      0.724749   194A      0.728276   195A      0.731498  
     196A      0.741215   197A      0.750330   198A      0.759517  
     199A      0.765314   200A      0.767429   201A      0.779562  
     202A      0.785755   203A      0.795751   204A      0.802398  
     205A      0.809179   206A      0.815149   207A      0.825778  
     208A      0.828650   209A      0.835669   210A      0.837713  
     211A      0.846456   212A      0.853553   213A      0.861026  
     214A      0.867392   215A      0.872245   216A      0.878617  
     217A      0.881857   218A      0.893045   219A      0.896459  
     220A      0.905392   221A      0.908366   222A      0.912192  
     223A      0.919306   224A      0.927102   225A      0.932592  
     226A      0.940955   227A      0.945093   228A      0.948886  
     229A      0.957526   230A      0.961886   231A      0.964417  
     232A      0.970742   233A      0.974415   234A      0.989078  
     235A      0.994893   236A      0.999087   237A      1.004601  
     238A      1.005405   239A      1.017296   240A      1.022950  
     241A      1.026763   242A      1.035244   243A      1.043438  
     244A      1.045279   245A      1.051532   246A      1.054865  
     247A      1.060287   248A      1.060801   249A      1.067787  
     250A      1.071038   251A      1.079342   252A      1.082109  
     253A      1.094651   254A      1.097241   255A      1.100597  
     256A      1.104799   257A      1.110570   258A      1.114026  
     259A      1.116223   260A      1.124262   261A      1.134861  
     262A      1.139429   263A      1.143180   264A      1.150383  
     265A      1.152243   266A      1.155529   267A      1.167469  
     268A      1.170927   269A      1.172781   270A      1.177631  
     271A      1.186903   272A      1.191173   273A      1.195900  
     274A      1.201611   275A      1.212154   276A      1.218142  
     277A      1.220609   278A      1.224721   279A      1.231505  
     280A      1.239020   281A      1.242190   282A      1.252534  
     283A      1.259991   284A      1.268411   285A      1.272956  
     286A      1.282639   287A      1.287519   288A      1.291554  
     289A      1.296399   290A      1.303154   291A      1.309498  
     292A      1.311465   293A      1.321935   294A      1.334362  
     295A      1.336954   296A      1.343565   297A      1.349170  
     298A      1.357565   299A      1.365488   300A      1.381692  
     301A      1.386051   302A      1.393275   303A      1.400976  
     304A      1.405378   305A      1.407123   306A      1.414950  
     307A      1.425008   308A      1.430936   309A      1.440443  
     310A      1.446086   311A      1.448507   312A      1.460564  
     313A      1.465249   314A      1.469387   315A      1.473994  
     316A      1.483379   317A      1.489122   318A      1.500758  
     319A      1.505314   320A      1.512886   321A      1.522858  
     322A      1.532663   323A      1.542589   324A      1.549236  
     325A      1.558132   326A      1.561386   327A      1.568521  
     328A      1.572831   329A      1.578563   330A      1.582447  
     331A      1.588098   332A      1.596254   333A      1.601494  
     334A      1.610418   335A      1.612873   336A      1.617461  
     337A      1.633250   338A      1.636911   339A      1.645945  
     340A      1.655507   341A      1.656805   342A      1.658858  
     343A      1.675973   344A      1.678968   345A      1.689679  
     346A      1.695303   347A      1.699656   348A      1.702538  
     349A      1.712358   350A      1.722670   351A      1.725027  
     352A      1.734061   353A      1.740680   354A      1.754096  
     355A      1.761183   356A      1.770303   357A      1.773869  
     358A      1.777275   359A      1.787931   360A      1.789041  
     361A      1.796965   362A      1.801578   363A      1.807779  
     364A      1.820118   365A      1.824997   366A      1.829943  
     367A      1.834389   368A      1.843445   369A      1.858988  
     370A      1.859655   371A      1.866530   372A      1.872097  
     373A      1.877316   374A      1.883412   375A      1.888747  
     376A      1.900499   377A      1.914021   378A      1.919527  
     379A      1.927055   380A      1.934834   381A      1.935373  
     382A      1.948184   383A      1.952833   384A      1.959661  
     385A      1.968443   386A      1.973006   387A      1.989019  
     388A      1.995568   389A      2.004933   390A      2.010669  
     391A      2.017830   392A      2.029410   393A      2.031949  
     394A      2.040790   395A      2.046990   396A      2.060826  
     397A      2.067366   398A      2.068949   399A      2.079598  
     400A      2.083959   401A      2.098139   402A      2.106878  
     403A      2.112206   404A      2.118847   405A      2.125800  
     406A      2.139662   407A      2.162015   408A      2.167320  
     409A      2.172062   410A      2.176810   411A      2.187111  
     412A      2.192288   413A      2.205963   414A      2.210245  
     415A      2.219464   416A      2.226301   417A      2.238198  
     418A      2.246436   419A      2.257636   420A      2.269804  
     421A      2.285832   422A      2.292230   423A      2.307930  
     424A      2.320326   425A      2.324451   426A      2.341223  
     427A      2.356847   428A      2.370364   429A      2.387734  
     430A      2.394116   431A      2.399402   432A      2.418769  
     433A      2.432135   434A      2.434683   435A      2.443776  
     436A      2.453324   437A      2.464688   438A      2.481584  
     439A      2.490903   440A      2.504385   441A      2.516534  
     442A      2.531232   443A      2.546910   444A      2.551976  
     445A      2.565628   446A      2.579617   447A      2.598887  
     448A      2.604016   449A      2.624225   450A      2.643460  
     451A      2.647263   452A      2.652314   453A      2.665042  
     454A      2.677629   455A      2.685128   456A      2.704077  
     457A      2.715549   458A      2.721152   459A      2.734298  
     460A      2.750756   461A      2.768682   462A      2.782532  
     463A      2.788987   464A      2.798815   465A      2.808276  
     466A      2.813115   467A      2.825084   468A      2.831636  
     469A      2.848780   470A      2.855858   471A      2.866771  
     472A      2.871479   473A      2.888398   474A      2.901291  
     475A      2.901755   476A      2.921690   477A      2.932021  
     478A      2.939207   479A      2.948236   480A      2.959353  
     481A      2.967831   482A      2.981575   483A      2.982801  
     484A      2.998296   485A      3.001657   486A      3.012985  
     487A      3.014196   488A      3.031260   489A      3.059293  
     490A      3.061816   491A      3.066981   492A      3.069923  
     493A      3.080209   494A      3.091105   495A      3.101414  
     496A      3.106070   497A      3.113765   498A      3.137725  
     499A      3.147583   500A      3.158061   501A      3.169382  
     502A      3.173637   503A      3.185349   504A      3.195150  
     505A      3.201030   506A      3.205675   507A      3.220480  
     508A      3.241360   509A      3.252635   510A      3.262378  
     511A      3.271277   512A      3.290815   513A      3.291935  
     514A      3.313635   515A      3.320403   516A      3.330841  
     517A      3.342368   518A      3.349588   519A      3.370458  
     520A      3.383073   521A      3.403610   522A      3.420968  
     523A      3.441611   524A      3.474672   525A      3.489447  
     526A      3.508512   527A      3.527586   528A      3.542263  
     529A      3.560602   530A      3.583379   531A      3.598429  
     532A      3.626722   533A      3.635155   534A      3.647714  
     535A      3.660860   536A      3.664199   537A      3.693585  
     538A      3.701709   539A      3.716866   540A      3.734195  
     541A      3.739324   542A      3.755784   543A      3.774637  
     544A      3.786179   545A      3.793962   546A      3.820735  
     547A      3.835329   548A      3.857771   549A      3.870277  
     550A      3.879257   551A      3.883755   552A      3.893385  
     553A      3.899537   554A      3.916299   555A      3.927103  
     556A      3.953437   557A      3.957319   558A      3.958926  
     559A      3.982410   560A      3.986762   561A      4.006787  
     562A      4.010600   563A      4.017035   564A      4.034482  
     565A      4.045469   566A      4.055276   567A      4.069540  
     568A      4.075622   569A      4.086677   570A      4.093208  
     571A      4.105459   572A      4.109096   573A      4.117982  
     574A      4.126208   575A      4.131576   576A      4.144718  
     577A      4.158989   578A      4.169107   579A      4.171030  
     580A      4.174737   581A      4.198083   582A      4.213322  
     583A      4.228725   584A      4.236243   585A      4.246248  
     586A      4.263448   587A      4.274884   588A      4.285008  
     589A      4.295322   590A      4.309771   591A      4.322322  
     592A      4.325385   593A      4.342507   594A      4.356963  
     595A      4.367177   596A      4.379268   597A      4.387014  
     598A      4.400878   599A      4.413717   600A      4.435772  
     601A      4.440571   602A      4.449008   603A      4.468227  
     604A      4.474571   605A      4.485813   606A      4.492121  
     607A      4.505790   608A      4.520420   609A      4.528173  
     610A      4.538954   611A      4.548024   612A      4.562127  
     613A      4.570317   614A      4.578273   615A      4.596694  
     616A      4.602879   617A      4.615144   618A      4.621203  
     619A      4.630414   620A      4.638886   621A      4.650322  
     622A      4.663987   623A      4.687161   624A      4.688999  
     625A      4.708318   626A      4.722833   627A      4.725949  
     628A      4.731291   629A      4.744104   630A      4.759317  
     631A      4.771474   632A      4.779428   633A      4.790872  
     634A      4.796313   635A      4.816784   636A      4.833039  
     637A      4.855858   638A      4.867752   639A      4.871645  
     640A      4.887067   641A      4.899821   642A      4.908265  
     643A      4.919041   644A      4.921298   645A      4.938080  
     646A      4.956375   647A      4.964448   648A      4.996771  
     649A      4.999145   650A      5.000123   651A      5.018861  
     652A      5.028681   653A      5.039332   654A      5.046437  
     655A      5.059782   656A      5.075899   657A      5.080397  
     658A      5.092670   659A      5.106894   660A      5.112132  
     661A      5.121440   662A      5.135859   663A      5.154937  
     664A      5.163039   665A      5.180871   666A      5.182731  
     667A      5.206455   668A      5.211911   669A      5.226333  
     670A      5.234215   671A      5.258622   672A      5.284707  
     673A      5.297365   674A      5.301129   675A      5.326656  
     676A      5.332003   677A      5.356945   678A      5.369861  
     679A      5.376574   680A      5.386114   681A      5.392715  
     682A      5.405419   683A      5.418943   684A      5.433350  
     685A      5.444075   686A      5.471921   687A      5.482401  
     688A      5.486330   689A      5.501211   690A      5.512624  
     691A      5.515821   692A      5.528194   693A      5.553830  
     694A      5.560737   695A      5.579763   696A      5.591208  
     697A      5.599805   698A      5.623526   699A      5.634755  
     700A      5.653831   701A      5.657264   702A      5.668075  
     703A      5.685488   704A      5.718253   705A      5.732617  
     706A      5.741540   707A      5.752481   708A      5.768905  
     709A      5.809144   710A      5.824682   711A      5.851391  
     712A      5.866940   713A      5.898384   714A      5.911914  
     715A      5.921727   716A      5.963667   717A      6.004919  
     718A      6.020256   719A      6.049445   720A      6.068247  
     721A      6.069768   722A      6.108423   723A      6.141067  
     724A      6.217205   725A      6.235722   726A      6.272984  
     727A      6.318678   728A      6.326062   729A      6.331475  
     730A      6.372521   731A      6.415405   732A      6.481696  
     733A      6.596409   734A      6.689655   735A      6.705755  
     736A      6.727121   737A      6.735738   738A      6.749039  
     739A      6.761720   740A      6.782660   741A      6.793607  
     742A      6.847458   743A      6.865970   744A      6.902358  
     745A      6.959265   746A      6.980884   747A      6.993381  
     748A      7.009300   749A      7.014947   750A      7.035052  
     751A      7.045955   752A      7.051105   753A      7.061631  
     754A      7.084866   755A      7.115847   756A      7.132025  
     757A      7.140754   758A      7.153077   759A      7.156331  
     760A      7.169536   761A      7.188044   762A      7.292077  
     763A      7.320984   764A      7.326948   765A      7.336077  
     766A      7.337331   767A      7.347052   768A      7.372994  
     769A      7.391538   770A      7.398674   771A      7.415535  
     772A      7.418526   773A      7.442930   774A      7.482020  
     775A      7.490585   776A      7.505200   777A      7.521688  
     778A      7.526371   779A      7.551119   780A      7.554516  
     781A      7.571341   782A      7.581768   783A      7.593003  
     784A      7.618987   785A      7.632715   786A      7.703815  
     787A      7.728511   788A      7.735593   789A      7.774387  
     790A      7.794426   791A      7.809488   792A      7.832898  
     793A      7.869661   794A      7.887176   795A      7.894591  
     796A      7.917939   797A      7.944460   798A      7.983698  
     799A      8.005890   800A      8.041168   801A      8.052773  
     802A      8.065082   803A      8.118770   804A      8.162511  
     805A      8.252158   806A      8.280635   807A      8.317168  
     808A      8.332851   809A      8.354866   810A      8.458190  
     811A      8.542434   812A      8.605701   813A      8.652008  
     814A      8.677115   815A      8.699921   816A      8.743608  
     817A     16.237399   818A     16.507491   819A     16.634422  
     820A     17.058391   821A     17.228901   822A     17.319632  
     823A     18.659252   824A     18.761206   825A     18.889572  
     826A     18.990482   827A     19.659917   828A     20.331914  

    Final Occupation by Irrep:
              A 
    DOCC [    48 ]

  @DF-RHF Final Energy:  -683.60291396541265

   => Energetics <=

    Nuclear Repulsion Energy =            824.9368169333995411
    One-Electron Energy =               -2578.1292796935294973
    Two-Electron Energy =                1069.5895487947173024
    Total Energy =                       -683.6029139654126539

Computation Completed

*** tstop() called on node96.bme.utexas.edu at Thu Nov  5 08:09:28 2020
Module time:
	user time   =     575.75 seconds =       9.60 minutes
	system time =      60.47 seconds =       1.01 minutes
	total time  =        199 seconds =       3.32 minutes
Total time:
	user time   =     575.75 seconds =       9.60 minutes
	system time =      60.47 seconds =       1.01 minutes
	total time  =        199 seconds =       3.32 minutes
   => Loading Basis Set <=

    Name: (AUG-CC-PVTZ AUX)
    Role: RIFIT
    Keyword: DF_BASIS_MP2
    atoms 1-6   entry O          line   264 file /home/xy3866/psi4conda/share/psi4/basis/aug-cc-pvtz-ri.gbs 
    atoms 7-12  entry C          line   148 file /home/xy3866/psi4conda/share/psi4/basis/aug-cc-pvtz-ri.gbs 
    atoms 13-24 entry H          line    30 file /home/xy3866/psi4conda/share/psi4/basis/aug-cc-pvtz-ri.gbs 


*** tstart() called on node96.bme.utexas.edu
*** at Thu Nov  5 08:09:29 2020


  //>>>>>>>>>>>>>>>>>>>>>>>>>>>>>>>>>>>//
  //               DFMP2               //
  //<<<<<<<<<<<<<<<<<<<<<<<<<<<<<<<<<<<//

	 --------------------------------------------------------
	                          DF-MP2                         
	      2nd-Order Density-Fitted Moller-Plesset Theory     
	              RMP2 Wavefunction,   8 Threads             
	                                                         
	        Rob Parrish, Justin Turney, Andy Simmonett,      
	           Ed Hohenstein, and C. David Sherrill          
	 --------------------------------------------------------

   => Auxiliary Basis Set <=

  Basis Set: (AUG-CC-PVTZ AUX)
    Blend: AUG-CC-PVTZ-RI
    Number of shells: 504
    Number of basis function: 1824
    Number of Cartesian functions: 2292
    Spherical Harmonics?: true
    Max angular momentum: 4

	 --------------------------------------------------------
	                 NBF =   828, NAUX =  1824
	 --------------------------------------------------------
	   CLASS    FOCC     OCC    AOCC    AVIR     VIR    FVIR
	   PAIRS       0      48      48     780     780       0
	 --------------------------------------------------------

  DFHelper Memory: AOs need 8.734 GiB; user supplied 22.352 GiB. Using in-core AOs.


         ------------------------------------------------------------
                                     CPHF                           
                                  Rob Parrish                       
         ------------------------------------------------------------

  ==> Geometry <==

    Molecular point group: c1
    Full point group: C1

    Geometry (in Angstrom), charge = 0, multiplicity = 1:

       Center              X                  Y                   Z               Mass       
    ------------   -----------------  -----------------  -----------------  -----------------
         O           -0.720469414692    -1.106461447771    -0.247354032782    15.994914619570
         O           -0.764614414692     2.558376552229     0.208444967218    15.994914619570
         O            1.974630585308     1.991776552229    -0.335356032782    15.994914619570
         O            2.899939585308    -0.661568447771     0.176883967218    15.994914619570
         O            0.904048585308    -2.713407447771    -0.059926032782    15.994914619570
         O           -3.425569414692    -0.874913447771     0.197225967218    15.994914619570
         C           -0.332231414692     1.264907552229    -0.230965032782    12.000000000000
         C            1.105743585308     1.016194552229     0.208578967218    12.000000000000
         C           -1.239031414692     0.137940552229     0.238593967218    12.000000000000
         C            1.570545585308    -0.368756447771    -0.215326032782    12.000000000000
         C            0.579576685308    -1.407513547771     0.271660467218    12.000000000000
         C           -2.657886414692     0.214517552229    -0.289167032782    12.000000000000
         H           -0.353835414692     1.315002552229    -1.325286032782     1.007825032230
         H            1.127266585308     1.056718552229     1.318956967218     1.007825032230
         H           -1.273116414692     0.115674552229     1.343828967218     1.007825032230
         H            1.570591585308    -0.413320447771    -1.312238032782     1.007825032230
         H            0.514822585308    -1.402399447771     1.393604967218     1.007825032230
         H           -2.620545414692     0.230202552229    -1.388713032782     1.007825032230
         H           -3.139891414692     1.132886552229     0.052764967218     1.007825032230
         H           -0.838140414692     2.523974552229     1.181031967218     1.007825032230
         H            1.495251585308     2.838125552229    -0.243661032782     1.007825032230
         H            2.991459585308    -0.440363447771     1.120749967218     1.007825032230
         H            1.242618585308    -2.699334447771    -0.973050032782     1.007825032230
         H           -2.903005414692    -1.669832447771    -0.016510032782     1.007825032230

  Nuclear repulsion =  824.936816933399541
  Reference energy  = -683.602913965412654

  ==> Basis Set <==

  Basis Set: AUG-CC-PVTZ
    Blend: AUG-CC-PVTZ
    Number of shells: 276
    Number of basis function: 828
    Number of Cartesian functions: 960
    Spherical Harmonics?: true
    Max angular momentum: 3

  ==> CGRSolver (by Rob Parrish) <==

   Number of roots    =         1
   Preconditioning    =    JACOBI
   Convergence cutoff =     1E-06
   Maximum iterations =       100

  ==> CPHFRHamiltonian (by Rob Parrish) <== 

  ==> MemDFJK: Density-Fitted J/K Matrices <==

    J tasked:                   Yes
    K tasked:                   Yes
    wK tasked:                   No
    OpenMP threads:               8
    Memory [MiB]:             22888
    Algorithm:                 Disk
    Schwarz Cutoff:           1E-12
    Mask sparsity (%):       7.2195
    Fitting Condition:        1E-10

   => Auxiliary Basis Set <=

  Basis Set: (AUG-CC-PVTZ AUX)
    Blend: AUG-CC-PVTZ-JKFIT
    Number of shells: 528
    Number of basis function: 1800
    Number of Cartesian functions: 2232
    Spherical Harmonics?: true
    Max angular momentum: 4

  ==> CPHF Iterations <==

  => Iterations <=

             Iter  Converged  Remaining    Residual
  CGR           1          0          1   8.382E-02
  CGR           2          0          1   1.924E-02
  CGR           3          0          1   7.642E-03
  CGR           4          0          1   1.861E-03
  CGR           5          0          1   4.875E-04
  CGR           6          0          1   1.597E-04
  CGR           7          0          1   4.272E-05
  CGR           8          0          1   1.534E-05
  CGR           9          0          1   5.243E-06
  CGR          10          0          1   1.575E-06
  CGR          11          1          0   5.354E-07

    CGRSolver converged.

	-----------------------------------------------------------
	 ==================> DF-MP2 Energies <==================== 
	-----------------------------------------------------------
	 Reference Energy          =    -683.6029139654126539 [Eh]
	 Singles Energy            =      -0.0000000000000000 [Eh]
	 Same-Spin Energy          =      -0.6656373339112583 [Eh]
	 Opposite-Spin Energy      =      -2.0450607391114435 [Eh]
	 Correlation Energy        =      -2.7106980730227019 [Eh]
	 Total Energy              =    -686.3136120384353944 [Eh]
	-----------------------------------------------------------
	 ================> DF-SCS-MP2 Energies <================== 
	-----------------------------------------------------------
	 SCS Same-Spin Scale       =       0.3333333333333333 [-]
	 SCS Opposite-Spin Scale   =       1.2000000000000000 [-]
	 SCS Same-Spin Energy      =      -0.2218791113037528 [Eh]
	 SCS Opposite-Spin Energy  =      -2.4540728869337323 [Eh]
	 SCS Correlation Energy    =      -2.6759519982374851 [Eh]
	 SCS Total Energy          =    -686.2788659636501052 [Eh]
	-----------------------------------------------------------



Properties will be evaluated at  -0.000000,   0.000000,  -0.000000 [a0]

Properties computed using the MP2 density matrix

  Nuclear Dipole Moment: [e a0]
     X:    -2.0456      Y:     2.4217      Z:     1.0792

  Electronic Dipole Moment: [e a0]
     X:     2.1332      Y:    -1.7828      Z:    -0.5594

  Dipole Moment: [e a0]
     X:     0.0876      Y:     0.6388      Z:     0.5198     Total:     0.8282

  Dipole Moment: [D]
     X:     0.2226      Y:     1.6237      Z:     1.3212     Total:     2.1052


*** tstop() called on node96.bme.utexas.edu at Thu Nov  5 08:17:09 2020
Module time:
	user time   =    2238.03 seconds =      37.30 minutes
	system time =      74.78 seconds =       1.25 minutes
	total time  =        460 seconds =       7.67 minutes
Total time:
	user time   =    2814.94 seconds =      46.92 minutes
	system time =     135.29 seconds =       2.25 minutes
	total time  =        660 seconds =      11.00 minutes

    Psi4 stopped on: Thursday, 05 November 2020 08:17AM
    Psi4 wall time for execution: 0:11:00.93

*** Psi4 exiting successfully. Buy a developer a beer!
