
    -----------------------------------------------------------------------
          Psi4: An Open-Source Ab Initio Electronic Structure Package
                               Psi4 1.3.2 release

                         Git: Rev {HEAD} ecbda83 


    R. M. Parrish, L. A. Burns, D. G. A. Smith, A. C. Simmonett,
    A. E. DePrince III, E. G. Hohenstein, U. Bozkaya, A. Yu. Sokolov,
    R. Di Remigio, R. M. Richard, J. F. Gonthier, A. M. James,
    H. R. McAlexander, A. Kumar, M. Saitow, X. Wang, B. P. Pritchard,
    P. Verma, H. F. Schaefer III, K. Patkowski, R. A. King, E. F. Valeev,
    F. A. Evangelista, J. M. Turney, T. D. Crawford, and C. D. Sherrill,
    J. Chem. Theory Comput. 13(7) pp 3185--3197 (2017).
    (doi: 10.1021/acs.jctc.7b00174)


                         Additional Contributions by
    P. Kraus, H. Kruse, M. H. Lechner, M. C. Schieber, R. A. Shaw,
    A. Alenaizan, R. Galvelis, Z. L. Glick, S. Lehtola, and J. P. Misiewicz

    -----------------------------------------------------------------------


    Psi4 started on: Wednesday, 04 November 2020 04:40AM

    Process ID: 109288
    Host:       node96.bme.utexas.edu
    PSIDATADIR: /home/xy3866/psi4conda/share/psi4
    Memory:     500.0 MiB
    Threads:    8
    
  ==> Input File <==

--------------------------------------------------------------------------
#psi4
#
memory 32 gb

molecule  {
0 1
  O       -0.7273613    -1.1591165    -0.2305648
  O       -0.7529000     2.5454980     0.2011280
  O        1.9863450     1.9788980    -0.3426730
  O        2.9116540    -0.6744470     0.1695670
  O        0.9157630    -2.7262860    -0.0672430
  O       -3.4138550    -0.8877920     0.1899090
  C       -0.3205170     1.2520290    -0.2382820
  C        1.1174580     1.0033160     0.2012620
  C       -1.2273170     0.1250620     0.2312770
  C        1.5822600    -0.3816350    -0.2226430
  C        0.5842790    -1.4279170     0.2862350
  C       -2.6461720     0.2016390    -0.2964840
  H       -0.3421210     1.3021240    -1.3326030
  H        1.1389810     1.0438400     1.3116400
  H       -1.2614020     0.1027960     1.3365120
  H        1.5823060    -0.4261990    -1.3195550
  H        0.5265370    -1.4152780     1.3862880
  H       -2.6088310     0.2173240    -1.3960300
  H       -3.1281770     1.1200080     0.0454480
  H       -0.8264260     2.5110960     1.1737150
  H        1.5069660     2.8252470    -0.2509780
  H        3.0031740    -0.4532420     1.1134330
  H        1.2543330    -2.7122130    -0.9803670
  H       -2.8912910    -1.6827110    -0.0238270
units angstrom
no_reorient  #important for SAPT in psi4, default
symmetry c1  #important for SAPT in psi4, default
}

set PROPERTIES_ORIGIN ["COM"]
properties('MP2/aug-cc-pvtz', properties = ['dipole'])
--------------------------------------------------------------------------

  Memory set to  29.802 GiB by Python driver.
    SCF Algorithm Type (re)set to DF.

*** tstart() called on node96.bme.utexas.edu
*** at Wed Nov  4 04:40:41 2020

   => Loading Basis Set <=

    Name: AUG-CC-PVTZ
    Role: ORBITAL
    Keyword: BASIS
    atoms 1-6   entry O          line   327 file /home/xy3866/psi4conda/share/psi4/basis/aug-cc-pvtz.gbs 
    atoms 7-12  entry C          line   235 file /home/xy3866/psi4conda/share/psi4/basis/aug-cc-pvtz.gbs 
    atoms 13-24 entry H          line    36 file /home/xy3866/psi4conda/share/psi4/basis/aug-cc-pvtz.gbs 


         ---------------------------------------------------------
                                   SCF
               by Justin Turney, Rob Parrish, Andy Simmonett
                          and Daniel G. A. Smith
                              RHF Reference
                        8 Threads,  30517 MiB Core
         ---------------------------------------------------------

  ==> Geometry <==

    Molecular point group: c1
    Full point group: C1

    Geometry (in Angstrom), charge = 0, multiplicity = 1:

       Center              X                  Y                   Z               Mass       
    ------------   -----------------  -----------------  -----------------  -----------------
         O           -0.736955620297    -1.142203143533    -0.226848090545    15.994914619570
         O           -0.762494320297     2.562411356467     0.204844709455    15.994914619570
         O            1.976750679703     1.995811356467    -0.338956290545    15.994914619570
         O            2.902059679703    -0.657533643533     0.173283709455    15.994914619570
         O            0.906168679703    -2.709372643533    -0.063526290545    15.994914619570
         O           -3.423449320297    -0.870878643533     0.193625709455    15.994914619570
         C           -0.330111320297     1.268942356467    -0.234565290545    12.000000000000
         C            1.107863679703     1.020229356467     0.204978709455    12.000000000000
         C           -1.236911320297     0.141975356467     0.234993709455    12.000000000000
         C            1.572665679703    -0.364721643533    -0.218926290545    12.000000000000
         C            0.574684679703    -1.411003643533     0.289951709455    12.000000000000
         C           -2.655766320297     0.218552356467    -0.292767290545    12.000000000000
         H           -0.351715320297     1.319037356467    -1.328886290545     1.007825032230
         H            1.129386679703     1.060753356467     1.315356709455     1.007825032230
         H           -1.270996320297     0.119709356467     1.340228709455     1.007825032230
         H            1.572711679703    -0.409285643533    -1.315838290545     1.007825032230
         H            0.516942679703    -1.398364643533     1.390004709455     1.007825032230
         H           -2.618425320297     0.234237356467    -1.392313290545     1.007825032230
         H           -3.137771320297     1.136921356467     0.049164709455     1.007825032230
         H           -0.836020320297     2.528009356467     1.177431709455     1.007825032230
         H            1.497371679703     2.842160356467    -0.247261290545     1.007825032230
         H            2.993579679703    -0.436328643533     1.117149709455     1.007825032230
         H            1.244738679703    -2.695299643533    -0.976650290545     1.007825032230
         H           -2.900885320297    -1.665797643533    -0.020110290545     1.007825032230

  Running in c1 symmetry.

  Rotational constants: A =      0.03840  B =      0.02647  C =      0.01639 [cm^-1]
  Rotational constants: A =   1151.29296  B =    793.68371  C =    491.30591 [MHz]
  Nuclear repulsion =  823.857924540406657

  Charge       = 0
  Multiplicity = 1
  Electrons    = 96
  Nalpha       = 48
  Nbeta        = 48

  ==> Algorithm <==

  SCF Algorithm Type is DF.
  DIIS enabled.
  MOM disabled.
  Fractional occupation disabled.
  Guess Type is SAD.
  Energy threshold   = 1.00e-10
  Density threshold  = 1.00e-10
  Integral threshold = 0.00e+00

  ==> Primary Basis <==

  Basis Set: AUG-CC-PVTZ
    Blend: AUG-CC-PVTZ
    Number of shells: 276
    Number of basis function: 828
    Number of Cartesian functions: 960
    Spherical Harmonics?: true
    Max angular momentum: 3

   => Loading Basis Set <=

    Name: (AUG-CC-PVTZ AUX)
    Role: JKFIT
    Keyword: DF_BASIS_SCF
    atoms 1-6   entry O          line   286 file /home/xy3866/psi4conda/share/psi4/basis/aug-cc-pvtz-jkfit.gbs 
    atoms 7-12  entry C          line   162 file /home/xy3866/psi4conda/share/psi4/basis/aug-cc-pvtz-jkfit.gbs 
    atoms 13-24 entry H          line    70 file /home/xy3866/psi4conda/share/psi4/basis/aug-cc-pvtz-jkfit.gbs 

  ==> Pre-Iterations <==

   -------------------------------------------------------
    Irrep   Nso     Nmo     Nalpha   Nbeta   Ndocc  Nsocc
   -------------------------------------------------------
     A        828     828       0       0       0       0
   -------------------------------------------------------
    Total     828     828      48      48      48       0
   -------------------------------------------------------

  ==> Integral Setup <==

  DFHelper Memory: AOs need 8.733 GiB; user supplied 22.352 GiB. Using in-core AOs.

  ==> MemDFJK: Density-Fitted J/K Matrices <==

    J tasked:                   Yes
    K tasked:                   Yes
    wK tasked:                   No
    OpenMP threads:               8
    Memory [MiB]:             22888
    Algorithm:                 Disk
    Schwarz Cutoff:           1E-12
    Mask sparsity (%):       7.2300
    Fitting Condition:        1E-10

   => Auxiliary Basis Set <=

  Basis Set: (AUG-CC-PVTZ AUX)
    Blend: AUG-CC-PVTZ-JKFIT
    Number of shells: 528
    Number of basis function: 1800
    Number of Cartesian functions: 2232
    Spherical Harmonics?: true
    Max angular momentum: 4

  Minimum eigenvalue in the overlap matrix is 1.7893498257E-06.
  Using Symmetric Orthogonalization.

  SCF Guess: Superposition of Atomic Densities via on-the-fly atomic UHF.

  ==> Iterations <==

                           Total Energy        Delta E     RMS |[F,P]|

   @DF-RHF iter SAD:  -682.93041381022670   -6.82930e+02   0.00000e+00 
   @DF-RHF iter   1:  -683.23165323388798   -3.01239e-01   1.05043e-03 DIIS
   @DF-RHF iter   2:  -683.52314135353413   -2.91488e-01   5.78237e-04 DIIS
   @DF-RHF iter   3:  -683.59657800549621   -7.34367e-02   1.08794e-04 DIIS
   @DF-RHF iter   4:  -683.60165371006281   -5.07570e-03   3.58768e-05 DIIS
   @DF-RHF iter   5:  -683.60215657850677   -5.02868e-04   8.03717e-06 DIIS
   @DF-RHF iter   6:  -683.60219400052733   -3.74220e-05   2.24229e-06 DIIS
   @DF-RHF iter   7:  -683.60219777961322   -3.77909e-06   8.54013e-07 DIIS
   @DF-RHF iter   8:  -683.60219815392281   -3.74310e-07   2.72733e-07 DIIS
   @DF-RHF iter   9:  -683.60219820036514   -4.64423e-08   7.04073e-08 DIIS
   @DF-RHF iter  10:  -683.60219820297914   -2.61400e-09   2.10282e-08 DIIS
   @DF-RHF iter  11:  -683.60219820322936   -2.50225e-10   5.77192e-09 DIIS
   @DF-RHF iter  12:  -683.60219820324767   -1.83036e-11   2.60175e-09 DIIS
   @DF-RHF iter  13:  -683.60219820325017   -2.50111e-12   6.86160e-10 DIIS
   @DF-RHF iter  14:  -683.60219820324903    1.13687e-12   1.89975e-10 DIIS
   @DF-RHF iter  15:  -683.60219820324983   -7.95808e-13   7.28633e-11 DIIS
  Energy and wave function converged.


  ==> Post-Iterations <==

    Orbital Energies [Eh]
    ---------------------

    Doubly Occupied:                                                      

       1A    -20.600211     2A    -20.589097     3A    -20.581949  
       4A    -20.580402     5A    -20.578074     6A    -20.562062  
       7A    -11.355849     8A    -11.312574     9A    -11.310537  
      10A    -11.309452    11A    -11.306360    12A    -11.287637  
      13A     -1.437388    14A     -1.406287    15A     -1.387990  
      16A     -1.371420    17A     -1.366529    18A     -1.349913  
      19A     -1.083174    20A     -1.049585    21A     -0.946359  
      22A     -0.891248    23A     -0.854727    24A     -0.841887  
      25A     -0.752451    26A     -0.728974    27A     -0.721682  
      28A     -0.710025    29A     -0.692211    30A     -0.674323  
      31A     -0.658776    32A     -0.654999    33A     -0.621439  
      34A     -0.615831    35A     -0.597818    36A     -0.587279  
      37A     -0.570692    38A     -0.562172    39A     -0.556864  
      40A     -0.543961    41A     -0.525799    42A     -0.514511  
      43A     -0.502845    44A     -0.487610    45A     -0.475270  
      46A     -0.462752    47A     -0.445921    48A     -0.433427  

    Virtual:                                                              

      49A      0.019271    50A      0.030450    51A      0.033848  
      52A      0.037458    53A      0.046769    54A      0.051002  
      55A      0.051356    56A      0.053978    57A      0.059592  
      58A      0.072087    59A      0.074093    60A      0.076812  
      61A      0.096916    62A      0.100438    63A      0.109994  
      64A      0.111300    65A      0.113559    66A      0.116367  
      67A      0.121656    68A      0.125139    69A      0.130298  
      70A      0.132127    71A      0.137997    72A      0.139972  
      73A      0.141111    74A      0.142336    75A      0.152825  
      76A      0.154118    77A      0.157923    78A      0.159790  
      79A      0.172618    80A      0.181970    81A      0.184718  
      82A      0.188443    83A      0.191411    84A      0.198242  
      85A      0.206438    86A      0.216376    87A      0.218407  
      88A      0.229201    89A      0.230866    90A      0.240191  
      91A      0.243464    92A      0.248992    93A      0.250729  
      94A      0.251342    95A      0.257172    96A      0.259909  
      97A      0.264287    98A      0.267844    99A      0.271960  
     100A      0.273837   101A      0.278786   102A      0.287342  
     103A      0.290134   104A      0.292407   105A      0.298895  
     106A      0.301760   107A      0.303243   108A      0.310848  
     109A      0.312794   110A      0.320791   111A      0.324211  
     112A      0.329876   113A      0.331862   114A      0.334721  
     115A      0.346193   116A      0.350465   117A      0.353043  
     118A      0.357140   119A      0.359598   120A      0.368862  
     121A      0.374321   122A      0.374896   123A      0.383951  
     124A      0.388895   125A      0.395561   126A      0.400586  
     127A      0.402514   128A      0.405423   129A      0.412828  
     130A      0.416668   131A      0.418224   132A      0.424834  
     133A      0.429703   134A      0.432587   135A      0.438174  
     136A      0.441097   137A      0.444938   138A      0.450359  
     139A      0.454463   140A      0.456620   141A      0.463473  
     142A      0.467011   143A      0.468381   144A      0.474848  
     145A      0.478269   146A      0.486284   147A      0.492584  
     148A      0.494747   149A      0.501179   150A      0.504070  
     151A      0.511034   152A      0.514825   153A      0.515287  
     154A      0.521550   155A      0.522741   156A      0.525452  
     157A      0.529758   158A      0.532937   159A      0.540583  
     160A      0.542709   161A      0.545768   162A      0.550054  
     163A      0.559135   164A      0.562266   165A      0.570240  
     166A      0.575160   167A      0.580580   168A      0.583785  
     169A      0.587990   170A      0.589583   171A      0.591917  
     172A      0.595053   173A      0.600754   174A      0.611318  
     175A      0.617512   176A      0.618813   177A      0.621678  
     178A      0.626810   179A      0.633635   180A      0.638196  
     181A      0.649193   182A      0.650807   183A      0.653615  
     184A      0.664180   185A      0.670367   186A      0.674240  
     187A      0.680355   188A      0.688592   189A      0.694701  
     190A      0.701267   191A      0.703873   192A      0.715796  
     193A      0.723742   194A      0.727863   195A      0.730119  
     196A      0.740314   197A      0.749529   198A      0.759389  
     199A      0.765031   200A      0.768328   201A      0.778168  
     202A      0.785760   203A      0.796406   204A      0.802872  
     205A      0.808477   206A      0.815068   207A      0.824947  
     208A      0.828272   209A      0.835526   210A      0.836799  
     211A      0.845671   212A      0.852801   213A      0.860764  
     214A      0.866729   215A      0.872393   216A      0.878695  
     217A      0.883024   218A      0.891973   219A      0.896080  
     220A      0.903391   221A      0.907933   222A      0.911100  
     223A      0.918864   224A      0.926641   225A      0.932225  
     226A      0.940417   227A      0.944461   228A      0.947674  
     229A      0.957057   230A      0.961876   231A      0.964977  
     232A      0.969710   233A      0.974949   234A      0.987817  
     235A      0.995151   236A      0.998981   237A      1.004450  
     238A      1.005569   239A      1.017013   240A      1.022592  
     241A      1.025573   242A      1.035269   243A      1.042211  
     244A      1.044753   245A      1.052068   246A      1.056103  
     247A      1.059073   248A      1.062430   249A      1.066728  
     250A      1.071421   251A      1.078775   252A      1.082476  
     253A      1.095245   254A      1.097497   255A      1.100868  
     256A      1.104343   257A      1.110155   258A      1.114529  
     259A      1.115892   260A      1.123824   261A      1.134950  
     262A      1.139800   263A      1.142930   264A      1.148302  
     265A      1.152546   266A      1.155704   267A      1.168563  
     268A      1.170483   269A      1.172394   270A      1.177441  
     271A      1.186544   272A      1.191114   273A      1.195781  
     274A      1.202077   275A      1.213671   276A      1.218429  
     277A      1.220752   278A      1.222798   279A      1.231999  
     280A      1.237585   281A      1.241372   282A      1.251880  
     283A      1.260848   284A      1.268783   285A      1.273697  
     286A      1.283614   287A      1.286309   288A      1.290167  
     289A      1.296357   290A      1.302097   291A      1.309038  
     292A      1.311018   293A      1.322123   294A      1.333306  
     295A      1.336775   296A      1.342905   297A      1.348470  
     298A      1.360365   299A      1.365300   300A      1.382291  
     301A      1.386515   302A      1.393953   303A      1.400503  
     304A      1.405496   305A      1.406608   306A      1.414696  
     307A      1.423392   308A      1.430354   309A      1.440817  
     310A      1.445594   311A      1.447695   312A      1.459417  
     313A      1.466449   314A      1.468114   315A      1.475628  
     316A      1.482307   317A      1.489527   318A      1.500998  
     319A      1.504404   320A      1.512421   321A      1.522108  
     322A      1.529264   323A      1.542770   324A      1.547637  
     325A      1.556654   326A      1.561778   327A      1.568873  
     328A      1.572433   329A      1.579284   330A      1.583206  
     331A      1.587714   332A      1.595126   333A      1.601756  
     334A      1.608835   335A      1.613374   336A      1.616728  
     337A      1.632898   338A      1.635975   339A      1.645738  
     340A      1.655877   341A      1.658103   342A      1.658277  
     343A      1.673113   344A      1.678445   345A      1.688705  
     346A      1.694970   347A      1.699947   348A      1.702670  
     349A      1.711572   350A      1.720731   351A      1.726082  
     352A      1.735202   353A      1.740268   354A      1.754206  
     355A      1.761435   356A      1.769676   357A      1.774088  
     358A      1.778096   359A      1.787992   360A      1.790030  
     361A      1.798103   362A      1.802313   363A      1.808646  
     364A      1.819274   365A      1.825860   366A      1.828739  
     367A      1.833933   368A      1.843290   369A      1.858501  
     370A      1.860568   371A      1.865096   372A      1.871999  
     373A      1.874217   374A      1.883023   375A      1.890675  
     376A      1.900004   377A      1.911745   378A      1.921355  
     379A      1.925778   380A      1.932321   381A      1.937174  
     382A      1.948461   383A      1.954242   384A      1.959347  
     385A      1.967041   386A      1.972700   387A      1.987750  
     388A      1.993393   389A      2.007015   390A      2.012076  
     391A      2.015840   392A      2.028770   393A      2.034091  
     394A      2.040829   395A      2.045972   396A      2.059710  
     397A      2.065789   398A      2.067817   399A      2.080314  
     400A      2.083318   401A      2.097322   402A      2.105708  
     403A      2.109910   404A      2.120982   405A      2.122019  
     406A      2.140415   407A      2.161606   408A      2.165573  
     409A      2.171445   410A      2.174061   411A      2.186960  
     412A      2.192066   413A      2.204684   414A      2.206450  
     415A      2.216812   416A      2.223836   417A      2.239321  
     418A      2.244936   419A      2.257285   420A      2.271330  
     421A      2.283699   422A      2.292406   423A      2.310773  
     424A      2.320359   425A      2.326242   426A      2.342913  
     427A      2.352024   428A      2.369293   429A      2.390583  
     430A      2.395747   431A      2.400158   432A      2.417435  
     433A      2.431637   434A      2.434256   435A      2.441659  
     436A      2.455305   437A      2.464464   438A      2.479352  
     439A      2.488610   440A      2.504586   441A      2.513794  
     442A      2.530181   443A      2.545944   444A      2.551456  
     445A      2.567306   446A      2.574732   447A      2.600466  
     448A      2.601841   449A      2.625986   450A      2.641609  
     451A      2.647455   452A      2.650887   453A      2.665657  
     454A      2.676355   455A      2.682103   456A      2.705028  
     457A      2.714467   458A      2.716656   459A      2.731476  
     460A      2.748136   461A      2.770412   462A      2.782455  
     463A      2.788754   464A      2.800621   465A      2.803664  
     466A      2.810943   467A      2.821182   468A      2.826332  
     469A      2.846333   470A      2.854105   471A      2.865236  
     472A      2.868389   473A      2.886521   474A      2.900220  
     475A      2.901207   476A      2.923937   477A      2.930750  
     478A      2.939538   479A      2.944594   480A      2.960535  
     481A      2.966716   482A      2.979757   483A      2.982200  
     484A      3.001406   485A      3.001936   486A      3.011246  
     487A      3.015003   488A      3.030285   489A      3.056128  
     490A      3.059331   491A      3.065285   492A      3.065980  
     493A      3.077472   494A      3.087594   495A      3.101252  
     496A      3.107366   497A      3.111025   498A      3.134662  
     499A      3.147072   500A      3.154178   501A      3.170394  
     502A      3.171912   503A      3.180888   504A      3.194721  
     505A      3.201886   506A      3.205257   507A      3.221007  
     508A      3.238201   509A      3.247416   510A      3.258455  
     511A      3.274454   512A      3.283387   513A      3.291215  
     514A      3.309100   515A      3.321133   516A      3.331689  
     517A      3.340889   518A      3.347874   519A      3.370290  
     520A      3.375925   521A      3.400265   522A      3.415091  
     523A      3.437824   524A      3.472211   525A      3.484956  
     526A      3.503480   527A      3.522950   528A      3.541947  
     529A      3.565495   530A      3.581474   531A      3.597768  
     532A      3.624530   533A      3.634332   534A      3.649480  
     535A      3.657742   536A      3.660508   537A      3.690096  
     538A      3.700451   539A      3.715506   540A      3.734746  
     541A      3.737322   542A      3.752391   543A      3.775978  
     544A      3.785324   545A      3.789214   546A      3.819140  
     547A      3.834606   548A      3.856599   549A      3.868039  
     550A      3.873499   551A      3.884327   552A      3.888862  
     553A      3.895632   554A      3.912815   555A      3.925840  
     556A      3.952606   557A      3.954954   558A      3.958117  
     559A      3.978351   560A      3.985721   561A      4.003939  
     562A      4.006533   563A      4.014936   564A      4.030845  
     565A      4.045100   566A      4.054998   567A      4.063744  
     568A      4.073549   569A      4.083257   570A      4.093247  
     571A      4.102378   572A      4.105405   573A      4.114606  
     574A      4.126949   575A      4.135772   576A      4.142869  
     577A      4.154912   578A      4.162649   579A      4.170925  
     580A      4.173338   581A      4.198462   582A      4.216385  
     583A      4.228920   584A      4.235565   585A      4.242624  
     586A      4.258142   587A      4.271449   588A      4.285232  
     589A      4.290763   590A      4.304395   591A      4.317330  
     592A      4.330374   593A      4.340439   594A      4.352089  
     595A      4.365405   596A      4.375432   597A      4.384748  
     598A      4.397774   599A      4.414008   600A      4.433766  
     601A      4.437619   602A      4.443816   603A      4.466497  
     604A      4.470467   605A      4.484114   606A      4.495164  
     607A      4.504058   608A      4.515010   609A      4.522586  
     610A      4.539671   611A      4.546335   612A      4.561978  
     613A      4.570590   614A      4.575419   615A      4.597025  
     616A      4.602786   617A      4.614743   618A      4.618799  
     619A      4.633651   620A      4.637497   621A      4.649796  
     622A      4.663118   623A      4.680816   624A      4.686687  
     625A      4.705191   626A      4.721861   627A      4.726109  
     628A      4.731060   629A      4.743293   630A      4.756891  
     631A      4.768692   632A      4.779262   633A      4.790119  
     634A      4.797389   635A      4.817445   636A      4.826905  
     637A      4.853982   638A      4.862835   639A      4.871310  
     640A      4.888593   641A      4.900852   642A      4.906820  
     643A      4.916839   644A      4.916999   645A      4.935457  
     646A      4.955479   647A      4.964485   648A      4.991963  
     649A      4.997664   650A      4.999484   651A      5.019066  
     652A      5.026163   653A      5.036861   654A      5.040639  
     655A      5.061916   656A      5.075110   657A      5.081647  
     658A      5.089853   659A      5.103545   660A      5.109750  
     661A      5.119261   662A      5.133219   663A      5.151478  
     664A      5.163132   665A      5.176726   666A      5.183147  
     667A      5.208492   668A      5.213551   669A      5.224735  
     670A      5.232851   671A      5.256676   672A      5.279988  
     673A      5.297743   674A      5.304824   675A      5.328396  
     676A      5.332539   677A      5.356659   678A      5.367176  
     679A      5.376795   680A      5.380071   681A      5.392783  
     682A      5.404502   683A      5.418356   684A      5.430179  
     685A      5.441281   686A      5.469933   687A      5.481591  
     688A      5.483039   689A      5.501312   690A      5.508615  
     691A      5.513872   692A      5.525701   693A      5.552584  
     694A      5.559060   695A      5.583629   696A      5.588787  
     697A      5.598346   698A      5.625999   699A      5.641004  
     700A      5.655506   701A      5.659089   702A      5.667750  
     703A      5.690358   704A      5.716873   705A      5.734389  
     706A      5.741525   707A      5.756591   708A      5.767709  
     709A      5.808410   710A      5.828143   711A      5.844483  
     712A      5.865494   713A      5.893735   714A      5.910073  
     715A      5.925585   716A      5.960092   717A      6.005822  
     718A      6.018654   719A      6.052615   720A      6.066796  
     721A      6.072536   722A      6.107000   723A      6.144579  
     724A      6.212080   725A      6.236807   726A      6.269372  
     727A      6.316121   728A      6.317344   729A      6.330665  
     730A      6.371538   731A      6.413481   732A      6.475888  
     733A      6.584712   734A      6.680110   735A      6.699777  
     736A      6.725587   737A      6.726576   738A      6.742471  
     739A      6.760049   740A      6.781391   741A      6.795933  
     742A      6.836793   743A      6.862625   744A      6.896941  
     745A      6.958809   746A      6.979663   747A      6.992364  
     748A      7.009909   749A      7.014097   750A      7.034546  
     751A      7.045447   752A      7.049631   753A      7.060399  
     754A      7.083938   755A      7.112419   756A      7.125210  
     757A      7.138361   758A      7.153743   759A      7.158683  
     760A      7.170183   761A      7.187207   762A      7.289716  
     763A      7.315589   764A      7.327257   765A      7.335412  
     766A      7.336796   767A      7.346799   768A      7.370445  
     769A      7.393232   770A      7.398805   771A      7.412083  
     772A      7.426372   773A      7.442497   774A      7.483290  
     775A      7.489401   776A      7.506705   777A      7.521678  
     778A      7.526488   779A      7.545126   780A      7.552004  
     781A      7.565823   782A      7.580088   783A      7.591560  
     784A      7.613621   785A      7.621464   786A      7.701308  
     787A      7.722129   788A      7.731702   789A      7.769235  
     790A      7.788702   791A      7.803324   792A      7.835791  
     793A      7.870307   794A      7.881198   795A      7.888383  
     796A      7.911590   797A      7.935816   798A      7.975681  
     799A      8.005548   800A      8.038089   801A      8.051510  
     802A      8.064277   803A      8.113895   804A      8.150572  
     805A      8.252006   806A      8.278871   807A      8.317963  
     808A      8.332194   809A      8.354946   810A      8.452291  
     811A      8.536682   812A      8.605391   813A      8.648813  
     814A      8.676887   815A      8.696969   816A      8.743036  
     817A     16.242263   818A     16.452503   819A     16.642022  
     820A     16.970090   821A     17.203826   822A     17.260066  
     823A     18.615570   824A     18.741908   825A     18.843968  
     826A     19.003401   827A     19.630633   828A     20.295141  

    Final Occupation by Irrep:
              A 
    DOCC [    48 ]

  @DF-RHF Final Energy:  -683.60219820324983

   => Energetics <=

    Nuclear Repulsion Energy =            823.8579245404066569
    One-Electron Energy =               -2576.0035556569982873
    Two-Electron Energy =                1068.5434329133418032
    Total Energy =                       -683.6021982032498272

Computation Completed

*** tstop() called on node96.bme.utexas.edu at Wed Nov  4 04:46:09 2020
Module time:
	user time   =     586.05 seconds =       9.77 minutes
	system time =      61.87 seconds =       1.03 minutes
	total time  =        328 seconds =       5.47 minutes
Total time:
	user time   =     586.05 seconds =       9.77 minutes
	system time =      61.87 seconds =       1.03 minutes
	total time  =        328 seconds =       5.47 minutes
   => Loading Basis Set <=

    Name: (AUG-CC-PVTZ AUX)
    Role: RIFIT
    Keyword: DF_BASIS_MP2
    atoms 1-6   entry O          line   264 file /home/xy3866/psi4conda/share/psi4/basis/aug-cc-pvtz-ri.gbs 
    atoms 7-12  entry C          line   148 file /home/xy3866/psi4conda/share/psi4/basis/aug-cc-pvtz-ri.gbs 
    atoms 13-24 entry H          line    30 file /home/xy3866/psi4conda/share/psi4/basis/aug-cc-pvtz-ri.gbs 


*** tstart() called on node96.bme.utexas.edu
*** at Wed Nov  4 04:46:09 2020


  //>>>>>>>>>>>>>>>>>>>>>>>>>>>>>>>>>>>//
  //               DFMP2               //
  //<<<<<<<<<<<<<<<<<<<<<<<<<<<<<<<<<<<//

	 --------------------------------------------------------
	                          DF-MP2                         
	      2nd-Order Density-Fitted Moller-Plesset Theory     
	              RMP2 Wavefunction,   8 Threads             
	                                                         
	        Rob Parrish, Justin Turney, Andy Simmonett,      
	           Ed Hohenstein, and C. David Sherrill          
	 --------------------------------------------------------

   => Auxiliary Basis Set <=

  Basis Set: (AUG-CC-PVTZ AUX)
    Blend: AUG-CC-PVTZ-RI
    Number of shells: 504
    Number of basis function: 1824
    Number of Cartesian functions: 2292
    Spherical Harmonics?: true
    Max angular momentum: 4

	 --------------------------------------------------------
	                 NBF =   828, NAUX =  1824
	 --------------------------------------------------------
	   CLASS    FOCC     OCC    AOCC    AVIR     VIR    FVIR
	   PAIRS       0      48      48     780     780       0
	 --------------------------------------------------------

  DFHelper Memory: AOs need 8.733 GiB; user supplied 22.352 GiB. Using in-core AOs.


         ------------------------------------------------------------
                                     CPHF                           
                                  Rob Parrish                       
         ------------------------------------------------------------

  ==> Geometry <==

    Molecular point group: c1
    Full point group: C1

    Geometry (in Angstrom), charge = 0, multiplicity = 1:

       Center              X                  Y                   Z               Mass       
    ------------   -----------------  -----------------  -----------------  -----------------
         O           -0.736955620297    -1.142203143533    -0.226848090545    15.994914619570
         O           -0.762494320297     2.562411356467     0.204844709455    15.994914619570
         O            1.976750679703     1.995811356467    -0.338956290545    15.994914619570
         O            2.902059679703    -0.657533643533     0.173283709455    15.994914619570
         O            0.906168679703    -2.709372643533    -0.063526290545    15.994914619570
         O           -3.423449320297    -0.870878643533     0.193625709455    15.994914619570
         C           -0.330111320297     1.268942356467    -0.234565290545    12.000000000000
         C            1.107863679703     1.020229356467     0.204978709455    12.000000000000
         C           -1.236911320297     0.141975356467     0.234993709455    12.000000000000
         C            1.572665679703    -0.364721643533    -0.218926290545    12.000000000000
         C            0.574684679703    -1.411003643533     0.289951709455    12.000000000000
         C           -2.655766320297     0.218552356467    -0.292767290545    12.000000000000
         H           -0.351715320297     1.319037356467    -1.328886290545     1.007825032230
         H            1.129386679703     1.060753356467     1.315356709455     1.007825032230
         H           -1.270996320297     0.119709356467     1.340228709455     1.007825032230
         H            1.572711679703    -0.409285643533    -1.315838290545     1.007825032230
         H            0.516942679703    -1.398364643533     1.390004709455     1.007825032230
         H           -2.618425320297     0.234237356467    -1.392313290545     1.007825032230
         H           -3.137771320297     1.136921356467     0.049164709455     1.007825032230
         H           -0.836020320297     2.528009356467     1.177431709455     1.007825032230
         H            1.497371679703     2.842160356467    -0.247261290545     1.007825032230
         H            2.993579679703    -0.436328643533     1.117149709455     1.007825032230
         H            1.244738679703    -2.695299643533    -0.976650290545     1.007825032230
         H           -2.900885320297    -1.665797643533    -0.020110290545     1.007825032230

  Nuclear repulsion =  823.857924540406657
  Reference energy  = -683.602198203249827

  ==> Basis Set <==

  Basis Set: AUG-CC-PVTZ
    Blend: AUG-CC-PVTZ
    Number of shells: 276
    Number of basis function: 828
    Number of Cartesian functions: 960
    Spherical Harmonics?: true
    Max angular momentum: 3

  ==> CGRSolver (by Rob Parrish) <==

   Number of roots    =         1
   Preconditioning    =    JACOBI
   Convergence cutoff =     1E-06
   Maximum iterations =       100

  ==> CPHFRHamiltonian (by Rob Parrish) <== 

  ==> MemDFJK: Density-Fitted J/K Matrices <==

    J tasked:                   Yes
    K tasked:                   Yes
    wK tasked:                   No
    OpenMP threads:               8
    Memory [MiB]:             22888
    Algorithm:                 Disk
    Schwarz Cutoff:           1E-12
    Mask sparsity (%):       7.2300
    Fitting Condition:        1E-10

   => Auxiliary Basis Set <=

  Basis Set: (AUG-CC-PVTZ AUX)
    Blend: AUG-CC-PVTZ-JKFIT
    Number of shells: 528
    Number of basis function: 1800
    Number of Cartesian functions: 2232
    Spherical Harmonics?: true
    Max angular momentum: 4

  ==> CPHF Iterations <==

  => Iterations <=

             Iter  Converged  Remaining    Residual
  CGR           1          0          1   8.431E-02
  CGR           2          0          1   1.935E-02
  CGR           3          0          1   7.655E-03
  CGR           4          0          1   1.847E-03
  CGR           5          0          1   4.470E-04
  CGR           6          0          1   1.531E-04
  CGR           7          0          1   4.077E-05
  CGR           8          0          1   1.448E-05
  CGR           9          0          1   4.685E-06
  CGR          10          0          1   1.414E-06
  CGR          11          1          0   5.279E-07

    CGRSolver converged.

	-----------------------------------------------------------
	 ==================> DF-MP2 Energies <==================== 
	-----------------------------------------------------------
	 Reference Energy          =    -683.6021982032498272 [Eh]
	 Singles Energy            =      -0.0000000000000000 [Eh]
	 Same-Spin Energy          =      -0.6656024639883449 [Eh]
	 Opposite-Spin Energy      =      -2.0455239858267404 [Eh]
	 Correlation Energy        =      -2.7111264498150853 [Eh]
	 Total Energy              =    -686.3133246530649103 [Eh]
	-----------------------------------------------------------
	 ================> DF-SCS-MP2 Energies <================== 
	-----------------------------------------------------------
	 SCS Same-Spin Scale       =       0.3333333333333333 [-]
	 SCS Opposite-Spin Scale   =       1.2000000000000000 [-]
	 SCS Same-Spin Energy      =      -0.2218674879961149 [Eh]
	 SCS Opposite-Spin Energy  =      -2.4546287829920885 [Eh]
	 SCS Correlation Energy    =      -2.6764962709882036 [Eh]
	 SCS Total Energy          =    -686.2786944742380228 [Eh]
	-----------------------------------------------------------



Properties will be evaluated at  -0.000000,   0.000000,   0.000000 [a0]

Properties computed using the MP2 density matrix

  Nuclear Dipole Moment: [e a0]
     X:    -2.0218      Y:     2.4670      Z:     1.0387

  Electronic Dipole Moment: [e a0]
     X:     2.1228      Y:    -1.7897      Z:    -0.5122

  Dipole Moment: [e a0]
     X:     0.1010      Y:     0.6773      Z:     0.5265     Total:     0.8638

  Dipole Moment: [D]
     X:     0.2566      Y:     1.7216      Z:     1.3382     Total:     2.1956


*** tstop() called on node96.bme.utexas.edu at Wed Nov  4 04:57:16 2020
Module time:
	user time   =    2401.42 seconds =      40.02 minutes
	system time =      83.00 seconds =       1.38 minutes
	total time  =        667 seconds =      11.12 minutes
Total time:
	user time   =    2988.04 seconds =      49.80 minutes
	system time =     144.89 seconds =       2.41 minutes
	total time  =        995 seconds =      16.58 minutes

    Psi4 stopped on: Wednesday, 04 November 2020 04:57AM
    Psi4 wall time for execution: 0:16:35.20

*** Psi4 exiting successfully. Buy a developer a beer!
