
    -----------------------------------------------------------------------
          Psi4: An Open-Source Ab Initio Electronic Structure Package
                               Psi4 1.3.2 release

                         Git: Rev {HEAD} ecbda83 


    R. M. Parrish, L. A. Burns, D. G. A. Smith, A. C. Simmonett,
    A. E. DePrince III, E. G. Hohenstein, U. Bozkaya, A. Yu. Sokolov,
    R. Di Remigio, R. M. Richard, J. F. Gonthier, A. M. James,
    H. R. McAlexander, A. Kumar, M. Saitow, X. Wang, B. P. Pritchard,
    P. Verma, H. F. Schaefer III, K. Patkowski, R. A. King, E. F. Valeev,
    F. A. Evangelista, J. M. Turney, T. D. Crawford, and C. D. Sherrill,
    J. Chem. Theory Comput. 13(7) pp 3185--3197 (2017).
    (doi: 10.1021/acs.jctc.7b00174)


                         Additional Contributions by
    P. Kraus, H. Kruse, M. H. Lechner, M. C. Schieber, R. A. Shaw,
    A. Alenaizan, R. Galvelis, Z. L. Glick, S. Lehtola, and J. P. Misiewicz

    -----------------------------------------------------------------------


    Psi4 started on: Wednesday, 04 November 2020 08:05AM

    Process ID: 116227
    Host:       node96.bme.utexas.edu
    PSIDATADIR: /home/xy3866/psi4conda/share/psi4
    Memory:     500.0 MiB
    Threads:    8
    
  ==> Input File <==

--------------------------------------------------------------------------
#psi4
#
memory 32 gb

molecule  {
0 1
  O       -0.7087550    -1.1193400    -0.2546710
  O       -0.8296418     2.5004652     0.2467923
  O        1.9863450     1.9788980    -0.3426730
  O        2.9116540    -0.6744470     0.1695670
  O        0.9157630    -2.7262860    -0.0672430
  O       -3.4138550    -0.8877920     0.1899090
  C       -0.3205170     1.2520290    -0.2382820
  C        1.1174580     1.0033160     0.2012620
  C       -1.2273170     0.1250620     0.2312770
  C        1.5822600    -0.3816350    -0.2226430
  C        0.5842790    -1.4279170     0.2862350
  C       -2.6461720     0.2016390    -0.2964840
  H       -0.3421210     1.3021240    -1.3326030
  H        1.1389810     1.0438400     1.3116400
  H       -1.2614020     0.1027960     1.3365120
  H        1.5823060    -0.4261990    -1.3195550
  H        0.5265370    -1.4152780     1.3862880
  H       -2.6088310     0.2173240    -1.3960300
  H       -3.1281770     1.1200080     0.0454480
  H       -0.8264260     2.5110960     1.1737150
  H        1.5069660     2.8252470    -0.2509780
  H        3.0031740    -0.4532420     1.1134330
  H        1.2543330    -2.7122130    -0.9803670
  H       -2.8912910    -1.6827110    -0.0238270
units angstrom
no_reorient  #important for SAPT in psi4, default
symmetry c1  #important for SAPT in psi4, default
}

set PROPERTIES_ORIGIN ["COM"]
properties('MP2/aug-cc-pvtz', properties = ['dipole'])
--------------------------------------------------------------------------

  Memory set to  29.802 GiB by Python driver.
    SCF Algorithm Type (re)set to DF.

*** tstart() called on node96.bme.utexas.edu
*** at Wed Nov  4 08:05:45 2020

   => Loading Basis Set <=

    Name: AUG-CC-PVTZ
    Role: ORBITAL
    Keyword: BASIS
    atoms 1-6   entry O          line   327 file /home/xy3866/psi4conda/share/psi4/basis/aug-cc-pvtz.gbs 
    atoms 7-12  entry C          line   235 file /home/xy3866/psi4conda/share/psi4/basis/aug-cc-pvtz.gbs 
    atoms 13-24 entry H          line    36 file /home/xy3866/psi4conda/share/psi4/basis/aug-cc-pvtz.gbs 


         ---------------------------------------------------------
                                   SCF
               by Justin Turney, Rob Parrish, Andy Simmonett
                          and Daniel G. A. Smith
                              RHF Reference
                        8 Threads,  30517 MiB Core
         ---------------------------------------------------------

  ==> Geometry <==

    Molecular point group: c1
    Full point group: C1

    Geometry (in Angstrom), charge = 0, multiplicity = 1:

       Center              X                  Y                   Z               Mass       
    ------------   -----------------  -----------------  -----------------  -----------------
         O           -0.713185181331    -1.101959729795    -0.252869282662    15.994914619570
         O           -0.834071981331     2.517845470205     0.248594017338    15.994914619570
         O            1.981914818669     1.996278270205    -0.340871282662    15.994914619570
         O            2.907223818669    -0.657066729795     0.171368717338    15.994914619570
         O            0.911332818669    -2.708905729795    -0.065441282662    15.994914619570
         O           -3.418285181331    -0.870411729795     0.191710717338    15.994914619570
         C           -0.324947181331     1.269409270205    -0.236480282662    12.000000000000
         C            1.113027818669     1.020696270205     0.203063717338    12.000000000000
         C           -1.231747181331     0.142442270205     0.233078717338    12.000000000000
         C            1.577829818669    -0.364254729795    -0.220841282662    12.000000000000
         C            0.579848818669    -1.410536729795     0.288036717338    12.000000000000
         C           -2.650602181331     0.219019270205    -0.294682282662    12.000000000000
         H           -0.346551181331     1.319504270205    -1.330801282662     1.007825032230
         H            1.134550818669     1.061220270205     1.313441717338     1.007825032230
         H           -1.265832181331     0.120176270205     1.338313717338     1.007825032230
         H            1.577875818669    -0.408818729795    -1.317753282662     1.007825032230
         H            0.522106818669    -1.397897729795     1.388089717338     1.007825032230
         H           -2.613261181331     0.234704270205    -1.394228282662     1.007825032230
         H           -3.132607181331     1.137388270205     0.047249717338     1.007825032230
         H           -0.830856181331     2.528476270205     1.175516717338     1.007825032230
         H            1.502535818669     2.842627270205    -0.249176282662     1.007825032230
         H            2.998743818669    -0.435861729795     1.115234717338     1.007825032230
         H            1.249902818669    -2.694832729795    -0.978565282662     1.007825032230
         H           -2.895721181331    -1.665330729795    -0.022025282662     1.007825032230

  Running in c1 symmetry.

  Rotational constants: A =      0.03880  B =      0.02639  C =      0.01645 [cm^-1]
  Rotational constants: A =   1163.27236  B =    791.19375  C =    493.01643 [MHz]
  Nuclear repulsion =  825.144900095797880

  Charge       = 0
  Multiplicity = 1
  Electrons    = 96
  Nalpha       = 48
  Nbeta        = 48

  ==> Algorithm <==

  SCF Algorithm Type is DF.
  DIIS enabled.
  MOM disabled.
  Fractional occupation disabled.
  Guess Type is SAD.
  Energy threshold   = 1.00e-10
  Density threshold  = 1.00e-10
  Integral threshold = 0.00e+00

  ==> Primary Basis <==

  Basis Set: AUG-CC-PVTZ
    Blend: AUG-CC-PVTZ
    Number of shells: 276
    Number of basis function: 828
    Number of Cartesian functions: 960
    Spherical Harmonics?: true
    Max angular momentum: 3

   => Loading Basis Set <=

    Name: (AUG-CC-PVTZ AUX)
    Role: JKFIT
    Keyword: DF_BASIS_SCF
    atoms 1-6   entry O          line   286 file /home/xy3866/psi4conda/share/psi4/basis/aug-cc-pvtz-jkfit.gbs 
    atoms 7-12  entry C          line   162 file /home/xy3866/psi4conda/share/psi4/basis/aug-cc-pvtz-jkfit.gbs 
    atoms 13-24 entry H          line    70 file /home/xy3866/psi4conda/share/psi4/basis/aug-cc-pvtz-jkfit.gbs 

  ==> Pre-Iterations <==

   -------------------------------------------------------
    Irrep   Nso     Nmo     Nalpha   Nbeta   Ndocc  Nsocc
   -------------------------------------------------------
     A        828     828       0       0       0       0
   -------------------------------------------------------
    Total     828     828      48      48      48       0
   -------------------------------------------------------

  ==> Integral Setup <==

  DFHelper Memory: AOs need 8.735 GiB; user supplied 22.352 GiB. Using in-core AOs.

  ==> MemDFJK: Density-Fitted J/K Matrices <==

    J tasked:                   Yes
    K tasked:                   Yes
    wK tasked:                   No
    OpenMP threads:               8
    Memory [MiB]:             22888
    Algorithm:                 Disk
    Schwarz Cutoff:           1E-12
    Mask sparsity (%):       7.2064
    Fitting Condition:        1E-10

   => Auxiliary Basis Set <=

  Basis Set: (AUG-CC-PVTZ AUX)
    Blend: AUG-CC-PVTZ-JKFIT
    Number of shells: 528
    Number of basis function: 1800
    Number of Cartesian functions: 2232
    Spherical Harmonics?: true
    Max angular momentum: 4

  Minimum eigenvalue in the overlap matrix is 1.7993208554E-06.
  Using Symmetric Orthogonalization.

  SCF Guess: Superposition of Atomic Densities via on-the-fly atomic UHF.

  ==> Iterations <==

                           Total Energy        Delta E     RMS |[F,P]|

   @DF-RHF iter SAD:  -682.99223537668490   -6.82992e+02   0.00000e+00 
   @DF-RHF iter   1:  -683.23309671196000   -2.40861e-01   1.05505e-03 DIIS
   @DF-RHF iter   2:  -683.52549425965253   -2.92398e-01   5.77819e-04 DIIS
   @DF-RHF iter   3:  -683.59868080943966   -7.31865e-02   1.07838e-04 DIIS
   @DF-RHF iter   4:  -683.60365898846749   -4.97818e-03   3.55296e-05 DIIS
   @DF-RHF iter   5:  -683.60414604293464   -4.87054e-04   7.89115e-06 DIIS
   @DF-RHF iter   6:  -683.60418168453725   -3.56416e-05   2.22188e-06 DIIS
   @DF-RHF iter   7:  -683.60418525840680   -3.57387e-06   8.83242e-07 DIIS
   @DF-RHF iter   8:  -683.60418564321083   -3.84804e-07   2.72952e-07 DIIS
   @DF-RHF iter   9:  -683.60418569102148   -4.78107e-08   7.25130e-08 DIIS
   @DF-RHF iter  10:  -683.60418569383103   -2.80954e-09   2.12701e-08 DIIS
   @DF-RHF iter  11:  -683.60418569408921   -2.58183e-10   5.87779e-09 DIIS
   @DF-RHF iter  12:  -683.60418569410695   -1.77351e-11   2.60256e-09 DIIS
   @DF-RHF iter  13:  -683.60418569411252   -5.57066e-12   6.86518e-10 DIIS
   @DF-RHF iter  14:  -683.60418569411388   -1.36424e-12   1.90857e-10 DIIS
   @DF-RHF iter  15:  -683.60418569411013    3.75167e-12   7.26967e-11 DIIS
  Energy and wave function converged.


  ==> Post-Iterations <==

    Orbital Energies [Eh]
    ---------------------

    Doubly Occupied:                                                      

       1A    -20.591205     2A    -20.586317     3A    -20.583513  
       4A    -20.580283     5A    -20.580208     6A    -20.561294  
       7A    -11.356600     8A    -11.312134     9A    -11.311290  
      10A    -11.306242    11A    -11.305224    12A    -11.285216  
      13A     -1.439529    14A     -1.410327    15A     -1.390348  
      16A     -1.373808    17A     -1.367747    18A     -1.351864  
      19A     -1.082684    20A     -1.050549    21A     -0.946553  
      22A     -0.893787    23A     -0.854484    24A     -0.843395  
      25A     -0.755144    26A     -0.728990    27A     -0.721242  
      28A     -0.716685    29A     -0.694967    30A     -0.674443  
      31A     -0.659992    32A     -0.655582    33A     -0.620007  
      34A     -0.617389    35A     -0.597466    36A     -0.586473  
      37A     -0.570889    38A     -0.561639    39A     -0.557101  
      40A     -0.547426    41A     -0.525402    42A     -0.515206  
      43A     -0.501805    44A     -0.486607    45A     -0.475029  
      46A     -0.461983    47A     -0.446742    48A     -0.430001  

    Virtual:                                                              

      49A      0.019461    50A      0.030411    51A      0.033871  
      52A      0.037530    53A      0.046886    54A      0.051037  
      55A      0.051267    56A      0.053972    57A      0.059612  
      58A      0.072219    59A      0.074051    60A      0.076880  
      61A      0.097035    62A      0.100480    63A      0.109760  
      64A      0.111332    65A      0.113709    66A      0.116318  
      67A      0.121509    68A      0.125856    69A      0.129907  
      70A      0.132282    71A      0.138248    72A      0.140240  
      73A      0.141345    74A      0.142410    75A      0.153044  
      76A      0.153813    77A      0.158039    78A      0.160103  
      79A      0.172325    80A      0.182029    81A      0.185448  
      82A      0.189082    83A      0.191310    84A      0.198215  
      85A      0.206770    86A      0.216306    87A      0.218449  
      88A      0.229927    89A      0.231570    90A      0.240997  
      91A      0.243282    92A      0.248925    93A      0.250050  
      94A      0.251407    95A      0.256578    96A      0.259568  
      97A      0.264212    98A      0.269027    99A      0.271841  
     100A      0.274196   101A      0.279344   102A      0.288186  
     103A      0.291565   104A      0.292751   105A      0.299763  
     106A      0.302340   107A      0.303460   108A      0.311290  
     109A      0.312537   110A      0.321501   111A      0.324613  
     112A      0.330959   113A      0.332569   114A      0.335274  
     115A      0.347868   116A      0.352151   117A      0.353848  
     118A      0.356355   119A      0.359713   120A      0.368884  
     121A      0.373846   122A      0.377373   123A      0.384926  
     124A      0.389399   125A      0.396543   126A      0.399503  
     127A      0.404999   128A      0.406763   129A      0.413668  
     130A      0.416447   131A      0.419532   132A      0.425132  
     133A      0.430253   134A      0.432574   135A      0.440097  
     136A      0.443169   137A      0.444899   138A      0.451064  
     139A      0.455086   140A      0.458953   141A      0.463873  
     142A      0.467650   143A      0.469352   144A      0.476528  
     145A      0.479795   146A      0.487706   147A      0.493477  
     148A      0.495211   149A      0.501689   150A      0.504353  
     151A      0.511288   152A      0.515704   153A      0.516488  
     154A      0.521808   155A      0.523167   156A      0.526285  
     157A      0.528812   158A      0.534566   159A      0.539675  
     160A      0.542069   161A      0.545387   162A      0.551855  
     163A      0.559508   164A      0.565298   165A      0.570452  
     166A      0.574358   167A      0.580664   168A      0.582866  
     169A      0.586883   170A      0.590152   171A      0.591194  
     172A      0.595727   173A      0.601479   174A      0.611621  
     175A      0.617203   176A      0.619954   177A      0.620423  
     178A      0.624921   179A      0.632989   180A      0.640141  
     181A      0.649929   182A      0.651822   183A      0.653748  
     184A      0.664196   185A      0.670207   186A      0.675823  
     187A      0.680213   188A      0.686786   189A      0.694151  
     190A      0.702294   191A      0.705092   192A      0.715194  
     193A      0.725215   194A      0.726313   195A      0.731838  
     196A      0.743480   197A      0.751755   198A      0.758466  
     199A      0.766096   200A      0.768551   201A      0.780191  
     202A      0.787884   203A      0.799216   204A      0.801804  
     205A      0.808043   206A      0.816356   207A      0.825794  
     208A      0.828611   209A      0.836619   210A      0.838434  
     211A      0.846036   212A      0.855348   213A      0.863082  
     214A      0.867536   215A      0.874189   216A      0.879451  
     217A      0.883549   218A      0.891616   219A      0.896953  
     220A      0.905237   221A      0.906960   222A      0.912690  
     223A      0.919568   224A      0.925950   225A      0.931315  
     226A      0.940965   227A      0.944064   228A      0.948562  
     229A      0.956309   230A      0.962875   231A      0.966294  
     232A      0.968615   233A      0.975062   234A      0.990983  
     235A      0.995195   236A      0.997807   237A      1.003343  
     238A      1.005659   239A      1.017555   240A      1.024055  
     241A      1.029482   242A      1.036244   243A      1.044076  
     244A      1.045731   245A      1.051578   246A      1.055210  
     247A      1.058868   248A      1.062215   249A      1.066733  
     250A      1.072169   251A      1.078593   252A      1.085771  
     253A      1.094751   254A      1.098294   255A      1.100113  
     256A      1.104531   257A      1.109735   258A      1.114755  
     259A      1.117626   260A      1.124936   261A      1.134884  
     262A      1.139535   263A      1.142412   264A      1.149302  
     265A      1.151801   266A      1.157106   267A      1.165384  
     268A      1.171281   269A      1.173151   270A      1.180520  
     271A      1.186775   272A      1.193289   273A      1.193991  
     274A      1.202226   275A      1.212134   276A      1.217354  
     277A      1.220912   278A      1.226259   279A      1.232484  
     280A      1.241019   281A      1.241458   282A      1.251885  
     283A      1.260309   284A      1.267140   285A      1.275488  
     286A      1.283867   287A      1.286386   288A      1.291084  
     289A      1.295907   290A      1.304428   291A      1.309872  
     292A      1.314715   293A      1.321423   294A      1.334835  
     295A      1.339779   296A      1.343285   297A      1.349364  
     298A      1.360593   299A      1.365757   300A      1.382603  
     301A      1.386405   302A      1.394567   303A      1.400428  
     304A      1.406484   305A      1.410746   306A      1.415631  
     307A      1.424930   308A      1.429818   309A      1.441063  
     310A      1.442517   311A      1.455326   312A      1.459247  
     313A      1.465450   314A      1.469916   315A      1.473701  
     316A      1.483309   317A      1.488593   318A      1.500232  
     319A      1.504538   320A      1.512103   321A      1.524218  
     322A      1.531807   323A      1.539909   324A      1.550127  
     325A      1.554230   326A      1.562163   327A      1.568280  
     328A      1.571270   329A      1.579039   330A      1.585567  
     331A      1.586357   332A      1.597101   333A      1.600845  
     334A      1.609951   335A      1.614001   336A      1.616438  
     337A      1.633533   338A      1.638814   339A      1.647527  
     340A      1.651131   341A      1.655764   342A      1.657582  
     343A      1.671476   344A      1.681063   345A      1.690967  
     346A      1.693840   347A      1.699368   348A      1.703007  
     349A      1.715884   350A      1.724628   351A      1.729748  
     352A      1.733588   353A      1.743716   354A      1.754395  
     355A      1.763020   356A      1.767006   357A      1.774234  
     358A      1.775986   359A      1.788220   360A      1.789535  
     361A      1.793090   362A      1.802224   363A      1.809653  
     364A      1.822562   365A      1.827261   366A      1.827785  
     367A      1.837317   368A      1.843425   369A      1.858558  
     370A      1.862417   371A      1.866641   372A      1.874065  
     373A      1.874990   374A      1.883626   375A      1.894028  
     376A      1.904424   377A      1.915748   378A      1.921033  
     379A      1.929203   380A      1.934666   381A      1.937087  
     382A      1.945859   383A      1.954245   384A      1.961571  
     385A      1.971083   386A      1.976261   387A      1.989099  
     388A      1.997396   389A      2.003377   390A      2.011662  
     391A      2.016427   392A      2.028037   393A      2.034925  
     394A      2.039848   395A      2.048065   396A      2.062327  
     397A      2.068853   398A      2.069825   399A      2.077767  
     400A      2.085681   401A      2.098665   402A      2.108555  
     403A      2.118882   404A      2.122794   405A      2.132955  
     406A      2.144724   407A      2.163556   408A      2.169325  
     409A      2.174351   410A      2.177668   411A      2.187201  
     412A      2.193165   413A      2.207963   414A      2.214406  
     415A      2.219397   416A      2.221486   417A      2.238251  
     418A      2.247732   419A      2.260346   420A      2.271988  
     421A      2.285315   422A      2.296089   423A      2.312239  
     424A      2.323207   425A      2.330422   426A      2.340994  
     427A      2.356500   428A      2.373077   429A      2.387272  
     430A      2.397386   431A      2.400275   432A      2.419653  
     433A      2.428400   434A      2.433436   435A      2.441458  
     436A      2.455484   437A      2.466184   438A      2.483369  
     439A      2.494056   440A      2.501114   441A      2.522227  
     442A      2.531365   443A      2.541879   444A      2.554349  
     445A      2.560395   446A      2.578854   447A      2.597078  
     448A      2.604345   449A      2.622402   450A      2.639799  
     451A      2.646930   452A      2.651342   453A      2.667143  
     454A      2.677067   455A      2.686361   456A      2.704209  
     457A      2.717637   458A      2.728000   459A      2.741020  
     460A      2.747539   461A      2.767668   462A      2.784860  
     463A      2.788134   464A      2.794905   465A      2.806384  
     466A      2.813437   467A      2.821267   468A      2.834913  
     469A      2.843843   470A      2.859445   471A      2.868185  
     472A      2.873716   473A      2.884424   474A      2.899314  
     475A      2.902111   476A      2.922672   477A      2.934862  
     478A      2.941018   479A      2.949776   480A      2.952273  
     481A      2.971845   482A      2.972949   483A      2.984651  
     484A      2.994004   485A      3.001187   486A      3.016626  
     487A      3.028043   488A      3.030079   489A      3.044617  
     490A      3.055559   491A      3.066619   492A      3.074680  
     493A      3.081056   494A      3.095854   495A      3.098108  
     496A      3.099336   497A      3.114086   498A      3.135884  
     499A      3.147811   500A      3.152278   501A      3.167220  
     502A      3.170984   503A      3.178304   504A      3.198306  
     505A      3.201106   506A      3.207515   507A      3.209945  
     508A      3.248175   509A      3.251549   510A      3.257074  
     511A      3.271977   512A      3.287992   513A      3.300965  
     514A      3.307761   515A      3.324961   516A      3.330518  
     517A      3.337919   518A      3.349092   519A      3.371886  
     520A      3.382863   521A      3.397718   522A      3.415243  
     523A      3.433252   524A      3.471764   525A      3.485835  
     526A      3.504845   527A      3.521927   528A      3.544766  
     529A      3.568032   530A      3.582851   531A      3.598674  
     532A      3.625732   533A      3.637664   534A      3.648081  
     535A      3.660766   536A      3.661522   537A      3.693664  
     538A      3.708326   539A      3.719888   540A      3.735392  
     541A      3.741580   542A      3.757072   543A      3.774673  
     544A      3.784817   545A      3.797959   546A      3.823348  
     547A      3.838428   548A      3.856772   549A      3.869583  
     550A      3.881527   551A      3.888040   552A      3.898992  
     553A      3.902671   554A      3.918470   555A      3.929225  
     556A      3.951568   557A      3.958615   558A      3.961111  
     559A      3.982043   560A      3.988700   561A      4.005221  
     562A      4.013536   563A      4.024591   564A      4.036597  
     565A      4.054147   566A      4.064880   567A      4.066238  
     568A      4.081512   569A      4.089049   570A      4.096090  
     571A      4.104874   572A      4.105931   573A      4.118468  
     574A      4.129954   575A      4.134256   576A      4.142690  
     577A      4.163141   578A      4.169106   579A      4.171086  
     580A      4.184424   581A      4.198545   582A      4.215784  
     583A      4.231614   584A      4.241782   585A      4.249395  
     586A      4.267258   587A      4.273736   588A      4.285911  
     589A      4.296596   590A      4.312153   591A      4.320904  
     592A      4.322392   593A      4.345803   594A      4.362958  
     595A      4.365812   596A      4.380197   597A      4.389569  
     598A      4.401327   599A      4.414601   600A      4.431907  
     601A      4.438927   602A      4.449673   603A      4.465008  
     604A      4.477678   605A      4.488063   606A      4.494771  
     607A      4.501619   608A      4.518370   609A      4.532230  
     610A      4.541755   611A      4.548107   612A      4.563657  
     613A      4.573445   614A      4.578444   615A      4.598439  
     616A      4.615343   617A      4.616442   618A      4.632362  
     619A      4.635985   620A      4.639515   621A      4.654629  
     622A      4.664912   623A      4.686233   624A      4.691404  
     625A      4.713111   626A      4.717982   627A      4.724393  
     628A      4.738289   629A      4.743172   630A      4.761472  
     631A      4.769181   632A      4.780339   633A      4.794383  
     634A      4.802660   635A      4.817284   636A      4.839765  
     637A      4.863704   638A      4.869227   639A      4.874042  
     640A      4.896659   641A      4.902409   642A      4.906153  
     643A      4.925483   644A      4.937053   645A      4.949104  
     646A      4.956819   647A      4.985723   648A      4.997778  
     649A      4.998383   650A      5.005828   651A      5.021939  
     652A      5.033880   653A      5.042072   654A      5.056998  
     655A      5.063000   656A      5.077052   657A      5.084072  
     658A      5.103080   659A      5.109067   660A      5.115442  
     661A      5.132091   662A      5.145293   663A      5.160668  
     664A      5.170061   665A      5.181746   666A      5.188132  
     667A      5.204576   668A      5.215673   669A      5.236170  
     670A      5.240765   671A      5.262161   672A      5.288152  
     673A      5.305073   674A      5.317806   675A      5.337109  
     676A      5.341244   677A      5.361950   678A      5.373216  
     679A      5.379572   680A      5.384949   681A      5.399917  
     682A      5.419387   683A      5.427414   684A      5.443814  
     685A      5.448014   686A      5.477120   687A      5.486201  
     688A      5.491600   689A      5.504828   690A      5.518071  
     691A      5.525013   692A      5.541335   693A      5.560924  
     694A      5.571559   695A      5.586244   696A      5.598043  
     697A      5.617165   698A      5.628969   699A      5.650523  
     700A      5.656670   701A      5.666202   702A      5.685228  
     703A      5.692446   704A      5.736692   705A      5.742764  
     706A      5.762255   707A      5.763730   708A      5.781305  
     709A      5.826342   710A      5.830083   711A      5.843580  
     712A      5.868938   713A      5.910721   714A      5.917490  
     715A      5.934227   716A      5.991770   717A      6.016753  
     718A      6.025901   719A      6.052907   720A      6.074392  
     721A      6.080578   722A      6.107573   723A      6.148250  
     724A      6.233044   725A      6.250544   726A      6.276569  
     727A      6.309345   728A      6.319232   729A      6.332052  
     730A      6.367229   731A      6.408519   732A      6.483828  
     733A      6.590794   734A      6.683528   735A      6.703608  
     736A      6.724639   737A      6.743033   738A      6.752837  
     739A      6.763158   740A      6.775944   741A      6.793130  
     742A      6.849024   743A      6.860758   744A      6.903016  
     745A      6.960899   746A      6.983247   747A      6.995990  
     748A      7.010553   749A      7.018055   750A      7.034424  
     751A      7.044404   752A      7.050352   753A      7.060471  
     754A      7.083671   755A      7.114148   756A      7.134635  
     757A      7.143488   758A      7.154715   759A      7.158144  
     760A      7.171902   761A      7.189327   762A      7.292854  
     763A      7.326379   764A      7.333266   765A      7.335054  
     766A      7.342263   767A      7.374646   768A      7.384434  
     769A      7.400872   770A      7.424919   771A      7.437375  
     772A      7.463616   773A      7.466156   774A      7.486601  
     775A      7.499197   776A      7.512108   777A      7.521360  
     778A      7.541540   779A      7.552207   780A      7.560642  
     781A      7.571917   782A      7.580670   783A      7.597092  
     784A      7.611805   785A      7.633303   786A      7.684095  
     787A      7.728025   788A      7.737320   789A      7.770160  
     790A      7.789380   791A      7.811778   792A      7.830916  
     793A      7.869208   794A      7.884456   795A      7.894001  
     796A      7.917743   797A      7.952498   798A      7.979313  
     799A      8.015076   800A      8.048036   801A      8.061576  
     802A      8.066775   803A      8.112530   804A      8.160272  
     805A      8.254383   806A      8.285346   807A      8.320001  
     808A      8.339822   809A      8.366602   810A      8.461210  
     811A      8.542780   812A      8.609619   813A      8.666810  
     814A      8.678386   815A      8.737112   816A      8.788134  
     817A     16.250760   818A     16.538685   819A     16.644440  
     820A     17.027575   821A     17.218050   822A     17.938386  
     823A     18.633394   824A     18.803214   825A     18.896100  
     826A     19.028331   827A     19.616644   828A     20.341346  

    Final Occupation by Irrep:
              A 
    DOCC [    48 ]

  @DF-RHF Final Energy:  -683.60418569411013

   => Energetics <=

    Nuclear Repulsion Energy =            825.1449000957978797
    One-Electron Energy =               -2578.5525534077141856
    Two-Electron Energy =                1069.8034676178062909
    Total Energy =                       -683.6041856941101287

Computation Completed

*** tstop() called on node96.bme.utexas.edu at Wed Nov  4 08:09:47 2020
Module time:
	user time   =     579.85 seconds =       9.66 minutes
	system time =      60.47 seconds =       1.01 minutes
	total time  =        242 seconds =       4.03 minutes
Total time:
	user time   =     579.85 seconds =       9.66 minutes
	system time =      60.47 seconds =       1.01 minutes
	total time  =        242 seconds =       4.03 minutes
   => Loading Basis Set <=

    Name: (AUG-CC-PVTZ AUX)
    Role: RIFIT
    Keyword: DF_BASIS_MP2
    atoms 1-6   entry O          line   264 file /home/xy3866/psi4conda/share/psi4/basis/aug-cc-pvtz-ri.gbs 
    atoms 7-12  entry C          line   148 file /home/xy3866/psi4conda/share/psi4/basis/aug-cc-pvtz-ri.gbs 
    atoms 13-24 entry H          line    30 file /home/xy3866/psi4conda/share/psi4/basis/aug-cc-pvtz-ri.gbs 


*** tstart() called on node96.bme.utexas.edu
*** at Wed Nov  4 08:09:48 2020


  //>>>>>>>>>>>>>>>>>>>>>>>>>>>>>>>>>>>//
  //               DFMP2               //
  //<<<<<<<<<<<<<<<<<<<<<<<<<<<<<<<<<<<//

	 --------------------------------------------------------
	                          DF-MP2                         
	      2nd-Order Density-Fitted Moller-Plesset Theory     
	              RMP2 Wavefunction,   8 Threads             
	                                                         
	        Rob Parrish, Justin Turney, Andy Simmonett,      
	           Ed Hohenstein, and C. David Sherrill          
	 --------------------------------------------------------

   => Auxiliary Basis Set <=

  Basis Set: (AUG-CC-PVTZ AUX)
    Blend: AUG-CC-PVTZ-RI
    Number of shells: 504
    Number of basis function: 1824
    Number of Cartesian functions: 2292
    Spherical Harmonics?: true
    Max angular momentum: 4

	 --------------------------------------------------------
	                 NBF =   828, NAUX =  1824
	 --------------------------------------------------------
	   CLASS    FOCC     OCC    AOCC    AVIR     VIR    FVIR
	   PAIRS       0      48      48     780     780       0
	 --------------------------------------------------------

  DFHelper Memory: AOs need 8.735 GiB; user supplied 22.352 GiB. Using in-core AOs.


         ------------------------------------------------------------
                                     CPHF                           
                                  Rob Parrish                       
         ------------------------------------------------------------

  ==> Geometry <==

    Molecular point group: c1
    Full point group: C1

    Geometry (in Angstrom), charge = 0, multiplicity = 1:

       Center              X                  Y                   Z               Mass       
    ------------   -----------------  -----------------  -----------------  -----------------
         O           -0.713185181331    -1.101959729795    -0.252869282662    15.994914619570
         O           -0.834071981331     2.517845470205     0.248594017338    15.994914619570
         O            1.981914818669     1.996278270205    -0.340871282662    15.994914619570
         O            2.907223818669    -0.657066729795     0.171368717338    15.994914619570
         O            0.911332818669    -2.708905729795    -0.065441282662    15.994914619570
         O           -3.418285181331    -0.870411729795     0.191710717338    15.994914619570
         C           -0.324947181331     1.269409270205    -0.236480282662    12.000000000000
         C            1.113027818669     1.020696270205     0.203063717338    12.000000000000
         C           -1.231747181331     0.142442270205     0.233078717338    12.000000000000
         C            1.577829818669    -0.364254729795    -0.220841282662    12.000000000000
         C            0.579848818669    -1.410536729795     0.288036717338    12.000000000000
         C           -2.650602181331     0.219019270205    -0.294682282662    12.000000000000
         H           -0.346551181331     1.319504270205    -1.330801282662     1.007825032230
         H            1.134550818669     1.061220270205     1.313441717338     1.007825032230
         H           -1.265832181331     0.120176270205     1.338313717338     1.007825032230
         H            1.577875818669    -0.408818729795    -1.317753282662     1.007825032230
         H            0.522106818669    -1.397897729795     1.388089717338     1.007825032230
         H           -2.613261181331     0.234704270205    -1.394228282662     1.007825032230
         H           -3.132607181331     1.137388270205     0.047249717338     1.007825032230
         H           -0.830856181331     2.528476270205     1.175516717338     1.007825032230
         H            1.502535818669     2.842627270205    -0.249176282662     1.007825032230
         H            2.998743818669    -0.435861729795     1.115234717338     1.007825032230
         H            1.249902818669    -2.694832729795    -0.978565282662     1.007825032230
         H           -2.895721181331    -1.665330729795    -0.022025282662     1.007825032230

  Nuclear repulsion =  825.144900095797880
  Reference energy  = -683.604185694110129

  ==> Basis Set <==

  Basis Set: AUG-CC-PVTZ
    Blend: AUG-CC-PVTZ
    Number of shells: 276
    Number of basis function: 828
    Number of Cartesian functions: 960
    Spherical Harmonics?: true
    Max angular momentum: 3

  ==> CGRSolver (by Rob Parrish) <==

   Number of roots    =         1
   Preconditioning    =    JACOBI
   Convergence cutoff =     1E-06
   Maximum iterations =       100

  ==> CPHFRHamiltonian (by Rob Parrish) <== 

  ==> MemDFJK: Density-Fitted J/K Matrices <==

    J tasked:                   Yes
    K tasked:                   Yes
    wK tasked:                   No
    OpenMP threads:               8
    Memory [MiB]:             22888
    Algorithm:                 Disk
    Schwarz Cutoff:           1E-12
    Mask sparsity (%):       7.2064
    Fitting Condition:        1E-10

   => Auxiliary Basis Set <=

  Basis Set: (AUG-CC-PVTZ AUX)
    Blend: AUG-CC-PVTZ-JKFIT
    Number of shells: 528
    Number of basis function: 1800
    Number of Cartesian functions: 2232
    Spherical Harmonics?: true
    Max angular momentum: 4

  ==> CPHF Iterations <==

  => Iterations <=

             Iter  Converged  Remaining    Residual
  CGR           1          0          1   8.312E-02
  CGR           2          0          1   1.898E-02
  CGR           3          0          1   7.498E-03
  CGR           4          0          1   1.831E-03
  CGR           5          0          1   4.738E-04
  CGR           6          0          1   1.585E-04
  CGR           7          0          1   4.164E-05
  CGR           8          0          1   1.492E-05
  CGR           9          0          1   5.068E-06
  CGR          10          0          1   1.531E-06
  CGR          11          1          0   5.273E-07

    CGRSolver converged.

	-----------------------------------------------------------
	 ==================> DF-MP2 Energies <==================== 
	-----------------------------------------------------------
	 Reference Energy          =    -683.6041856941101287 [Eh]
	 Singles Energy            =      -0.0000000000000000 [Eh]
	 Same-Spin Energy          =      -0.6646984461383755 [Eh]
	 Opposite-Spin Energy      =      -2.0430838123332977 [Eh]
	 Correlation Energy        =      -2.7077822584716733 [Eh]
	 Total Energy              =    -686.3119679525817673 [Eh]
	-----------------------------------------------------------
	 ================> DF-SCS-MP2 Energies <================== 
	-----------------------------------------------------------
	 SCS Same-Spin Scale       =       0.3333333333333333 [-]
	 SCS Opposite-Spin Scale   =       1.2000000000000000 [-]
	 SCS Same-Spin Energy      =      -0.2215661487127918 [Eh]
	 SCS Opposite-Spin Energy  =      -2.4517005747999572 [Eh]
	 SCS Correlation Energy    =      -2.6732667235127492 [Eh]
	 SCS Total Energy          =    -686.2774524176228397 [Eh]
	-----------------------------------------------------------



Properties will be evaluated at  -0.000000,   0.000000,   0.000000 [a0]

Properties computed using the MP2 density matrix

  Nuclear Dipole Moment: [e a0]
     X:    -1.9638      Y:     2.4722      Z:     1.0172

  Electronic Dipole Moment: [e a0]
     X:     2.1384      Y:    -1.8063      Z:    -0.4979

  Dipole Moment: [e a0]
     X:     0.1746      Y:     0.6659      Z:     0.5193     Total:     0.8623

  Dipole Moment: [D]
     X:     0.4437      Y:     1.6925      Z:     1.3200     Total:     2.1918


*** tstop() called on node96.bme.utexas.edu at Wed Nov  4 08:20:39 2020
Module time:
	user time   =    2392.56 seconds =      39.88 minutes
	system time =      82.94 seconds =       1.38 minutes
	total time  =        651 seconds =      10.85 minutes
Total time:
	user time   =    2973.09 seconds =      49.55 minutes
	system time =     143.44 seconds =       2.39 minutes
	total time  =        894 seconds =      14.90 minutes

    Psi4 stopped on: Wednesday, 04 November 2020 08:21AM
    Psi4 wall time for execution: 0:15:26.89

*** Psi4 exiting successfully. Buy a developer a beer!
