74624                                                                   
Freq      RMP2-FC                                                     6-31G(d)            
Number of atoms                            I               20
Info1-9                                    I   N=           9
          32          30        1002           0           0         100
           6           2           1
Charge                                     I                0
Multiplicity                               I                1
Number of electrons                        I               80
Number of alpha electrons                  I               40
Number of beta electrons                   I               40
Number of basis functions                  I              183
Number of independent functions            I              183
Number of point charges in /Mol/           I                0
Number of translation vectors              I                0
Atomic numbers                             I   N=          20
           8           8           7           6           6           6
           6           6           6           6           6           1
           1           1           1           1           1           1
           1           1
Nuclear charges                            R   N=          20
  8.00000000E+00  8.00000000E+00  7.00000000E+00  6.00000000E+00  6.00000000E+00
  6.00000000E+00  6.00000000E+00  6.00000000E+00  6.00000000E+00  6.00000000E+00
  6.00000000E+00  1.00000000E+00  1.00000000E+00  1.00000000E+00  1.00000000E+00
  1.00000000E+00  1.00000000E+00  1.00000000E+00  1.00000000E+00  1.00000000E+00
Current cartesian coordinates              R   N=          60
 -9.41785787E-01  4.09330191E+00 -5.68445136E-01  3.29557945E+00  1.67283323E+00
  2.19132289E+00  3.93944906E+00 -1.26494659E+00 -9.17506727E-01 -3.30173117E-01
 -2.69369765E-01  2.46001440E-01 -1.98449441E+00  1.74620756E+00 -2.45261054E-01
 -1.31353363E+00 -2.71078575E+00  4.99750966E-01  2.44269923E+00  1.99913535E-01
  6.04141446E-01 -4.57757384E+00  1.29853787E+00 -4.66044680E-01 -3.90534998E+00
 -3.15944439E+00  2.97327838E-01 -5.53376065E+00 -1.14358971E+00 -1.82340597E-01
  6.66561693E+00 -9.50495778E-01 -9.01332463E-01 -2.23713858E-02 -4.25738290E+00
  9.08916073E-01 -5.85312665E+00  2.86558021E+00 -8.62066883E-01 -4.64574800E+00
 -5.06107044E+00  5.25151170E-01 -7.55736709E+00 -1.45970422E+00 -3.45776177E-01
  3.11382223E+00 -2.09270868E+00 -2.43032585E+00  7.27145207E+00  6.67049164E-01
 -2.04255984E+00  7.55120661E+00 -2.66799754E+00 -1.62294297E+00  7.26132352E+00
 -6.30668251E-01  1.04353981E+00 -2.30626715E+00  5.29660626E+00 -8.47867695E-01
Force Field                                I                0
Int Atom Types                             I   N=          20
           0           0           0           0           0           0
           0           0           0           0           0           0
           0           0           0           0           0           0
           0           0
MM charges                                 R   N=          20
  0.00000000E+00  0.00000000E+00  0.00000000E+00  0.00000000E+00  0.00000000E+00
  0.00000000E+00  0.00000000E+00  0.00000000E+00  0.00000000E+00  0.00000000E+00
  0.00000000E+00  0.00000000E+00  0.00000000E+00  0.00000000E+00  0.00000000E+00
  0.00000000E+00  0.00000000E+00  0.00000000E+00  0.00000000E+00  0.00000000E+00
Integer atomic weights                     I   N=          20
          16          16          14          12          12          12
          12          12          12          12          12           1
           1           1           1           1           1           1
           1           1
Real atomic weights                        R   N=          20
  1.59949146E+01  1.59949146E+01  1.40030740E+01  1.20000000E+01  1.20000000E+01
  1.20000000E+01  1.20000000E+01  1.20000000E+01  1.20000000E+01  1.20000000E+01
  1.20000000E+01  1.00782504E+00  1.00782504E+00  1.00782504E+00  1.00782504E+00
  1.00782504E+00  1.00782504E+00  1.00782504E+00  1.00782504E+00  1.00782504E+00
Atom fragment info                         I   N=          20
           0           0           0           0           0           0
           0           0           0           0           0           0
           0           0           0           0           0           0
           0           0
Atom residue num                           I   N=          20
           0           0           0           0           0           0
           0           0           0           0           0           0
           0           0           0           0           0           0
           0           0
Nuclear spins                              I   N=          20
           0           0           2           0           0           0
           0           0           0           0           0           1
           1           1           1           1           1           1
           1           1
Nuclear ZEff                               R   N=          20
 -5.60000000E+00 -5.60000000E+00 -4.55000000E+00 -3.60000000E+00 -3.60000000E+00
 -3.60000000E+00 -3.60000000E+00 -3.60000000E+00 -3.60000000E+00 -3.60000000E+00
 -3.60000000E+00 -1.00000000E+00 -1.00000000E+00 -1.00000000E+00 -1.00000000E+00
 -1.00000000E+00 -1.00000000E+00 -1.00000000E+00 -1.00000000E+00 -1.00000000E+00
Nuclear QMom                               R   N=          20
  0.00000000E+00  0.00000000E+00  2.04400000E+00  0.00000000E+00  0.00000000E+00
  0.00000000E+00  0.00000000E+00  0.00000000E+00  0.00000000E+00  0.00000000E+00
  0.00000000E+00  0.00000000E+00  0.00000000E+00  0.00000000E+00  0.00000000E+00
  0.00000000E+00  0.00000000E+00  0.00000000E+00  0.00000000E+00  0.00000000E+00
Nuclear GFac                               R   N=          20
  0.00000000E+00  0.00000000E+00  4.03761000E-01  0.00000000E+00  0.00000000E+00
  0.00000000E+00  0.00000000E+00  0.00000000E+00  0.00000000E+00  0.00000000E+00
  0.00000000E+00  2.79284600E+00  2.79284600E+00  2.79284600E+00  2.79284600E+00
  2.79284600E+00  2.79284600E+00  2.79284600E+00  2.79284600E+00  2.79284600E+00
MicOpt                                     I   N=          20
          -1          -1          -1          -1          -1          -1
          -1          -1          -1          -1          -1          -1
          -1          -1          -1          -1          -1          -1
          -1          -1
Number of contracted shells                I               62
Number of primitive shells                 I              157
Pure/Cartesian d shells                    I                1
Pure/Cartesian f shells                    I                0
Highest angular momentum                   I                2
Largest degree of contraction              I                6
Shell types                                I   N=          62
           0          -1          -1           2           0          -1
          -1           2           0          -1          -1           2
           0          -1          -1           2           0          -1
          -1           2           0          -1          -1           2
           0          -1          -1           2           0          -1
          -1           2           0          -1          -1           2
           0          -1          -1           2           0          -1
          -1           2           0           0           0           0
           0           0           0           0           0           0
           0           0           0           0           0           0
           0           0
Number of primitives per shell             I   N=          62
           6           3           1           1           6           3
           1           1           6           3           1           1
           6           3           1           1           6           3
           1           1           6           3           1           1
           6           3           1           1           6           3
           1           1           6           3           1           1
           6           3           1           1           6           3
           1           1           3           1           3           1
           3           1           3           1           3           1
           3           1           3           1           3           1
           3           1
Shell to atom map                          I   N=          62
           1           1           1           1           2           2
           2           2           3           3           3           3
           4           4           4           4           5           5
           5           5           6           6           6           6
           7           7           7           7           8           8
           8           8           9           9           9           9
          10          10          10          10          11          11
          11          11          12          12          13          13
          14          14          15          15          16          16
          17          17          18          18          19          19
          20          20
Primitive exponents                        R   N=         157
  5.48467166E+03  8.25234946E+02  1.88046958E+02  5.29645000E+01  1.68975704E+01
  5.79963534E+00  1.55396162E+01  3.59993359E+00  1.01376175E+00  2.70005823E-01
  8.00000000E-01  5.48467166E+03  8.25234946E+02  1.88046958E+02  5.29645000E+01
  1.68975704E+01  5.79963534E+00  1.55396162E+01  3.59993359E+00  1.01376175E+00
  2.70005823E-01  8.00000000E-01  4.17351146E+03  6.27457911E+02  1.42902093E+02
  4.02343293E+01  1.28202129E+01  4.39043701E+00  1.16263619E+01  2.71627981E+00
  7.72218397E-01  2.12031498E-01  8.00000000E-01  3.04752488E+03  4.57369518E+02
  1.03948685E+02  2.92101553E+01  9.28666296E+00  3.16392696E+00  7.86827235E+00
  1.88128854E+00  5.44249258E-01  1.68714478E-01  8.00000000E-01  3.04752488E+03
  4.57369518E+02  1.03948685E+02  2.92101553E+01  9.28666296E+00  3.16392696E+00
  7.86827235E+00  1.88128854E+00  5.44249258E-01  1.68714478E-01  8.00000000E-01
  3.04752488E+03  4.57369518E+02  1.03948685E+02  2.92101553E+01  9.28666296E+00
  3.16392696E+00  7.86827235E+00  1.88128854E+00  5.44249258E-01  1.68714478E-01
  8.00000000E-01  3.04752488E+03  4.57369518E+02  1.03948685E+02  2.92101553E+01
  9.28666296E+00  3.16392696E+00  7.86827235E+00  1.88128854E+00  5.44249258E-01
  1.68714478E-01  8.00000000E-01  3.04752488E+03  4.57369518E+02  1.03948685E+02
  2.92101553E+01  9.28666296E+00  3.16392696E+00  7.86827235E+00  1.88128854E+00
  5.44249258E-01  1.68714478E-01  8.00000000E-01  3.04752488E+03  4.57369518E+02
  1.03948685E+02  2.92101553E+01  9.28666296E+00  3.16392696E+00  7.86827235E+00
  1.88128854E+00  5.44249258E-01  1.68714478E-01  8.00000000E-01  3.04752488E+03
  4.57369518E+02  1.03948685E+02  2.92101553E+01  9.28666296E+00  3.16392696E+00
  7.86827235E+00  1.88128854E+00  5.44249258E-01  1.68714478E-01  8.00000000E-01
  3.04752488E+03  4.57369518E+02  1.03948685E+02  2.92101553E+01  9.28666296E+00
  3.16392696E+00  7.86827235E+00  1.88128854E+00  5.44249258E-01  1.68714478E-01
  8.00000000E-01  1.87311370E+01  2.82539436E+00  6.40121692E-01  1.61277759E-01
  1.87311370E+01  2.82539436E+00  6.40121692E-01  1.61277759E-01  1.87311370E+01
  2.82539436E+00  6.40121692E-01  1.61277759E-01  1.87311370E+01  2.82539436E+00
  6.40121692E-01  1.61277759E-01  1.87311370E+01  2.82539436E+00  6.40121692E-01
  1.61277759E-01  1.87311370E+01  2.82539436E+00  6.40121692E-01  1.61277759E-01
  1.87311370E+01  2.82539436E+00  6.40121692E-01  1.61277759E-01  1.87311370E+01
  2.82539436E+00  6.40121692E-01  1.61277759E-01  1.87311370E+01  2.82539436E+00
  6.40121692E-01  1.61277759E-01
Contraction coefficients                   R   N=         157
  1.83107443E-03  1.39501722E-02  6.84450781E-02  2.32714336E-01  4.70192898E-01
  3.58520853E-01 -1.10777550E-01 -1.48026263E-01  1.13076702E+00  1.00000000E+00
  1.00000000E+00  1.83107443E-03  1.39501722E-02  6.84450781E-02  2.32714336E-01
  4.70192898E-01  3.58520853E-01 -1.10777550E-01 -1.48026263E-01  1.13076702E+00
  1.00000000E+00  1.00000000E+00  1.83477216E-03  1.39946270E-02  6.85865518E-02
  2.32240873E-01  4.69069948E-01  3.60455199E-01 -1.14961182E-01 -1.69117479E-01
  1.14585195E+00  1.00000000E+00  1.00000000E+00  1.83473713E-03  1.40373228E-02
  6.88426223E-02  2.32184443E-01  4.67941348E-01  3.62311985E-01 -1.19332420E-01
 -1.60854152E-01  1.14345644E+00  1.00000000E+00  1.00000000E+00  1.83473713E-03
  1.40373228E-02  6.88426223E-02  2.32184443E-01  4.67941348E-01  3.62311985E-01
 -1.19332420E-01 -1.60854152E-01  1.14345644E+00  1.00000000E+00  1.00000000E+00
  1.83473713E-03  1.40373228E-02  6.88426223E-02  2.32184443E-01  4.67941348E-01
  3.62311985E-01 -1.19332420E-01 -1.60854152E-01  1.14345644E+00  1.00000000E+00
  1.00000000E+00  1.83473713E-03  1.40373228E-02  6.88426223E-02  2.32184443E-01
  4.67941348E-01  3.62311985E-01 -1.19332420E-01 -1.60854152E-01  1.14345644E+00
  1.00000000E+00  1.00000000E+00  1.83473713E-03  1.40373228E-02  6.88426223E-02
  2.32184443E-01  4.67941348E-01  3.62311985E-01 -1.19332420E-01 -1.60854152E-01
  1.14345644E+00  1.00000000E+00  1.00000000E+00  1.83473713E-03  1.40373228E-02
  6.88426223E-02  2.32184443E-01  4.67941348E-01  3.62311985E-01 -1.19332420E-01
 -1.60854152E-01  1.14345644E+00  1.00000000E+00  1.00000000E+00  1.83473713E-03
  1.40373228E-02  6.88426223E-02  2.32184443E-01  4.67941348E-01  3.62311985E-01
 -1.19332420E-01 -1.60854152E-01  1.14345644E+00  1.00000000E+00  1.00000000E+00
  1.83473713E-03  1.40373228E-02  6.88426223E-02  2.32184443E-01  4.67941348E-01
  3.62311985E-01 -1.19332420E-01 -1.60854152E-01  1.14345644E+00  1.00000000E+00
  1.00000000E+00  3.34946043E-02  2.34726953E-01  8.13757326E-01  1.00000000E+00
  3.34946043E-02  2.34726953E-01  8.13757326E-01  1.00000000E+00  3.34946043E-02
  2.34726953E-01  8.13757326E-01  1.00000000E+00  3.34946043E-02  2.34726953E-01
  8.13757326E-01  1.00000000E+00  3.34946043E-02  2.34726953E-01  8.13757326E-01
  1.00000000E+00  3.34946043E-02  2.34726953E-01  8.13757326E-01  1.00000000E+00
  3.34946043E-02  2.34726953E-01  8.13757326E-01  1.00000000E+00  3.34946043E-02
  2.34726953E-01  8.13757326E-01  1.00000000E+00  3.34946043E-02  2.34726953E-01
  8.13757326E-01  1.00000000E+00
P(S=P) Contraction coefficients            R   N=         157
  0.00000000E+00  0.00000000E+00  0.00000000E+00  0.00000000E+00  0.00000000E+00
  0.00000000E+00  7.08742682E-02  3.39752839E-01  7.27158577E-01  1.00000000E+00
  0.00000000E+00  0.00000000E+00  0.00000000E+00  0.00000000E+00  0.00000000E+00
  0.00000000E+00  0.00000000E+00  7.08742682E-02  3.39752839E-01  7.27158577E-01
  1.00000000E+00  0.00000000E+00  0.00000000E+00  0.00000000E+00  0.00000000E+00
  0.00000000E+00  0.00000000E+00  0.00000000E+00  6.75797439E-02  3.23907296E-01
  7.40895140E-01  1.00000000E+00  0.00000000E+00  0.00000000E+00  0.00000000E+00
  0.00000000E+00  0.00000000E+00  0.00000000E+00  0.00000000E+00  6.89990666E-02
  3.16423961E-01  7.44308291E-01  1.00000000E+00  0.00000000E+00  0.00000000E+00
  0.00000000E+00  0.00000000E+00  0.00000000E+00  0.00000000E+00  0.00000000E+00
  6.89990666E-02  3.16423961E-01  7.44308291E-01  1.00000000E+00  0.00000000E+00
  0.00000000E+00  0.00000000E+00  0.00000000E+00  0.00000000E+00  0.00000000E+00
  0.00000000E+00  6.89990666E-02  3.16423961E-01  7.44308291E-01  1.00000000E+00
  0.00000000E+00  0.00000000E+00  0.00000000E+00  0.00000000E+00  0.00000000E+00
  0.00000000E+00  0.00000000E+00  6.89990666E-02  3.16423961E-01  7.44308291E-01
  1.00000000E+00  0.00000000E+00  0.00000000E+00  0.00000000E+00  0.00000000E+00
  0.00000000E+00  0.00000000E+00  0.00000000E+00  6.89990666E-02  3.16423961E-01
  7.44308291E-01  1.00000000E+00  0.00000000E+00  0.00000000E+00  0.00000000E+00
  0.00000000E+00  0.00000000E+00  0.00000000E+00  0.00000000E+00  6.89990666E-02
  3.16423961E-01  7.44308291E-01  1.00000000E+00  0.00000000E+00  0.00000000E+00
  0.00000000E+00  0.00000000E+00  0.00000000E+00  0.00000000E+00  0.00000000E+00
  6.89990666E-02  3.16423961E-01  7.44308291E-01  1.00000000E+00  0.00000000E+00
  0.00000000E+00  0.00000000E+00  0.00000000E+00  0.00000000E+00  0.00000000E+00
  0.00000000E+00  6.89990666E-02  3.16423961E-01  7.44308291E-01  1.00000000E+00
  0.00000000E+00  0.00000000E+00  0.00000000E+00  0.00000000E+00  0.00000000E+00
  0.00000000E+00  0.00000000E+00  0.00000000E+00  0.00000000E+00  0.00000000E+00
  0.00000000E+00  0.00000000E+00  0.00000000E+00  0.00000000E+00  0.00000000E+00
  0.00000000E+00  0.00000000E+00  0.00000000E+00  0.00000000E+00  0.00000000E+00
  0.00000000E+00  0.00000000E+00  0.00000000E+00  0.00000000E+00  0.00000000E+00
  0.00000000E+00  0.00000000E+00  0.00000000E+00  0.00000000E+00  0.00000000E+00
  0.00000000E+00  0.00000000E+00  0.00000000E+00  0.00000000E+00  0.00000000E+00
  0.00000000E+00  0.00000000E+00
Coordinates of each shell                  R   N=         186
 -9.41785787E-01  4.09330191E+00 -5.68445136E-01 -9.41785787E-01  4.09330191E+00
 -5.68445136E-01 -9.41785787E-01  4.09330191E+00 -5.68445136E-01 -9.41785787E-01
  4.09330191E+00 -5.68445136E-01  3.29557945E+00  1.67283323E+00  2.19132289E+00
  3.29557945E+00  1.67283323E+00  2.19132289E+00  3.29557945E+00  1.67283323E+00
  2.19132289E+00  3.29557945E+00  1.67283323E+00  2.19132289E+00  3.93944906E+00
 -1.26494659E+00 -9.17506727E-01  3.93944906E+00 -1.26494659E+00 -9.17506727E-01
  3.93944906E+00 -1.26494659E+00 -9.17506727E-01  3.93944906E+00 -1.26494659E+00
 -9.17506727E-01 -3.30173117E-01 -2.69369765E-01  2.46001440E-01 -3.30173117E-01
 -2.69369765E-01  2.46001440E-01 -3.30173117E-01 -2.69369765E-01  2.46001440E-01
 -3.30173117E-01 -2.69369765E-01  2.46001440E-01 -1.98449441E+00  1.74620756E+00
 -2.45261054E-01 -1.98449441E+00  1.74620756E+00 -2.45261054E-01 -1.98449441E+00
  1.74620756E+00 -2.45261054E-01 -1.98449441E+00  1.74620756E+00 -2.45261054E-01
 -1.31353363E+00 -2.71078575E+00  4.99750966E-01 -1.31353363E+00 -2.71078575E+00
  4.99750966E-01 -1.31353363E+00 -2.71078575E+00  4.99750966E-01 -1.31353363E+00
 -2.71078575E+00  4.99750966E-01  2.44269923E+00  1.99913535E-01  6.04141446E-01
  2.44269923E+00  1.99913535E-01  6.04141446E-01  2.44269923E+00  1.99913535E-01
  6.04141446E-01  2.44269923E+00  1.99913535E-01  6.04141446E-01 -4.57757384E+00
  1.29853787E+00 -4.66044680E-01 -4.57757384E+00  1.29853787E+00 -4.66044680E-01
 -4.57757384E+00  1.29853787E+00 -4.66044680E-01 -4.57757384E+00  1.29853787E+00
 -4.66044680E-01 -3.90534998E+00 -3.15944439E+00  2.97327838E-01 -3.90534998E+00
 -3.15944439E+00  2.97327838E-01 -3.90534998E+00 -3.15944439E+00  2.97327838E-01
 -3.90534998E+00 -3.15944439E+00  2.97327838E-01 -5.53376065E+00 -1.14358971E+00
 -1.82340597E-01 -5.53376065E+00 -1.14358971E+00 -1.82340597E-01 -5.53376065E+00
 -1.14358971E+00 -1.82340597E-01 -5.53376065E+00 -1.14358971E+00 -1.82340597E-01
  6.66561693E+00 -9.50495778E-01 -9.01332463E-01  6.66561693E+00 -9.50495778E-01
 -9.01332463E-01  6.66561693E+00 -9.50495778E-01 -9.01332463E-01  6.66561693E+00
 -9.50495778E-01 -9.01332463E-01 -2.23713858E-02 -4.25738290E+00  9.08916073E-01
 -2.23713858E-02 -4.25738290E+00  9.08916073E-01 -5.85312665E+00  2.86558021E+00
 -8.62066883E-01 -5.85312665E+00  2.86558021E+00 -8.62066883E-01 -4.64574800E+00
 -5.06107044E+00  5.25151170E-01 -4.64574800E+00 -5.06107044E+00  5.25151170E-01
 -7.55736709E+00 -1.45970422E+00 -3.45776177E-01 -7.55736709E+00 -1.45970422E+00
 -3.45776177E-01  3.11382223E+00 -2.09270868E+00 -2.43032585E+00  3.11382223E+00
 -2.09270868E+00 -2.43032585E+00  7.27145207E+00  6.67049164E-01 -2.04255984E+00
  7.27145207E+00  6.67049164E-01 -2.04255984E+00  7.55120661E+00 -2.66799754E+00
 -1.62294297E+00  7.55120661E+00 -2.66799754E+00 -1.62294297E+00  7.26132352E+00
 -6.30668251E-01  1.04353981E+00  7.26132352E+00 -6.30668251E-01  1.04353981E+00
 -2.30626715E+00  5.29660626E+00 -8.47867695E-01 -2.30626715E+00  5.29660626E+00
 -8.47867695E-01
Constraint Structure                       R   N=          60
 -9.41785787E-01  4.09330191E+00 -5.68445136E-01  3.29557945E+00  1.67283323E+00
  2.19132289E+00  3.93944906E+00 -1.26494659E+00 -9.17506727E-01 -3.30173117E-01
 -2.69369765E-01  2.46001440E-01 -1.98449441E+00  1.74620756E+00 -2.45261054E-01
 -1.31353363E+00 -2.71078575E+00  4.99750966E-01  2.44269923E+00  1.99913535E-01
  6.04141446E-01 -4.57757384E+00  1.29853787E+00 -4.66044680E-01 -3.90534998E+00
 -3.15944439E+00  2.97327838E-01 -5.53376065E+00 -1.14358971E+00 -1.82340597E-01
  6.66561693E+00 -9.50495778E-01 -9.01332463E-01 -2.23713858E-02 -4.25738290E+00
  9.08916073E-01 -5.85312665E+00  2.86558021E+00 -8.62066883E-01 -4.64574800E+00
 -5.06107044E+00  5.25151170E-01 -7.55736709E+00 -1.45970422E+00 -3.45776177E-01
  3.11382223E+00 -2.09270868E+00 -2.43032585E+00  7.27145207E+00  6.67049164E-01
 -2.04255984E+00  7.55120661E+00 -2.66799754E+00 -1.62294297E+00  7.26132352E+00
 -6.30668251E-01  1.04353981E+00 -2.30626715E+00  5.29660626E+00 -8.47867695E-01
Num ILSW                                   I              100
ILSW                                       I   N=         100
           0           1           0           0           2           0
           0           0           0           0           0          -1
           0           0           0           0           0           0
           0           0           0           0           1           0
           1           0           0           0           0           0
           0           0      100000           0          -1           0
           0           0           0           0           0           0
           0           0           0           1           1           0
           0           0           1           0           0           0
           0           0           4          40           0           0
           0           0           0           0           0           0
           0           0           0           0           0           0
           0           0           0           0           0           0
           0           0           0           0           0           0
           0           0           0           0           0           0
           0           0           0           0           0           0
           0           0           0           0
Num RLSW                                   I               40
RLSW                                       R   N=          40
  1.00000000E+00  1.00000000E+00  1.00000000E+00  1.00000000E+00  1.00000000E+00
  0.00000000E+00  0.00000000E+00  1.00000000E+00  0.00000000E+00  0.00000000E+00
  0.00000000E+00  0.00000000E+00  1.00000000E+00  0.00000000E+00  0.00000000E+00
  0.00000000E+00  0.00000000E+00  1.00000000E+00  0.00000000E+00  0.00000000E+00
  0.00000000E+00  0.00000000E+00  1.00000000E+00  0.00000000E+00  0.00000000E+00
  0.00000000E+00  0.00000000E+00  1.00000000E+00  0.00000000E+00  0.00000000E+00
  0.00000000E+00  0.00000000E+00  0.00000000E+00  0.00000000E+00  0.00000000E+00
  0.00000000E+00  0.00000000E+00  0.00000000E+00  1.00000000E+00  1.00000000E+00
MxBond                                     I                4
NBond                                      I   N=          20
           2           1           3           3           3           3
           3           3           3           3           4           1
           1           1           1           1           1           1
           1           1
IBond                                      I   N=          80
           5          20           0           0           7           0
           0           0           7          11          16           0
           5           6           7           0           1           4
           8           0           4           9          12           0
           2           3           4           0           5          10
          13           0           6          10          14           0
           8           9          15           0           3          17
          18          19           6           0           0           0
           8           0           0           0           9           0
           0           0          10           0           0           0
           3           0           0           0          11           0
           0           0          11           0           0           0
          11           0           0           0           1           0
           0           0
RBond                                      R   N=          80
  1.50000000E+00  1.00000000E+00  0.00000000E+00  0.00000000E+00  2.00000000E+00
  0.00000000E+00  0.00000000E+00  0.00000000E+00  1.00000000E+00  1.00000000E+00
  1.00000000E+00  0.00000000E+00  1.50000000E+00  1.50000000E+00  1.00000000E+00
  0.00000000E+00  1.50000000E+00  1.50000000E+00  1.50000000E+00  0.00000000E+00
  1.50000000E+00  1.50000000E+00  1.00000000E+00  0.00000000E+00  2.00000000E+00
  1.00000000E+00  1.00000000E+00  0.00000000E+00  1.50000000E+00  1.50000000E+00
  1.00000000E+00  0.00000000E+00  1.50000000E+00  1.50000000E+00  1.00000000E+00
  0.00000000E+00  1.50000000E+00  1.50000000E+00  1.00000000E+00  0.00000000E+00
  1.00000000E+00  1.00000000E+00  1.00000000E+00  1.00000000E+00  1.00000000E+00
  0.00000000E+00  0.00000000E+00  0.00000000E+00  1.00000000E+00  0.00000000E+00
  0.00000000E+00  0.00000000E+00  1.00000000E+00  0.00000000E+00  0.00000000E+00
  0.00000000E+00  1.00000000E+00  0.00000000E+00  0.00000000E+00  0.00000000E+00
  1.00000000E+00  0.00000000E+00  0.00000000E+00  0.00000000E+00  1.00000000E+00
  0.00000000E+00  0.00000000E+00  0.00000000E+00  1.00000000E+00  0.00000000E+00
  0.00000000E+00  0.00000000E+00  1.00000000E+00  0.00000000E+00  0.00000000E+00
  0.00000000E+00  1.00000000E+00  0.00000000E+00  0.00000000E+00  0.00000000E+00
Virial Ratio                               R      2.002625115574761E+00
SCF Energy                                 R     -5.123608068102125E+02
MP2 Energy                                 R     -5.138938244871059E+02
Total Energy                               R     -5.138938244871059E+02
Post-SCF wavefunction norm                 R      1.739612908981881E+00
RMS Force                                  R      8.919112112248778E-08
RMS Density                                R      9.088641669567165E-10
External E-field                           R   N=          35
  0.00000000E+00  0.00000000E+00  0.00000000E+00  0.00000000E+00  0.00000000E+00
  0.00000000E+00  0.00000000E+00  0.00000000E+00  0.00000000E+00  0.00000000E+00
  0.00000000E+00  0.00000000E+00  0.00000000E+00  0.00000000E+00  0.00000000E+00
  0.00000000E+00  0.00000000E+00  0.00000000E+00  0.00000000E+00  0.00000000E+00
  0.00000000E+00  0.00000000E+00  0.00000000E+00  0.00000000E+00  0.00000000E+00
  0.00000000E+00  0.00000000E+00  0.00000000E+00  0.00000000E+00  0.00000000E+00
  0.00000000E+00  0.00000000E+00  0.00000000E+00  0.00000000E+00  0.00000000E+00
IOpCl                                      I                0
IROHF                                      I                0
Alpha Orbital Energies                     R   N=         183
 -2.06001556E+01 -2.05148578E+01 -1.55839900E+01 -1.13478937E+01 -1.13182120E+01
 -1.12558120E+01 -1.12556353E+01 -1.12542882E+01 -1.12465727E+01 -1.12453107E+01
 -1.12391941E+01 -1.40509016E+00 -1.36031686E+00 -1.21972978E+00 -1.15557817E+00
 -1.04238800E+00 -1.01366572E+00 -9.46738892E-01 -8.60740281E-01 -8.39872006E-01
 -7.78216851E-01 -7.37746687E-01 -7.18811648E-01 -6.69537559E-01 -6.44453817E-01
 -6.29235662E-01 -6.14433403E-01 -6.08139478E-01 -5.88839845E-01 -5.81094454E-01
 -5.68626965E-01 -5.42165722E-01 -5.30735185E-01 -5.16896694E-01 -5.05711174E-01
 -4.83422257E-01 -4.11663665E-01 -3.80087141E-01 -3.48761721E-01 -3.19890628E-01
  1.17158963E-01  1.44610925E-01  2.11184652E-01  2.17852048E-01  2.34581184E-01
  2.38663798E-01  2.83475305E-01  2.91518158E-01  3.12410630E-01  3.21057773E-01
  3.27145598E-01  3.39930253E-01  3.58394359E-01  3.85319553E-01  4.19364454E-01
  4.41570754E-01  4.92484129E-01  5.00396354E-01  5.13350493E-01  5.31569315E-01
  5.66404864E-01  6.23430002E-01  6.96324083E-01  7.11159887E-01  7.29538216E-01
  7.42704608E-01  7.50833602E-01  7.66970935E-01  7.80357698E-01  7.85057388E-01
  8.11512241E-01  8.18529136E-01  8.25032444E-01  8.26848081E-01  8.39843521E-01
  8.63825089E-01  8.80866141E-01  8.93781170E-01  9.22317535E-01  9.58105535E-01
  9.69362451E-01  9.80980878E-01  1.00303745E+00  1.01522764E+00  1.05048358E+00
  1.06750905E+00  1.08382192E+00  1.10098829E+00  1.10494651E+00  1.12680877E+00
  1.14056688E+00  1.15184289E+00  1.16505979E+00  1.18526096E+00  1.19165398E+00
  1.20715178E+00  1.21595043E+00  1.22191238E+00  1.24703692E+00  1.27499652E+00
  1.29239322E+00  1.30733707E+00  1.32872894E+00  1.35135382E+00  1.35796391E+00
  1.40078071E+00  1.42354466E+00  1.46404696E+00  1.48139893E+00  1.51736303E+00
  1.58598393E+00  1.60255956E+00  1.63291227E+00  1.66057641E+00  1.67963654E+00
  1.68449760E+00  1.71428369E+00  1.73915389E+00  1.74548313E+00  1.76857945E+00
  1.84310801E+00  1.86098321E+00  1.93157371E+00  2.00939561E+00  2.02705127E+00
  2.03845956E+00  2.07088942E+00  2.07893153E+00  2.13295452E+00  2.14022924E+00
  2.17095404E+00  2.20566152E+00  2.21268361E+00  2.23625430E+00  2.24951584E+00
  2.28193752E+00  2.28424596E+00  2.30606204E+00  2.36104688E+00  2.38800416E+00
  2.40656658E+00  2.41053617E+00  2.43998564E+00  2.45882896E+00  2.54128606E+00
  2.55306678E+00  2.60418664E+00  2.61095301E+00  2.62576792E+00  2.64673004E+00
  2.67284410E+00  2.71698247E+00  2.72400522E+00  2.78604808E+00  2.79938601E+00