
    -----------------------------------------------------------------------
          Psi4: An Open-Source Ab Initio Electronic Structure Package
                               Psi4 1.3.2 release

                         Git: Rev {HEAD} ecbda83 


    R. M. Parrish, L. A. Burns, D. G. A. Smith, A. C. Simmonett,
    A. E. DePrince III, E. G. Hohenstein, U. Bozkaya, A. Yu. Sokolov,
    R. Di Remigio, R. M. Richard, J. F. Gonthier, A. M. James,
    H. R. McAlexander, A. Kumar, M. Saitow, X. Wang, B. P. Pritchard,
    P. Verma, H. F. Schaefer III, K. Patkowski, R. A. King, E. F. Valeev,
    F. A. Evangelista, J. M. Turney, T. D. Crawford, and C. D. Sherrill,
    J. Chem. Theory Comput. 13(7) pp 3185--3197 (2017).
    (doi: 10.1021/acs.jctc.7b00174)


                         Additional Contributions by
    P. Kraus, H. Kruse, M. H. Lechner, M. C. Schieber, R. A. Shaw,
    A. Alenaizan, R. Galvelis, Z. L. Glick, S. Lehtola, and J. P. Misiewicz

    -----------------------------------------------------------------------


    Psi4 started on: Tuesday, 03 November 2020 08:22PM

    Process ID: 39878
    Host:       node97.bme.utexas.edu
    PSIDATADIR: /home/xy3866/psi4conda/share/psi4
    Memory:     500.0 MiB
    Threads:    8
    
  ==> Input File <==

--------------------------------------------------------------------------
#psi4
#
memory 32 gb

molecule  {
0 1
  O        2.6660218    -0.4911351    -0.3542773
  C        0.4478060     0.2535600     0.1422380
  C        1.9227370     0.5353370     0.3039990
  C       -0.4705550     1.2975200    -0.0129620
  C       -0.0180930    -1.0668420     0.1769480
  C       -1.8363280     1.0297010    -0.1264230
  C       -1.3815920    -1.3361730     0.0562860
  C       -2.2945940    -0.2887340    -0.0921740
  H        2.1508500     1.5463010    -0.0660670
  H        2.2078120     0.5034310     1.3602160
  H       -0.1156540     2.3265980    -0.0519790
  H        0.6988110    -1.8764940     0.2888760
  H       -2.5409450     1.8488700    -0.2497340
  H       -1.7340040    -2.3648090     0.0820140
  H       -3.3571700    -0.4996250    -0.1857170
  H        2.4798710    -0.4753560    -1.2601120
units angstrom
no_reorient  #important for SAPT in psi4, default
symmetry c1  #important for SAPT in psi4, default
}

set PROPERTIES_ORIGIN ["COM"]
properties('MP2/aug-cc-pvtz', properties = ['dipole'])
--------------------------------------------------------------------------

  Memory set to  29.802 GiB by Python driver.
    SCF Algorithm Type (re)set to DF.

*** tstart() called on node97.bme.utexas.edu
*** at Tue Nov  3 20:22:19 2020

   => Loading Basis Set <=

    Name: AUG-CC-PVTZ
    Role: ORBITAL
    Keyword: BASIS
    atoms 1    entry O          line   327 file /home/xy3866/psi4conda/share/psi4/basis/aug-cc-pvtz.gbs 
    atoms 2-8  entry C          line   235 file /home/xy3866/psi4conda/share/psi4/basis/aug-cc-pvtz.gbs 
    atoms 9-16 entry H          line    36 file /home/xy3866/psi4conda/share/psi4/basis/aug-cc-pvtz.gbs 


         ---------------------------------------------------------
                                   SCF
               by Justin Turney, Rob Parrish, Andy Simmonett
                          and Daniel G. A. Smith
                              RHF Reference
                        8 Threads,  30517 MiB Core
         ---------------------------------------------------------

  ==> Geometry <==

    Molecular point group: c1
    Full point group: C1

    Geometry (in Angstrom), charge = 0, multiplicity = 1:

       Center              X                  Y                   Z               Mass       
    ------------   -----------------  -----------------  -----------------  -----------------
         O            2.676541314076    -0.474973103373    -0.350808408880    15.994914619570
         C            0.458325514076     0.269721996627     0.145706891120    12.000000000000
         C            1.933256514076     0.551498996627     0.307467891120    12.000000000000
         C           -0.460035485924     1.313681996627    -0.009493108880    12.000000000000
         C           -0.007573485924    -1.050680003373     0.180416891120    12.000000000000
         C           -1.825808485924     1.045862996627    -0.122954108880    12.000000000000
         C           -1.371072485924    -1.320011003373     0.059754891120    12.000000000000
         C           -2.284074485924    -0.272572003373    -0.088705108880    12.000000000000
         H            2.161369514076     1.562462996627    -0.062598108880     1.007825032230
         H            2.218331514076     0.519592996627     1.363684891120     1.007825032230
         H           -0.105134485924     2.342759996627    -0.048510108880     1.007825032230
         H            0.709330514076    -1.860332003373     0.292344891120     1.007825032230
         H           -2.530425485924     1.865031996627    -0.246265108880     1.007825032230
         H           -1.723484485924    -2.348647003373     0.085482891120     1.007825032230
         H           -3.346650485924    -0.483463003373    -0.182248108880     1.007825032230
         H            2.490390514076    -0.459194003373    -1.256643108880     1.007825032230

  Running in c1 symmetry.

  Rotational constants: A =      0.15915  B =      0.05038  C =      0.03965 [cm^-1]
  Rotational constants: A =   4771.27937  B =   1510.24777  C =   1188.77931 [MHz]
  Nuclear repulsion =  341.716359921007438

  Charge       = 0
  Multiplicity = 1
  Electrons    = 58
  Nalpha       = 29
  Nbeta        = 29

  ==> Algorithm <==

  SCF Algorithm Type is DF.
  DIIS enabled.
  MOM disabled.
  Fractional occupation disabled.
  Guess Type is SAD.
  Energy threshold   = 1.00e-10
  Density threshold  = 1.00e-10
  Integral threshold = 0.00e+00

  ==> Primary Basis <==

  Basis Set: AUG-CC-PVTZ
    Blend: AUG-CC-PVTZ
    Number of shells: 184
    Number of basis function: 552
    Number of Cartesian functions: 640
    Spherical Harmonics?: true
    Max angular momentum: 3

   => Loading Basis Set <=

    Name: (AUG-CC-PVTZ AUX)
    Role: JKFIT
    Keyword: DF_BASIS_SCF
    atoms 1    entry O          line   286 file /home/xy3866/psi4conda/share/psi4/basis/aug-cc-pvtz-jkfit.gbs 
    atoms 2-8  entry C          line   162 file /home/xy3866/psi4conda/share/psi4/basis/aug-cc-pvtz-jkfit.gbs 
    atoms 9-16 entry H          line    70 file /home/xy3866/psi4conda/share/psi4/basis/aug-cc-pvtz-jkfit.gbs 

  ==> Pre-Iterations <==

   -------------------------------------------------------
    Irrep   Nso     Nmo     Nalpha   Nbeta   Ndocc  Nsocc
   -------------------------------------------------------
     A        552     552       0       0       0       0
   -------------------------------------------------------
    Total     552     552      29      29      29       0
   -------------------------------------------------------

  ==> Integral Setup <==

  DFHelper Memory: AOs need 2.717 GiB; user supplied 22.352 GiB. Using in-core AOs.

  ==> MemDFJK: Density-Fitted J/K Matrices <==

    J tasked:                   Yes
    K tasked:                   Yes
    wK tasked:                   No
    OpenMP threads:               8
    Memory [MiB]:             22888
    Algorithm:                 Disk
    Schwarz Cutoff:           1E-12
    Mask sparsity (%):       3.5602
    Fitting Condition:        1E-10

   => Auxiliary Basis Set <=

  Basis Set: (AUG-CC-PVTZ AUX)
    Blend: AUG-CC-PVTZ-JKFIT
    Number of shells: 352
    Number of basis function: 1200
    Number of Cartesian functions: 1488
    Spherical Harmonics?: true
    Max angular momentum: 4

  Minimum eigenvalue in the overlap matrix is 5.7388329135E-07.
  Using Symmetric Orthogonalization.

  SCF Guess: Superposition of Atomic Densities via on-the-fly atomic UHF.

  ==> Iterations <==

                           Total Energy        Delta E     RMS |[F,P]|

   @DF-RHF iter SAD:  -344.01962928359967   -3.44020e+02   0.00000e+00 
   @DF-RHF iter   1:  -344.47079551772549   -4.51166e-01   1.17594e-03 DIIS
   @DF-RHF iter   2:  -344.66246170825264   -1.91666e-01   5.92641e-04 DIIS
   @DF-RHF iter   3:  -344.70886870003392   -4.64070e-02   1.04555e-04 DIIS
   @DF-RHF iter   4:  -344.71127993770267   -2.41124e-03   2.84841e-05 DIIS
   @DF-RHF iter   5:  -344.71141819406427   -1.38256e-04   8.09778e-06 DIIS
   @DF-RHF iter   6:  -344.71143076008070   -1.25660e-05   2.22227e-06 DIIS
   @DF-RHF iter   7:  -344.71143207565660   -1.31558e-06   7.35609e-07 DIIS
   @DF-RHF iter   8:  -344.71143225861852   -1.82962e-07   2.79034e-07 DIIS
   @DF-RHF iter   9:  -344.71143229795882   -3.93403e-08   1.23296e-07 DIIS
   @DF-RHF iter  10:  -344.71143230612910   -8.17028e-09   5.65708e-08 DIIS
   @DF-RHF iter  11:  -344.71143230910093   -2.97183e-09   2.17379e-08 DIIS
   @DF-RHF iter  12:  -344.71143230960752   -5.06589e-10   7.00882e-09 DIIS
   @DF-RHF iter  13:  -344.71143230964418   -3.66640e-11   2.41947e-09 DIIS
   @DF-RHF iter  14:  -344.71143230964651   -2.33058e-12   8.73948e-10 DIIS
   @DF-RHF iter  15:  -344.71143230964691   -3.97904e-13   3.77748e-10 DIIS
   @DF-RHF iter  16:  -344.71143230964640    5.11591e-13   1.41007e-10 DIIS
   @DF-RHF iter  17:  -344.71143230964657   -1.70530e-13   6.46174e-11 DIIS
  Energy and wave function converged.


  ==> Post-Iterations <==

    Orbital Energies [Eh]
    ---------------------

    Doubly Occupied:                                                      

       1A    -20.557611     2A    -11.287655     3A    -11.241944  
       4A    -11.239650     5A    -11.238539     6A    -11.237782  
       7A    -11.236544     8A    -11.233346     9A     -1.371807  
      10A     -1.153489    11A     -1.039141    12A     -1.014908  
      13A     -0.925231    14A     -0.829097    15A     -0.804458  
      16A     -0.712047    17A     -0.688939    18A     -0.645820  
      19A     -0.620455    20A     -0.611965    21A     -0.594720  
      22A     -0.584475    23A     -0.531428    24A     -0.506528  
      25A     -0.495564    26A     -0.482511    27A     -0.455480  
      28A     -0.338620    29A     -0.331123  

    Virtual:                                                              

      30A      0.028176    31A      0.032790    32A      0.035589  
      33A      0.043903    34A      0.046975    35A      0.048985  
      36A      0.064810    37A      0.068434    38A      0.091003  
      39A      0.096574    40A      0.099190    41A      0.102914  
      42A      0.104663    43A      0.112526    44A      0.113755  
      45A      0.123639    46A      0.127462    47A      0.130010  
      48A      0.132841    49A      0.136014    50A      0.139862  
      51A      0.144290    52A      0.144490    53A      0.150819  
      54A      0.154632    55A      0.156803    56A      0.159374  
      57A      0.163256    58A      0.170421    59A      0.182075  
      60A      0.184315    61A      0.203025    62A      0.215504  
      63A      0.226902    64A      0.235863    65A      0.246890  
      66A      0.249444    67A      0.253937    68A      0.262828  
      69A      0.263514    70A      0.274506    71A      0.277559  
      72A      0.283456    73A      0.290973    74A      0.298099  
      75A      0.303559    76A      0.309240    77A      0.313444  
      78A      0.317657    79A      0.317881    80A      0.325079  
      81A      0.329014    82A      0.332946    83A      0.337461  
      84A      0.353674    85A      0.363427    86A      0.368368  
      87A      0.372179    88A      0.374216    89A      0.381163  
      90A      0.385722    91A      0.397049    92A      0.397841  
      93A      0.406638    94A      0.415048    95A      0.423857  
      96A      0.430903    97A      0.434088    98A      0.440231  
      99A      0.445241   100A      0.452314   101A      0.459029  
     102A      0.461874   103A      0.466424   104A      0.467240  
     105A      0.477531   106A      0.479054   107A      0.485252  
     108A      0.489063   109A      0.493608   110A      0.494131  
     111A      0.496106   112A      0.504796   113A      0.509682  
     114A      0.511353   115A      0.519743   116A      0.529537  
     117A      0.534807   118A      0.536210   119A      0.542435  
     120A      0.544184   121A      0.553267   122A      0.560095  
     123A      0.565220   124A      0.567858   125A      0.576436  
     126A      0.590573   127A      0.599795   128A      0.609720  
     129A      0.620905   130A      0.622589   131A      0.632059  
     132A      0.642815   133A      0.649294   134A      0.668227  
     135A      0.670940   136A      0.675565   137A      0.690792  
     138A      0.691114   139A      0.707799   140A      0.711878  
     141A      0.718517   142A      0.728801   143A      0.731107  
     144A      0.739454   145A      0.749780   146A      0.761579  
     147A      0.765217   148A      0.775583   149A      0.788303  
     150A      0.797735   151A      0.818120   152A      0.822389  
     153A      0.827363   154A      0.842539   155A      0.844724  
     156A      0.861706   157A      0.864863   158A      0.867429  
     159A      0.877445   160A      0.879562   161A      0.884455  
     162A      0.887553   163A      0.891817   164A      0.903874  
     165A      0.907248   166A      0.915199   167A      0.923266  
     168A      0.926914   169A      0.933745   170A      0.936381  
     171A      0.942679   172A      0.953476   173A      0.954584  
     174A      0.964102   175A      0.971133   176A      0.973921  
     177A      0.997412   178A      1.003072   179A      1.007340  
     180A      1.015315   181A      1.018265   182A      1.025076  
     183A      1.038643   184A      1.044703   185A      1.048284  
     186A      1.051988   187A      1.060860   188A      1.065266  
     189A      1.072213   190A      1.080640   191A      1.084990  
     192A      1.090577   193A      1.101340   194A      1.105525  
     195A      1.110291   196A      1.115852   197A      1.122412  
     198A      1.124938   199A      1.138543   200A      1.144018  
     201A      1.154942   202A      1.166765   203A      1.170734  
     204A      1.176803   205A      1.182758   206A      1.183234  
     207A      1.187748   208A      1.196083   209A      1.204769  
     210A      1.213958   211A      1.222033   212A      1.233536  
     213A      1.238646   214A      1.243950   215A      1.250135  
     216A      1.266248   217A      1.276375   218A      1.279572  
     219A      1.290119   220A      1.291774   221A      1.299805  
     222A      1.316280   223A      1.325989   224A      1.333230  
     225A      1.337723   226A      1.349288   227A      1.362970  
     228A      1.378664   229A      1.384456   230A      1.390929  
     231A      1.402751   232A      1.411755   233A      1.420773  
     234A      1.427047   235A      1.441178   236A      1.451315  
     237A      1.463827   238A      1.478597   239A      1.495939  
     240A      1.500117   241A      1.505134   242A      1.520514  
     243A      1.529215   244A      1.541736   245A      1.545714  
     246A      1.552931   247A      1.565833   248A      1.576368  
     249A      1.598431   250A      1.604628   251A      1.621610  
     252A      1.643303   253A      1.659781   254A      1.673898  
     255A      1.685896   256A      1.692897   257A      1.698541  
     258A      1.704849   259A      1.717136   260A      1.725360  
     261A      1.736883   262A      1.745716   263A      1.762020  
     264A      1.765964   265A      1.776315   266A      1.787977  
     267A      1.792043   268A      1.799155   269A      1.816851  
     270A      1.836360   271A      1.842273   272A      1.843579  
     273A      1.856605   274A      1.876756   275A      1.888937  
     276A      1.898268   277A      1.908343   278A      1.918250  
     279A      1.927523   280A      1.931459   281A      1.952447  
     282A      1.984526   283A      1.985839   284A      1.999582  
     285A      2.015552   286A      2.018190   287A      2.028016  
     288A      2.036150   289A      2.045564   290A      2.062413  
     291A      2.065936   292A      2.078795   293A      2.084907  
     294A      2.096191   295A      2.097837   296A      2.108714  
     297A      2.112764   298A      2.125676   299A      2.140776  
     300A      2.146930   301A      2.168910   302A      2.181018  
     303A      2.193059   304A      2.208418   305A      2.228646  
     306A      2.251529   307A      2.275647   308A      2.285462  
     309A      2.293431   310A      2.311609   311A      2.347458  
     312A      2.349631   313A      2.365686   314A      2.369590  
     315A      2.385659   316A      2.394303   317A      2.397573  
     318A      2.422973   319A      2.432150   320A      2.456673  
     321A      2.482660   322A      2.488852   323A      2.511792  
     324A      2.530798   325A      2.558295   326A      2.575011  
     327A      2.584986   328A      2.606827   329A      2.649899  
     330A      2.673157   331A      2.699343   332A      2.704103  
     333A      2.739334   334A      2.751830   335A      2.773069  
     336A      2.783563   337A      2.803111   338A      2.819006  
     339A      2.849905   340A      2.859765   341A      2.891854  
     342A      2.907273   343A      2.945139   344A      2.955023  
     345A      3.010028   346A      3.019937   347A      3.064012  
     348A      3.083073   349A      3.100775   350A      3.144133  
     351A      3.191469   352A      3.197919   353A      3.204266  
     354A      3.231852   355A      3.245025   356A      3.274986  
     357A      3.279768   358A      3.323152   359A      3.328169  
     360A      3.355909   361A      3.369647   362A      3.381868  
     363A      3.396761   364A      3.422271   365A      3.425257  
     366A      3.456736   367A      3.460296   368A      3.479070  
     369A      3.493617   370A      3.501058   371A      3.516014  
     372A      3.533386   373A      3.538818   374A      3.542420  
     375A      3.560956   376A      3.576375   377A      3.590525  
     378A      3.601778   379A      3.609390   380A      3.614898  
     381A      3.625366   382A      3.639288   383A      3.673182  
     384A      3.702329   385A      3.713281   386A      3.729461  
     387A      3.751772   388A      3.753189   389A      3.769271  
     390A      3.787293   391A      3.795657   392A      3.832754  
     393A      3.848848   394A      3.855602   395A      3.865462  
     396A      3.869760   397A      3.880336   398A      3.894011  
     399A      3.899494   400A      3.914850   401A      3.938709  
     402A      3.956167   403A      3.958415   404A      3.970926  
     405A      3.978783   406A      3.983780   407A      4.002111  
     408A      4.023688   409A      4.028050   410A      4.042315  
     411A      4.058191   412A      4.072982   413A      4.085941  
     414A      4.100561   415A      4.118633   416A      4.128776  
     417A      4.145156   418A      4.160667   419A      4.177734  
     420A      4.179495   421A      4.196775   422A      4.220381  
     423A      4.233924   424A      4.241586   425A      4.260716  
     426A      4.264692   427A      4.292429   428A      4.298329  
     429A      4.308759   430A      4.322834   431A      4.337207  
     432A      4.352485   433A      4.366558   434A      4.379035  
     435A      4.387308   436A      4.391771   437A      4.409212  
     438A      4.421364   439A      4.427394   440A      4.443675  
     441A      4.457915   442A      4.460659   443A      4.480794  
     444A      4.487212   445A      4.501980   446A      4.518119  
     447A      4.536759   448A      4.569026   449A      4.598915  
     450A      4.624744   451A      4.637281   452A      4.670504  
     453A      4.678618   454A      4.701506   455A      4.717308  
     456A      4.723877   457A      4.740495   458A      4.757386  
     459A      4.764436   460A      4.777230   461A      4.802687  
     462A      4.818472   463A      4.860012   464A      4.875850  
     465A      4.891119   466A      4.909179   467A      4.916705  
     468A      4.938507   469A      4.962597   470A      4.969742  
     471A      5.004740   472A      5.037686   473A      5.045258  
     474A      5.075761   475A      5.081253   476A      5.087344  
     477A      5.111396   478A      5.123301   479A      5.138403  
     480A      5.148997   481A      5.156498   482A      5.163932  
     483A      5.172929   484A      5.178611   485A      5.219223  
     486A      5.236573   487A      5.263033   488A      5.292754  
     489A      5.311979   490A      5.318845   491A      5.328143  
     492A      5.343865   493A      5.375346   494A      5.419106  
     495A      5.430309   496A      5.436616   497A      5.453362  
     498A      5.505207   499A      5.517980   500A      5.553512  
     501A      5.574547   502A      5.598157   503A      5.630550  
     504A      5.669042   505A      5.689788   506A      5.724468  
     507A      5.782763   508A      5.805645   509A      5.828557  
     510A      5.843540   511A      5.873888   512A      5.982939  
     513A      6.022394   514A      6.085745   515A      6.155531  
     516A      6.209301   517A      6.217679   518A      6.255870  
     519A      6.281678   520A      6.327632   521A      6.366608  
     522A      6.374048   523A      6.486406   524A      6.514041  
     525A      6.617672   526A      6.700426   527A      6.755036  
     528A      6.802517   529A      6.894972   530A      6.963758  
     531A      6.988269   532A      7.004762   533A      7.122901  
     534A      7.139533   535A      7.322718   536A      7.382475  
     537A      7.450728   538A      7.459999   539A      7.582312  
     540A      7.623890   541A      7.820762   542A      7.957864  
     543A      8.280030   544A      8.685781   545A     15.999235  
     546A     16.181810   547A     16.946736   548A     18.144250  
     549A     18.658371   550A     19.407718   551A     19.969864  
     552A     20.281657  

    Final Occupation by Irrep:
              A 
    DOCC [    29 ]

  @DF-RHF Final Energy:  -344.71143230964657

   => Energetics <=

    Nuclear Repulsion Energy =            341.7163599210074381
    One-Electron Energy =               -1144.8338341380153906
    Two-Electron Energy =                 458.4060419073613843
    Total Energy =                       -344.7114323096465682

Computation Completed

*** tstop() called on node97.bme.utexas.edu at Tue Nov  3 20:22:57 2020
Module time:
	user time   =     176.14 seconds =       2.94 minutes
	system time =      21.02 seconds =       0.35 minutes
	total time  =         38 seconds =       0.63 minutes
Total time:
	user time   =     176.14 seconds =       2.94 minutes
	system time =      21.02 seconds =       0.35 minutes
	total time  =         38 seconds =       0.63 minutes
   => Loading Basis Set <=

    Name: (AUG-CC-PVTZ AUX)
    Role: RIFIT
    Keyword: DF_BASIS_MP2
    atoms 1    entry O          line   264 file /home/xy3866/psi4conda/share/psi4/basis/aug-cc-pvtz-ri.gbs 
    atoms 2-8  entry C          line   148 file /home/xy3866/psi4conda/share/psi4/basis/aug-cc-pvtz-ri.gbs 
    atoms 9-16 entry H          line    30 file /home/xy3866/psi4conda/share/psi4/basis/aug-cc-pvtz-ri.gbs 


*** tstart() called on node97.bme.utexas.edu
*** at Tue Nov  3 20:22:57 2020


  //>>>>>>>>>>>>>>>>>>>>>>>>>>>>>>>>>>>//
  //               DFMP2               //
  //<<<<<<<<<<<<<<<<<<<<<<<<<<<<<<<<<<<//

	 --------------------------------------------------------
	                          DF-MP2                         
	      2nd-Order Density-Fitted Moller-Plesset Theory     
	              RMP2 Wavefunction,   8 Threads             
	                                                         
	        Rob Parrish, Justin Turney, Andy Simmonett,      
	           Ed Hohenstein, and C. David Sherrill          
	 --------------------------------------------------------

   => Auxiliary Basis Set <=

  Basis Set: (AUG-CC-PVTZ AUX)
    Blend: AUG-CC-PVTZ-RI
    Number of shells: 336
    Number of basis function: 1216
    Number of Cartesian functions: 1528
    Spherical Harmonics?: true
    Max angular momentum: 4

	 --------------------------------------------------------
	                 NBF =   552, NAUX =  1216
	 --------------------------------------------------------
	   CLASS    FOCC     OCC    AOCC    AVIR     VIR    FVIR
	   PAIRS       0      29      29     523     523       0
	 --------------------------------------------------------

  DFHelper Memory: AOs need 2.717 GiB; user supplied 22.352 GiB. Using in-core AOs.


         ------------------------------------------------------------
                                     CPHF                           
                                  Rob Parrish                       
         ------------------------------------------------------------

  ==> Geometry <==

    Molecular point group: c1
    Full point group: C1

    Geometry (in Angstrom), charge = 0, multiplicity = 1:

       Center              X                  Y                   Z               Mass       
    ------------   -----------------  -----------------  -----------------  -----------------
         O            2.676541314076    -0.474973103373    -0.350808408880    15.994914619570
         C            0.458325514076     0.269721996627     0.145706891120    12.000000000000
         C            1.933256514076     0.551498996627     0.307467891120    12.000000000000
         C           -0.460035485924     1.313681996627    -0.009493108880    12.000000000000
         C           -0.007573485924    -1.050680003373     0.180416891120    12.000000000000
         C           -1.825808485924     1.045862996627    -0.122954108880    12.000000000000
         C           -1.371072485924    -1.320011003373     0.059754891120    12.000000000000
         C           -2.284074485924    -0.272572003373    -0.088705108880    12.000000000000
         H            2.161369514076     1.562462996627    -0.062598108880     1.007825032230
         H            2.218331514076     0.519592996627     1.363684891120     1.007825032230
         H           -0.105134485924     2.342759996627    -0.048510108880     1.007825032230
         H            0.709330514076    -1.860332003373     0.292344891120     1.007825032230
         H           -2.530425485924     1.865031996627    -0.246265108880     1.007825032230
         H           -1.723484485924    -2.348647003373     0.085482891120     1.007825032230
         H           -3.346650485924    -0.483463003373    -0.182248108880     1.007825032230
         H            2.490390514076    -0.459194003373    -1.256643108880     1.007825032230

  Nuclear repulsion =  341.716359921007438
  Reference energy  = -344.711432309646568

  ==> Basis Set <==

  Basis Set: AUG-CC-PVTZ
    Blend: AUG-CC-PVTZ
    Number of shells: 184
    Number of basis function: 552
    Number of Cartesian functions: 640
    Spherical Harmonics?: true
    Max angular momentum: 3

  ==> CGRSolver (by Rob Parrish) <==

   Number of roots    =         1
   Preconditioning    =    JACOBI
   Convergence cutoff =     1E-06
   Maximum iterations =       100

  ==> CPHFRHamiltonian (by Rob Parrish) <== 

  ==> MemDFJK: Density-Fitted J/K Matrices <==

    J tasked:                   Yes
    K tasked:                   Yes
    wK tasked:                   No
    OpenMP threads:               8
    Memory [MiB]:             22888
    Algorithm:                 Disk
    Schwarz Cutoff:           1E-12
    Mask sparsity (%):       3.5602
    Fitting Condition:        1E-10

   => Auxiliary Basis Set <=

  Basis Set: (AUG-CC-PVTZ AUX)
    Blend: AUG-CC-PVTZ-JKFIT
    Number of shells: 352
    Number of basis function: 1200
    Number of Cartesian functions: 1488
    Spherical Harmonics?: true
    Max angular momentum: 4

  ==> CPHF Iterations <==

  => Iterations <=

             Iter  Converged  Remaining    Residual
  CGR           1          0          1   7.342E-02
  CGR           2          0          1   1.606E-02
  CGR           3          0          1   6.145E-03
  CGR           4          0          1   2.714E-03
  CGR           5          0          1   1.280E-03
  CGR           6          0          1   6.501E-04
  CGR           7          0          1   2.264E-04
  CGR           8          0          1   7.463E-05
  CGR           9          0          1   2.185E-05
  CGR          10          0          1   5.109E-06
  CGR          11          0          1   2.441E-06
  CGR          12          0          1   1.007E-06
  CGR          13          1          0   4.793E-07

    CGRSolver converged.

	-----------------------------------------------------------
	 ==================> DF-MP2 Energies <==================== 
	-----------------------------------------------------------
	 Reference Energy          =    -344.7114323096465682 [Eh]
	 Singles Energy            =      -0.0000000000000000 [Eh]
	 Same-Spin Energy          =      -0.3673171569429719 [Eh]
	 Opposite-Spin Energy      =      -1.1610464166837877 [Eh]
	 Correlation Energy        =      -1.5283635736267596 [Eh]
	 Total Energy              =    -346.2397958832733025 [Eh]
	-----------------------------------------------------------
	 ================> DF-SCS-MP2 Energies <================== 
	-----------------------------------------------------------
	 SCS Same-Spin Scale       =       0.3333333333333333 [-]
	 SCS Opposite-Spin Scale   =       1.2000000000000000 [-]
	 SCS Same-Spin Energy      =      -0.1224390523143240 [Eh]
	 SCS Opposite-Spin Energy  =      -1.3932557000205452 [Eh]
	 SCS Correlation Energy    =      -1.5156947523348692 [Eh]
	 SCS Total Energy          =    -346.2271270619814345 [Eh]
	-----------------------------------------------------------



Properties will be evaluated at   0.000000,   0.000000,  -0.000000 [a0]

Properties computed using the MP2 density matrix

  Nuclear Dipole Moment: [e a0]
     X:    -0.1055      Y:     1.0648      Z:    -0.0530

  Electronic Dipole Moment: [e a0]
     X:    -0.2574      Y:    -0.7136      Z:    -0.1768

  Dipole Moment: [e a0]
     X:    -0.3629      Y:     0.3512      Z:    -0.2298     Total:     0.5548

  Dipole Moment: [D]
     X:    -0.9223      Y:     0.8925      Z:    -0.5842     Total:     1.4102


*** tstop() called on node97.bme.utexas.edu at Tue Nov  3 20:24:19 2020
Module time:
	user time   =     488.83 seconds =       8.15 minutes
	system time =      23.66 seconds =       0.39 minutes
	total time  =         82 seconds =       1.37 minutes
Total time:
	user time   =     666.18 seconds =      11.10 minutes
	system time =      44.73 seconds =       0.75 minutes
	total time  =        120 seconds =       2.00 minutes

    Psi4 stopped on: Tuesday, 03 November 2020 08:24PM
    Psi4 wall time for execution: 0:02:00.38

*** Psi4 exiting successfully. Buy a developer a beer!
