171_123-Trifluoropropane Gaussian SP Calculation on node58.bme.utexas.ed
Freq      RMP2-FC                                                     6-31G(d)            
Number of atoms                            I               11
Info1-9                                    I   N=           9
          22          21        1002           0           0         100
           6           2           1
Charge                                     I                0
Multiplicity                               I                1
Number of electrons                        I               50
Number of alpha electrons                  I               25
Number of beta electrons                   I               25
Number of basis functions                  I              100
Number of independent functions            I              100
Number of point charges in /Mol/           I                0
Number of translation vectors              I                0
Atomic numbers                             I   N=          11
           9           9           9           6           6           6
           1           1           1           1           1
Nuclear charges                            R   N=          11
  9.00000000E+00  9.00000000E+00  9.00000000E+00  6.00000000E+00  6.00000000E+00
  6.00000000E+00  1.00000000E+00  1.00000000E+00  1.00000000E+00  1.00000000E+00
  1.00000000E+00
Current cartesian coordinates              R   N=          33
 -2.05007832E-01  2.77655376E+00 -8.05079234E-01 -4.22006714E+00 -6.58058722E-01
  2.22388294E-02  3.44812475E+00 -1.30418278E+00 -1.05489912E+00 -6.04309703E-02
  7.29439476E-01  8.59353191E-01 -1.69168556E+00 -1.37048886E+00 -1.68256966E-01
  2.66608785E+00 -5.04456834E-02  1.13434614E+00 -7.97837319E-01  1.35652201E+00
  2.69191362E+00 -1.41388742E+00 -3.11466191E+00  9.09405201E-01 -1.23412642E+00
 -1.69624728E+00 -2.15190777E+00  2.89624105E+00 -1.33976731E+00  2.73594491E+00
  3.85833416E+00  1.61431452E+00  1.40164555E+00
Force Field                                I                0
Int Atom Types                             I   N=          11
           0           0           0           0           0           0
           0           0           0           0           0
MM charges                                 R   N=          11
  0.00000000E+00  0.00000000E+00  0.00000000E+00  0.00000000E+00  0.00000000E+00
  0.00000000E+00  0.00000000E+00  0.00000000E+00  0.00000000E+00  0.00000000E+00
  0.00000000E+00
Integer atomic weights                     I   N=          11
          19          19          19          12          12          12
           1           1           1           1           1
Real atomic weights                        R   N=          11
  1.89984032E+01  1.89984032E+01  1.89984032E+01  1.20000000E+01  1.20000000E+01
  1.20000000E+01  1.00782504E+00  1.00782504E+00  1.00782504E+00  1.00782504E+00
  1.00782504E+00
Atom fragment info                         I   N=          11
           0           0           0           0           0           0
           0           0           0           0           0
Atom residue num                           I   N=          11
           0           0           0           0           0           0
           0           0           0           0           0
Nuclear spins                              I   N=          11
           1           1           1           0           0           0
           1           1           1           1           1
Nuclear ZEff                               R   N=          11
 -6.75000000E+00 -6.75000000E+00 -6.75000000E+00 -3.60000000E+00 -3.60000000E+00
 -3.60000000E+00 -1.00000000E+00 -1.00000000E+00 -1.00000000E+00 -1.00000000E+00
 -1.00000000E+00
Nuclear QMom                               R   N=          11
  0.00000000E+00  0.00000000E+00  0.00000000E+00  0.00000000E+00  0.00000000E+00
  0.00000000E+00  0.00000000E+00  0.00000000E+00  0.00000000E+00  0.00000000E+00
  0.00000000E+00
Nuclear GFac                               R   N=          11
  2.62886700E+00  2.62886700E+00  2.62886700E+00  0.00000000E+00  0.00000000E+00
  0.00000000E+00  2.79284600E+00  2.79284600E+00  2.79284600E+00  2.79284600E+00
  2.79284600E+00
MicOpt                                     I   N=          11
          -1          -1          -1          -1          -1          -1
          -1          -1          -1          -1          -1
Number of contracted shells                I               34
Number of primitive shells                 I               86
Pure/Cartesian d shells                    I                1
Pure/Cartesian f shells                    I                0
Highest angular momentum                   I                2
Largest degree of contraction              I                6
Shell types                                I   N=          34
           0          -1          -1           2           0          -1
          -1           2           0          -1          -1           2
           0          -1          -1           2           0          -1
          -1           2           0          -1          -1           2
           0           0           0           0           0           0
           0           0           0           0
Number of primitives per shell             I   N=          34
           6           3           1           1           6           3
           1           1           6           3           1           1
           6           3           1           1           6           3
           1           1           6           3           1           1
           3           1           3           1           3           1
           3           1           3           1
Shell to atom map                          I   N=          34
           1           1           1           1           2           2
           2           2           3           3           3           3
           4           4           4           4           5           5
           5           5           6           6           6           6
           7           7           8           8           9           9
          10          10          11          11
Primitive exponents                        R   N=          86
  7.00171309E+03  1.05136609E+03  2.39285690E+02  6.73974453E+01  2.15199573E+01
  7.40310130E+00  2.08479528E+01  4.80830834E+00  1.34406986E+00  3.58151393E-01
  8.00000000E-01  7.00171309E+03  1.05136609E+03  2.39285690E+02  6.73974453E+01
  2.15199573E+01  7.40310130E+00  2.08479528E+01  4.80830834E+00  1.34406986E+00
  3.58151393E-01  8.00000000E-01  7.00171309E+03  1.05136609E+03  2.39285690E+02
  6.73974453E+01  2.15199573E+01  7.40310130E+00  2.08479528E+01  4.80830834E+00
  1.34406986E+00  3.58151393E-01  8.00000000E-01  3.04752488E+03  4.57369518E+02
  1.03948685E+02  2.92101553E+01  9.28666296E+00  3.16392696E+00  7.86827235E+00
  1.88128854E+00  5.44249258E-01  1.68714478E-01  8.00000000E-01  3.04752488E+03
  4.57369518E+02  1.03948685E+02  2.92101553E+01  9.28666296E+00  3.16392696E+00
  7.86827235E+00  1.88128854E+00  5.44249258E-01  1.68714478E-01  8.00000000E-01
  3.04752488E+03  4.57369518E+02  1.03948685E+02  2.92101553E+01  9.28666296E+00
  3.16392696E+00  7.86827235E+00  1.88128854E+00  5.44249258E-01  1.68714478E-01
  8.00000000E-01  1.87311370E+01  2.82539436E+00  6.40121692E-01  1.61277759E-01
  1.87311370E+01  2.82539436E+00  6.40121692E-01  1.61277759E-01  1.87311370E+01
  2.82539436E+00  6.40121692E-01  1.61277759E-01  1.87311370E+01  2.82539436E+00
  6.40121692E-01  1.61277759E-01  1.87311370E+01  2.82539436E+00  6.40121692E-01
  1.61277759E-01
Contraction coefficients                   R   N=          86
  1.81961690E-03  1.39160796E-02  6.84053245E-02  2.33185760E-01  4.71267439E-01
  3.56618546E-01 -1.08506975E-01 -1.46451658E-01  1.12868858E+00  1.00000000E+00
  1.00000000E+00  1.81961690E-03  1.39160796E-02  6.84053245E-02  2.33185760E-01
  4.71267439E-01  3.56618546E-01 -1.08506975E-01 -1.46451658E-01  1.12868858E+00
  1.00000000E+00  1.00000000E+00  1.81961690E-03  1.39160796E-02  6.84053245E-02
  2.33185760E-01  4.71267439E-01  3.56618546E-01 -1.08506975E-01 -1.46451658E-01
  1.12868858E+00  1.00000000E+00  1.00000000E+00  1.83473713E-03  1.40373228E-02
  6.88426223E-02  2.32184443E-01  4.67941348E-01  3.62311985E-01 -1.19332420E-01
 -1.60854152E-01  1.14345644E+00  1.00000000E+00  1.00000000E+00  1.83473713E-03
  1.40373228E-02  6.88426223E-02  2.32184443E-01  4.67941348E-01  3.62311985E-01
 -1.19332420E-01 -1.60854152E-01  1.14345644E+00  1.00000000E+00  1.00000000E+00
  1.83473713E-03  1.40373228E-02  6.88426223E-02  2.32184443E-01  4.67941348E-01
  3.62311985E-01 -1.19332420E-01 -1.60854152E-01  1.14345644E+00  1.00000000E+00
  1.00000000E+00  3.34946043E-02  2.34726953E-01  8.13757326E-01  1.00000000E+00
  3.34946043E-02  2.34726953E-01  8.13757326E-01  1.00000000E+00  3.34946043E-02
  2.34726953E-01  8.13757326E-01  1.00000000E+00  3.34946043E-02  2.34726953E-01
  8.13757326E-01  1.00000000E+00  3.34946043E-02  2.34726953E-01  8.13757326E-01
  1.00000000E+00
P(S=P) Contraction coefficients            R   N=          86
  0.00000000E+00  0.00000000E+00  0.00000000E+00  0.00000000E+00  0.00000000E+00
  0.00000000E+00  7.16287242E-02  3.45912103E-01  7.22469956E-01  1.00000000E+00
  0.00000000E+00  0.00000000E+00  0.00000000E+00  0.00000000E+00  0.00000000E+00
  0.00000000E+00  0.00000000E+00  7.16287242E-02  3.45912103E-01  7.22469956E-01
  1.00000000E+00  0.00000000E+00  0.00000000E+00  0.00000000E+00  0.00000000E+00
  0.00000000E+00  0.00000000E+00  0.00000000E+00  7.16287242E-02  3.45912103E-01
  7.22469956E-01  1.00000000E+00  0.00000000E+00  0.00000000E+00  0.00000000E+00
  0.00000000E+00  0.00000000E+00  0.00000000E+00  0.00000000E+00  6.89990666E-02
  3.16423961E-01  7.44308291E-01  1.00000000E+00  0.00000000E+00  0.00000000E+00
  0.00000000E+00  0.00000000E+00  0.00000000E+00  0.00000000E+00  0.00000000E+00
  6.89990666E-02  3.16423961E-01  7.44308291E-01  1.00000000E+00  0.00000000E+00
  0.00000000E+00  0.00000000E+00  0.00000000E+00  0.00000000E+00  0.00000000E+00
  0.00000000E+00  6.89990666E-02  3.16423961E-01  7.44308291E-01  1.00000000E+00
  0.00000000E+00  0.00000000E+00  0.00000000E+00  0.00000000E+00  0.00000000E+00
  0.00000000E+00  0.00000000E+00  0.00000000E+00  0.00000000E+00  0.00000000E+00
  0.00000000E+00  0.00000000E+00  0.00000000E+00  0.00000000E+00  0.00000000E+00
  0.00000000E+00  0.00000000E+00  0.00000000E+00  0.00000000E+00  0.00000000E+00
  0.00000000E+00
Coordinates of each shell                  R   N=         102
 -2.05007832E-01  2.77655376E+00 -8.05079234E-01 -2.05007832E-01  2.77655376E+00
 -8.05079234E-01 -2.05007832E-01  2.77655376E+00 -8.05079234E-01 -2.05007832E-01
  2.77655376E+00 -8.05079234E-01 -4.22006714E+00 -6.58058722E-01  2.22388294E-02
 -4.22006714E+00 -6.58058722E-01  2.22388294E-02 -4.22006714E+00 -6.58058722E-01
  2.22388294E-02 -4.22006714E+00 -6.58058722E-01  2.22388294E-02  3.44812475E+00
 -1.30418278E+00 -1.05489912E+00  3.44812475E+00 -1.30418278E+00 -1.05489912E+00
  3.44812475E+00 -1.30418278E+00 -1.05489912E+00  3.44812475E+00 -1.30418278E+00
 -1.05489912E+00 -6.04309703E-02  7.29439476E-01  8.59353191E-01 -6.04309703E-02
  7.29439476E-01  8.59353191E-01 -6.04309703E-02  7.29439476E-01  8.59353191E-01
 -6.04309703E-02  7.29439476E-01  8.59353191E-01 -1.69168556E+00 -1.37048886E+00
 -1.68256966E-01 -1.69168556E+00 -1.37048886E+00 -1.68256966E-01 -1.69168556E+00
 -1.37048886E+00 -1.68256966E-01 -1.69168556E+00 -1.37048886E+00 -1.68256966E-01
  2.66608785E+00 -5.04456834E-02  1.13434614E+00  2.66608785E+00 -5.04456834E-02
  1.13434614E+00  2.66608785E+00 -5.04456834E-02  1.13434614E+00  2.66608785E+00
 -5.04456834E-02  1.13434614E+00 -7.97837319E-01  1.35652201E+00  2.69191362E+00
 -7.97837319E-01  1.35652201E+00  2.69191362E+00 -1.41388742E+00 -3.11466191E+00
  9.09405201E-01 -1.41388742E+00 -3.11466191E+00  9.09405201E-01 -1.23412642E+00
 -1.69624728E+00 -2.15190777E+00 -1.23412642E+00 -1.69624728E+00 -2.15190777E+00
  2.89624105E+00 -1.33976731E+00  2.73594491E+00  2.89624105E+00 -1.33976731E+00
  2.73594491E+00  3.85833416E+00  1.61431452E+00  1.40164555E+00  3.85833416E+00
  1.61431452E+00  1.40164555E+00
Constraint Structure                       R   N=          33
 -2.05007832E-01  2.77655376E+00 -8.05079234E-01 -4.22006714E+00 -6.58058722E-01
  2.22388294E-02  3.44812475E+00 -1.30418278E+00 -1.05489912E+00 -6.04309703E-02
  7.29439476E-01  8.59353191E-01 -1.69168556E+00 -1.37048886E+00 -1.68256966E-01
  2.66608785E+00 -5.04456834E-02  1.13434614E+00 -7.97837319E-01  1.35652201E+00
  2.69191362E+00 -1.41388742E+00 -3.11466191E+00  9.09405201E-01 -1.23412642E+00
 -1.69624728E+00 -2.15190777E+00  2.89624105E+00 -1.33976731E+00  2.73594491E+00
  3.85833416E+00  1.61431452E+00  1.40164555E+00
Num ILSW                                   I              100
ILSW                                       I   N=         100
           0           1           0           0           2           0
           0           0           0           0           0          -1
           0           0           0           0           0           0
           0           0           0           0           1           0
           1           0           0           0           0           0
           0           0      100000           0          -1           0
           0           0           0           0           0           0
           0           0           0           1           1           0
           0           0           1           0           0           0
           0           0           4          40           0           0
           0           0           0           0           0           0
           0           0           0           0           0           0
           0           0           0           0           0           0
           0           0           0           0           0           0
           0           0           0           0           0           0
           0           0           0           0           0           0
           0           0           0           0
Num RLSW                                   I               40
RLSW                                       R   N=          40
  1.00000000E+00  1.00000000E+00  1.00000000E+00  1.00000000E+00  1.00000000E+00
  0.00000000E+00  0.00000000E+00  1.00000000E+00  0.00000000E+00  0.00000000E+00
  0.00000000E+00  0.00000000E+00  1.00000000E+00  0.00000000E+00  0.00000000E+00
  0.00000000E+00  0.00000000E+00  1.00000000E+00  0.00000000E+00  0.00000000E+00
  0.00000000E+00  0.00000000E+00  1.00000000E+00  0.00000000E+00  0.00000000E+00
  0.00000000E+00  0.00000000E+00  1.00000000E+00  0.00000000E+00  0.00000000E+00
  0.00000000E+00  0.00000000E+00  0.00000000E+00  0.00000000E+00  0.00000000E+00
  0.00000000E+00  0.00000000E+00  0.00000000E+00  1.00000000E+00  1.00000000E+00
MxBond                                     I                4
NBond                                      I   N=          11
           1           1           1           4           4           4
           1           1           1           1           1
IBond                                      I   N=          44
           4           0           0           0           5           0
           0           0           6           0           0           0
           1           5           6           7           2           4
           8           9           3           4          10          11
           4           0           0           0           5           0
           0           0           5           0           0           0
           6           0           0           0           6           0
           0           0
RBond                                      R   N=          44
  1.00000000E+00  0.00000000E+00  0.00000000E+00  0.00000000E+00  1.00000000E+00
  0.00000000E+00  0.00000000E+00  0.00000000E+00  1.00000000E+00  0.00000000E+00
  0.00000000E+00  0.00000000E+00  1.00000000E+00  1.00000000E+00  1.00000000E+00
  1.00000000E+00  1.00000000E+00  1.00000000E+00  1.00000000E+00  1.00000000E+00
  1.00000000E+00  1.00000000E+00  1.00000000E+00  1.00000000E+00  1.00000000E+00
  0.00000000E+00  0.00000000E+00  0.00000000E+00  1.00000000E+00  0.00000000E+00
  0.00000000E+00  0.00000000E+00  1.00000000E+00  0.00000000E+00  0.00000000E+00
  0.00000000E+00  1.00000000E+00  0.00000000E+00  0.00000000E+00  0.00000000E+00
  1.00000000E+00  0.00000000E+00  0.00000000E+00  0.00000000E+00
Virial Ratio                               R      2.001978635978473E+00
SCF Energy                                 R     -4.148050944976515E+02
MP2 Energy                                 R     -4.157020593425055E+02
Total Energy                               R     -4.157020593425055E+02
Post-SCF wavefunction norm                 R      1.572227253615157E+00
RMS Force                                  R      2.421909039773357E-06
RMS Density                                R      1.145391012057423E-09
External E-field                           R   N=          35
  0.00000000E+00  0.00000000E+00  0.00000000E+00  0.00000000E+00  0.00000000E+00
  0.00000000E+00  0.00000000E+00  0.00000000E+00  0.00000000E+00  0.00000000E+00
  0.00000000E+00  0.00000000E+00  0.00000000E+00  0.00000000E+00  0.00000000E+00
  0.00000000E+00  0.00000000E+00  0.00000000E+00  0.00000000E+00  0.00000000E+00
  0.00000000E+00  0.00000000E+00  0.00000000E+00  0.00000000E+00  0.00000000E+00
  0.00000000E+00  0.00000000E+00  0.00000000E+00  0.00000000E+00  0.00000000E+00
  0.00000000E+00  0.00000000E+00  0.00000000E+00  0.00000000E+00  0.00000000E+00
IOpCl                                      I                0
IROHF                                      I                0
Alpha Orbital Energies                     R   N=         100
 -2.62959463E+01 -2.62881251E+01 -2.62833818E+01 -1.13351196E+01 -1.13343667E+01
 -1.13233307E+01 -1.60182398E+00 -1.59122176E+00 -1.58111304E+00 -1.08991545E+00
 -9.67067249E-01 -8.51071783E-01 -7.50570858E-01 -7.29634487E-01 -7.27672283E-01
 -6.96594616E-01 -6.79236359E-01 -6.67971650E-01 -6.60745148E-01 -6.29490576E-01
 -6.10982930E-01 -5.48741453E-01 -5.34827168E-01 -5.23504226E-01 -5.01802931E-01
  2.20520992E-01  2.53849527E-01  2.66040585E-01  2.82586550E-01  2.94387052E-01
  3.10055776E-01  3.34012787E-01  3.68572897E-01  4.19012255E-01  4.48656302E-01
  7.42879530E-01  7.42974547E-01  7.69719044E-01  7.78664263E-01  8.01887257E-01
  8.48728762E-01  8.81364146E-01  8.89837149E-01  9.69505197E-01  1.01433718E+00
  1.08883286E+00  1.09898753E+00  1.11518522E+00  1.14589718E+00  1.17152822E+00
  1.30809934E+00  1.36607309E+00  1.43375941E+00  1.48048118E+00  1.50791025E+00
  1.51195338E+00  1.64635749E+00  1.67463855E+00  1.68283374E+00  1.69253621E+00
  1.70251833E+00  1.71394150E+00  1.73296716E+00  1.83245462E+00  1.94377207E+00
  1.99518052E+00  2.02509183E+00  2.03556681E+00  2.08846346E+00  2.10471948E+00
  2.11026352E+00  2.13409569E+00  2.18647561E+00  2.21372336E+00  2.23641895E+00
  2.31226097E+00  2.34678855E+00  2.39942091E+00  2.44170765E+00  2.44999272E+00
  2.47803085E+00  2.51164535E+00  2.52083955E+00  2.64599254E+00  2.67340177E+00
  2.71703591E+00  2.77096977E+00  2.89739821E+00  2.97529444E+00  3.01572390E+00
  3.11678799E+00  3.35772054E+00  3.41570193E+00  3.43988042E+00  4.43085179E+00
  4.52230991E+00  4.69219033E+00  4.73384043E+00  4.94398255E+00  4.99007484E+00
Alpha MO coefficients                      R   N=       10000
 -6.81755378E-05  2.24416609E-05  3.59416932E-06 -7.67152080E-06 -2.25480239E-06
 -5.87476996E-05  7.87987309E-06  1.31950444E-05  6.46531740E-06  2.45444973E-05
  2.68664478E-05  3.27790548E-05  1.41060449E-06  3.74550599E-06  8.30142143E-06
  3.34698313E-05  1.21092204E-04  1.19550430E-05 -2.20866422E-06 -2.29267540E-06
 -4.27264052E-04 -8.67134617E-05  1.80723062E-05  1.52539145E-05  6.80983809E-05
  8.69229221E-05  9.17365152E-05  3.16518738E-06  4.33978069E-06 -2.27015864E-06
  9.94429647E-01  1.77562041E-02 -2.67783913E-04  4.06617597E-04  7.29370247E-04
  8.11666889E-03  1.76128891E-04 -2.93157918E-04 -5.19072232E-04 -4.57711169E-03
 -4.65793132E-03 -4.89089612E-03  8.47931477E-05  1.49266747E-04 -2.28245623E-04
  4.87499005E-06  8.41088688E-05 -2.03213287E-05  1.87060082E-05  8.85467375E-07
 -1.95004302E-04 -1.56773755E-04 -8.53518113E-06  1.74802694E-05 -5.53199378E-05
 -7.47924343E-06 -1.56214037E-05  3.14235965E-05  2.21168745E-05 -1.19174126E-05
  5.11701502E-06  1.30180552E-05  1.11580364E-05 -1.69068544E-06  1.08064709E-05
  6.11828500E-05 -2.06949734E-04  4.10711943E-05 -8.33573564E-05  3.06679529E-05
  6.10683501E-06  2.13105982E-06 -1.66303252E-05 -2.39687214E-06 -1.10571089E-06
 -2.99492841E-05  8.91570578E-05  1.66564381E-04 -2.44521923E-04 -4.46150391E-04
  2.83567875E-04 -1.93036097E-04  1.42713637E-05  2.00541401E-05  5.36353446E-06
  2.98884741E-05  2.44161923E-04 -8.42816699E-05 -1.10891879E-04  2.03847677E-04
  1.09641030E-05 -1.53069150E-05  2.36290788E-05  2.27682101E-05  4.37188835E-05
 -1.51655635E-04 -1.83693734E-05 -8.59885391E-05 -8.04749314E-06 -2.87525029E-05
  9.94444420E-01  1.78413887E-02  5.77403418E-05 -6.75573810E-04  5.53482991E-04
  7.78562535E-03 -4.71280613E-05  5.38808804E-04 -4.14407196E-04 -4.47682289E-03
 -4.79919563E-03 -4.68536203E-03  3.17328126E-05 -1.61961180E-05  2.87823493E-04
 -1.72231735E-04  2.31464045E-06  2.93473875E-06  3.04177203E-06  1.72542766E-06
  6.33724568E-06  1.97124877E-05  1.60298193E-05 -1.23132949E-05  1.59068554E-05
  6.70335925E-06  2.99926638E-05  1.56649578E-06 -3.01574040E-06  1.12395779E-06
  7.26582149E-05 -1.85057672E-05 -7.01900683E-06  4.78264471E-06 -2.91725158E-06
  1.10263357E-04 -3.64873671E-06  1.58971283E-05  2.21667489E-05 -6.41363075E-06
  6.59357550E-06 -6.04706558E-06  1.27979599E-05 -3.22172042E-06 -7.93039257E-08
 -4.19554995E-05  9.81079721E-06 -3.15868133E-05  4.17303816E-04 -3.27802976E-04
  8.24993362E-04  9.89450140E-05 -1.66199469E-04 -2.64996848E-04 -2.88076480E-05
  2.03864526E-04  1.07027152E-04 -7.06828733E-06  3.35884925E-05 -2.54138258E-04
  8.46055433E-06  1.10523675E-04 -2.27344851E-05 -1.59066770E-05 -7.78974613E-06
 -3.99024041E-04 -1.14969253E-04 -2.88029184E-04  5.38378363E-05 -1.77333228E-05
 -6.48565005E-05 -3.96061338E-06 -3.67296884E-05  8.45836850E-06  8.23902532E-06
  1.02302177E-05  1.15411155E-04  2.26593641E-05 -1.18823524E-05 -3.53783343E-06
 -4.06905169E-04  1.97669083E-04 -9.57528010E-05  2.11928223E-04 -3.77331275E-05
 -2.22880122E-05 -1.46569065E-05  3.45444128E-05 -3.21246713E-05  1.57075677E-05
 -7.89218008E-06 -1.23082102E-05 -6.82430765E-08 -7.28074821E-05  4.97260861E-05
 -1.11375637E-05  4.57921119E-06 -6.33157195E-05  4.06837876E-05 -2.97819371E-05
  1.82809580E-04  3.32975921E-05 -7.42593806E-06 -5.36476339E-06  2.08707935E-06
 -7.53332965E-05 -7.80207552E-07 -9.39489373E-07 -1.05705015E-05  3.23467905E-05
  3.21456478E-05  3.35736039E-05 -5.31755024E-06 -8.92238368E-06  7.21025044E-06
  9.94433820E-01  1.77784043E-02  8.47353495E-04 -2.42288205E-04 -5.41971627E-05
  8.05292231E-03 -5.99453502E-04  1.66396631E-04  4.54300825E-05 -4.99174135E-03
 -4.55203311E-03 -4.52358392E-03  1.55096906E-04  4.31883291E-05 -7.61510291E-06
 -1.20170193E-05 -1.51081013E-06  1.21280460E-06 -2.17883238E-06  1.69082864E-06
  4.08803659E-06 -6.06077001E-06  7.27159295E-06 -4.41447292E-06 -1.06580003E-06
 -8.38586780E-07 -2.70751733E-06 -2.15729415E-06 -5.54142636E-07  3.69396320E-07
  7.06741295E-06  9.80108367E-05  1.10286187E-05  1.32497891E-05 -9.67662078E-06
 -2.44822150E-04  2.12954719E-04  1.32406817E-04  1.28003465E-04 -6.01465443E-05
 -1.34626817E-05 -5.15684226E-06 -2.94081380E-05 -1.55653949E-05 -1.27233618E-05
 -2.80662530E-05  1.04092552E-04 -5.20056711E-04  1.54172825E-04  4.37578409E-05
  3.54598176E-04  1.49719139E-04  1.37396330E-04  4.65152309E-05  3.45653473E-04
  2.26053438E-07 -6.11694949E-05 -1.17436504E-04 -3.08319344E-05  2.86307813E-05
  2.60193982E-06  5.51323412E-06 -8.28485135E-06 -4.40497337E-08  2.04577378E-07
 -1.02435232E-04  3.57137325E-05 -2.49214848E-05 -1.80633538E-05  1.34869445E-05
  3.47277952E-06  7.35076629E-06 -3.28302929E-06  2.24489909E-06 -2.35491303E-06
  2.91488556E-05 -7.06474136E-05 -1.31551467E-05 -6.32982479E-05 -1.72249260E-05
 -7.55155953E-05 -1.00561680E-06  2.17707648E-05  6.79588877E-06 -9.08476348E-06
 -2.05073668E-04 -4.97722143E-04 -2.72679738E-05 -1.34366950E-04  1.60913606E-04
  2.85383689E-03  8.65680569E-05  9.75195083E-05 -3.67136419E-04 -2.77570981E-04
 -8.37897189E-04 -7.31399510E-04 -2.80090851E-05 -5.41996981E-05  5.29116651E-04
 -2.80967066E-05 -1.67364525E-04 -3.38462769E-05 -2.15386290E-05 -5.44101255E-06
  3.16825972E-04 -2.08500183E-05  7.06425562E-06 -1.62036369E-06 -9.62994261E-05
 -7.16457125E-05 -1.91032618E-04  6.98832063E-05  3.24264123E-05  4.60632345E-05
 -1.03753346E-04 -1.90355959E-04  1.38961821E-05  1.96381692E-05  1.26751994E-04
  1.00281886E-03 -1.31105550E-05 -8.79064110E-05 -3.94392002E-04 -8.19268474E-05
 -2.84820536E-04 -5.58579959E-04 -1.58345631E-05  1.63031350E-04 -2.54965511E-04
  8.43900745E-01  2.36099688E-02  1.07989971E-04  6.20662069E-04 -6.81294966E-04
 -1.27406825E-02  4.94113006E-04  1.32681365E-03  9.43925730E-04 -1.33229012E-03
 -1.10351017E-03 -1.06960880E-03 -8.66326703E-06 -2.21128892E-05 -1.21070644E-04
  2.37665158E-02  4.01631919E-04  3.45815244E-05  3.51639799E-05  5.32417570E-05
  4.57075515E-03  1.51618177E-03  1.61490284E-03  5.34625661E-04 -2.02259982E-04
 -3.63880874E-04 -2.20846189E-04 -4.58248452E-05 -2.63938946E-05 -8.68926888E-05
  5.28145256E-01  1.44787221E-02 -3.23315002E-05 -3.47816569E-04 -5.14368582E-04
 -3.12010206E-03 -1.08193329E-03  2.80466986E-04 -6.33214045E-04 -1.13496094E-03
 -9.11322661E-04 -8.30923451E-04  9.31535079E-05 -7.38547665E-05  5.62267029E-05
  9.35715977E-05  1.97865645E-03 -1.69927388E-04  8.42965958E-05 -2.30945299E-04
 -2.39708257E-05 -5.55848023E-05  1.45735626E-03 -7.75880415E-05  1.20589984E-03
  7.60492980E-05 -3.37248474E-05 -5.10198316E-05  1.58438557E-04 -1.12456186E-04
 -9.84708604E-04  5.19279534E-05 -2.70869188E-04  2.23440937E-04  4.28518111E-05
  2.97806284E-04  1.52169226E-04 -8.21527035E-05  4.23200056E-05 -4.21318420E-04
 -6.63961972E-05 -3.48352733E-04 -1.55503358E-05  1.48585597E-05  3.68372184E-06
  1.38459437E-03  2.94656630E-04 -3.01955138E-05  1.45558961E-05 -2.20403021E-04
 -2.78886230E-04 -2.28559602E-04 -4.08550829E-05 -1.09705448E-05 -2.44764431E-05
 -1.34770807E-04 -4.36635317E-05 -1.12084643E-04  1.44410808E-04  2.19439229E-04
  1.55596325E-03  1.65947992E-04 -3.17943775E-04 -5.09762416E-04 -1.57326006E-04
 -1.60792512E-04 -6.77657979E-04  2.18468944E-04  2.58496647E-04 -4.92150784E-04
 -5.28225856E-01 -1.46702872E-02  1.42698271E-06 -4.36921227E-04  4.91253316E-04
  1.20090934E-02  1.84585498E-03 -1.14530967E-03 -6.84409778E-06  3.83039844E-04
  4.23456408E-04  4.94624773E-04  7.64003864E-05  3.19314249E-06  1.10939482E-04
 -1.66623505E-02 -6.40240318E-04 -9.95931979E-05 -5.10521337E-05 -3.13633992E-05
 -1.90039510E-03  5.67003745E-05 -1.02277334E-03 -4.97826976E-04  6.35092156E-05
  1.37809423E-04  3.14628544E-05  8.59451282E-05  6.71950712E-05  6.04247483E-05
  8.44324345E-01  2.32461430E-02  1.77156205E-04 -5.44488057E-04 -9.13718020E-04
 -1.40796729E-02  2.22675222E-03 -4.97032792E-04  1.11232952E-04 -1.07852045E-03
 -1.07435134E-03 -9.85267070E-04 -9.60095163E-05 -7.99111836E-05  1.28447477E-04
 -2.32416841E-04 -1.25034180E-03 -1.47038088E-05 -8.93449887E-05  3.94240858E-05
 -3.02740343E-04  2.03463942E-04  2.07775961E-03  2.08833444E-04  1.93751242E-03
 -3.60148156E-05 -2.74836154E-04  3.55600129E-05  8.23593456E-05 -8.01430727E-06
  5.69895426E-04 -4.59278570E-05 -1.87777351E-04  3.25047912E-05 -2.06248675E-04
 -6.84723352E-05 -2.05070864E-04  9.56929831E-05  6.04429055E-05 -3.52194082E-05
 -1.42913180E-04  3.08979765E-05  3.03390610E-04 -9.36914972E-05 -2.29826658E-05
  1.23145248E-03 -8.37676671E-04  3.20889836E-04  7.97148457E-05 -1.06110521E-03
 -5.64580917E-05  7.70793305E-05  3.68831305E-04  8.41971957E-05 -5.36617070E-05
 -2.31994686E-05 -1.16507003E-04  5.63848574E-05  9.55798783E-06 -1.63211850E-05
  2.27449951E-04 -9.49483869E-05 -2.61573951E-05  1.41226223E-05 -5.24303322E-05
 -1.34882699E-04 -1.30610525E-04  2.44975456E-05 -1.43592793E-05  3.42758436E-05
 -2.93181777E-02 -6.66250735E-04 -7.32281558E-06 -1.09725756E-04  2.86000471E-05
  3.61803320E-03 -1.41854567E-03 -1.24440552E-03 -6.05113169E-04 -2.44868191E-04
 -2.63542907E-04 -1.52968829E-04 -1.17928211E-04 -1.17848135E-04 -2.86846539E-05
  9.95472559E-01  2.73582305E-02 -1.06896652E-03  4.91487380E-04  2.53348610E-04
 -1.34957842E-02 -1.30636654E-03 -6.89522686E-04 -3.25612456E-04 -1.12681375E-03
 -1.50745021E-03 -1.50273610E-03 -1.33532327E-04 -5.36695086E-05 -2.27771811E-05
  1.41388197E-03 -2.58920185E-04  7.93967988E-05  8.08834042E-05  2.39020310E-05
  8.31302992E-04 -4.86870332E-04 -3.39202207E-04 -1.12148516E-05  1.43794151E-05
 -6.40078650E-05 -1.03394369E-04 -2.10947565E-07  3.91828656E-05  3.06294000E-05
 -1.68928491E-04  2.61313356E-05  1.33722426E-04  2.41711549E-03  1.94615355E-04
  2.47534575E-03 -3.77360134E-05 -3.57378495E-04 -5.96624761E-06  3.27944278E-04
 -1.26949781E-01  2.92417036E-01  3.28085268E-03 -2.92602864E-02  2.21069730E-02
  2.56948613E-01  2.56631513E-03 -2.12652884E-02  1.55476847E-02  1.08926227E-02
  1.73191278E-02  1.43759775E-02 -7.53461035E-04  5.08911945E-04 -5.92318653E-03
 -5.43150936E-02  1.23440968E-01  1.58467724E-02 -3.03473248E-03 -8.43119760E-04
  1.13394743E-01  1.18261113E-02 -2.27636315E-03 -5.86306719E-04  8.15827650E-03
  4.15850093E-03  3.55615963E-03 -9.99718613E-04 -3.48065049E-04  1.00266620E-04
 -1.69934297E-01  3.94089433E-01 -1.61581012E-02  2.20996499E-02  3.78444874E-02