
    -----------------------------------------------------------------------
          Psi4: An Open-Source Ab Initio Electronic Structure Package
                               Psi4 1.3.2 release

                         Git: Rev {HEAD} ecbda83 


    R. M. Parrish, L. A. Burns, D. G. A. Smith, A. C. Simmonett,
    A. E. DePrince III, E. G. Hohenstein, U. Bozkaya, A. Yu. Sokolov,
    R. Di Remigio, R. M. Richard, J. F. Gonthier, A. M. James,
    H. R. McAlexander, A. Kumar, M. Saitow, X. Wang, B. P. Pritchard,
    P. Verma, H. F. Schaefer III, K. Patkowski, R. A. King, E. F. Valeev,
    F. A. Evangelista, J. M. Turney, T. D. Crawford, and C. D. Sherrill,
    J. Chem. Theory Comput. 13(7) pp 3185--3197 (2017).
    (doi: 10.1021/acs.jctc.7b00174)


                         Additional Contributions by
    P. Kraus, H. Kruse, M. H. Lechner, M. C. Schieber, R. A. Shaw,
    A. Alenaizan, R. Galvelis, Z. L. Glick, S. Lehtola, and J. P. Misiewicz

    -----------------------------------------------------------------------


    Psi4 started on: Saturday, 07 November 2020 06:26AM

    Process ID: 90641
    Host:       node142.bme.utexas.edu
    PSIDATADIR: /home/xy3866/psi4conda/share/psi4
    Memory:     500.0 MiB
    Threads:    8
    
  ==> Input File <==

--------------------------------------------------------------------------
#psi4
#
memory 32 gb

molecule  {
-2 1
  O       -1.2362950     1.7303800    -0.2239510
  O        2.6794370    -1.1261430    -0.8901160
  O        3.7000480     0.2611620     0.6076450
  O       -3.3042904    -0.3151495    -0.8895518
  O       -2.5973840    -0.9175860     1.2002500
  C        0.1162890    -0.2520540     0.0602520
  C        1.3712430     0.6068110     0.1462360
  C       -1.1988410     0.5019860    -0.0558080
  C        2.7080760    -0.1725680    -0.0543080
  C       -2.4977060    -0.3261360     0.0823270
  H        0.0210760    -0.9244250     0.9209780
  H        0.2133690    -0.9136840    -0.8118550
  H        1.4153100     1.1406480     1.1027450
  H        1.3130670     1.3830990    -0.6295990
units angstrom
no_reorient  #important for SAPT in psi4, default
symmetry c1  #important for SAPT in psi4, default
}

set PROPERTIES_ORIGIN ["COM"]
properties('MP2/aug-cc-pvtz', properties = ['dipole'])
--------------------------------------------------------------------------

  Memory set to  29.802 GiB by Python driver.
    SCF Algorithm Type (re)set to DF.

*** tstart() called on node142.bme.utexas.edu
*** at Sat Nov  7 06:26:15 2020

   => Loading Basis Set <=

    Name: AUG-CC-PVTZ
    Role: ORBITAL
    Keyword: BASIS
    atoms 1-5   entry O          line   327 file /home/xy3866/psi4conda/share/psi4/basis/aug-cc-pvtz.gbs 
    atoms 6-10  entry C          line   235 file /home/xy3866/psi4conda/share/psi4/basis/aug-cc-pvtz.gbs 
    atoms 11-14 entry H          line    36 file /home/xy3866/psi4conda/share/psi4/basis/aug-cc-pvtz.gbs 


         ---------------------------------------------------------
                                   SCF
               by Justin Turney, Rob Parrish, Andy Simmonett
                          and Daniel G. A. Smith
                              RHF Reference
                        8 Threads,  30517 MiB Core
         ---------------------------------------------------------

  ==> Geometry <==

    Molecular point group: c1
    Full point group: C1

    Geometry (in Angstrom), charge = -2, multiplicity = 1:

       Center              X                  Y                   Z               Mass       
    ------------   -----------------  -----------------  -----------------  -----------------
         O           -1.214371206408     1.736546726362    -0.221177695083    15.994914619570
         O            2.701360793592    -1.119976273638    -0.887342695083    15.994914619570
         O            3.721971793592     0.267328726362     0.610418304917    15.994914619570
         O           -3.282366606408    -0.308982773638    -0.886778495083    15.994914619570
         O           -2.575460206408    -0.911419273638     1.203023304917    15.994914619570
         C            0.138212793592    -0.245887273638     0.063025304917    12.000000000000
         C            1.393166793592     0.612977726362     0.149009304917    12.000000000000
         C           -1.176917206408     0.508152726362    -0.053034695083    12.000000000000
         C            2.729999793592    -0.166401273638    -0.051534695083    12.000000000000
         C           -2.475782206408    -0.319969273638     0.085100304917    12.000000000000
         H            0.042999793592    -0.918258273638     0.923751304917     1.007825032230
         H            0.235292793592    -0.907517273638    -0.809081695083     1.007825032230
         H            1.437233793592     1.146814726362     1.105518304917     1.007825032230
         H            1.334990793592     1.389265726362    -0.626825695083     1.007825032230

  Running in c1 symmetry.

  Rotational constants: A =      0.10685  B =      0.01861  C =      0.01781 [cm^-1]
  Rotational constants: A =   3203.33102  B =    557.77643  C =    533.95881 [MHz]
  Nuclear repulsion =  479.254859897371887

  Charge       = -2
  Multiplicity = 1
  Electrons    = 76
  Nalpha       = 38
  Nbeta        = 38

  ==> Algorithm <==

  SCF Algorithm Type is DF.
  DIIS enabled.
  MOM disabled.
  Fractional occupation disabled.
  Guess Type is SAD.
  Energy threshold   = 1.00e-10
  Density threshold  = 1.00e-10
  Integral threshold = 0.00e+00

  ==> Primary Basis <==

  Basis Set: AUG-CC-PVTZ
    Blend: AUG-CC-PVTZ
    Number of shells: 176
    Number of basis function: 552
    Number of Cartesian functions: 650
    Spherical Harmonics?: true
    Max angular momentum: 3

   => Loading Basis Set <=

    Name: (AUG-CC-PVTZ AUX)
    Role: JKFIT
    Keyword: DF_BASIS_SCF
    atoms 1-5   entry O          line   286 file /home/xy3866/psi4conda/share/psi4/basis/aug-cc-pvtz-jkfit.gbs 
    atoms 6-10  entry C          line   162 file /home/xy3866/psi4conda/share/psi4/basis/aug-cc-pvtz-jkfit.gbs 
    atoms 11-14 entry H          line    70 file /home/xy3866/psi4conda/share/psi4/basis/aug-cc-pvtz-jkfit.gbs 

  ==> Pre-Iterations <==

   -------------------------------------------------------
    Irrep   Nso     Nmo     Nalpha   Nbeta   Ndocc  Nsocc
   -------------------------------------------------------
     A        552     552       0       0       0       0
   -------------------------------------------------------
    Total     552     552      38      38      38       0
   -------------------------------------------------------

  ==> Integral Setup <==

  DFHelper Memory: AOs need 2.638 GiB; user supplied 22.352 GiB. Using in-core AOs.

  ==> MemDFJK: Density-Fitted J/K Matrices <==

    J tasked:                   Yes
    K tasked:                   Yes
    wK tasked:                   No
    OpenMP threads:               8
    Memory [MiB]:             22888
    Algorithm:                 Disk
    Schwarz Cutoff:           1E-12
    Mask sparsity (%):       8.3314
    Fitting Condition:        1E-10

   => Auxiliary Basis Set <=

  Basis Set: (AUG-CC-PVTZ AUX)
    Blend: AUG-CC-PVTZ-JKFIT
    Number of shells: 356
    Number of basis function: 1224
    Number of Cartesian functions: 1530
    Spherical Harmonics?: true
    Max angular momentum: 4

  Minimum eigenvalue in the overlap matrix is 7.0701557375E-06.
  Using Symmetric Orthogonalization.

  SCF Guess: Superposition of Atomic Densities via on-the-fly atomic UHF.

  ==> Iterations <==

                           Total Energy        Delta E     RMS |[F,P]|

   @DF-RHF iter SAD:  -564.02165483638646   -5.64022e+02   0.00000e+00 
   @DF-RHF iter   1:  -565.78356196929826   -1.76191e+00   1.78817e-03 DIIS
   @DF-RHF iter   2:  -566.03763524971498   -2.54073e-01   1.24413e-03 DIIS
   @DF-RHF iter   3:  -566.18651904766227   -1.48884e-01   1.48076e-04 DIIS
   @DF-RHF iter   4:  -566.19086473586026   -4.34569e-03   6.38908e-05 DIIS
   @DF-RHF iter   5:  -566.19170820856061   -8.43473e-04   1.76418e-05 DIIS
   @DF-RHF iter   6:  -566.19177435249117   -6.61439e-05   7.56303e-06 DIIS
   @DF-RHF iter   7:  -566.19178741134624   -1.30589e-05   1.90031e-06 DIIS
   @DF-RHF iter   8:  -566.19178904453929   -1.63319e-06   9.87051e-07 DIIS
   @DF-RHF iter   9:  -566.19178938668995   -3.42151e-07   4.32470e-07 DIIS
   @DF-RHF iter  10:  -566.19178946654722   -7.98573e-08   1.87858e-07 DIIS
   @DF-RHF iter  11:  -566.19178947896114   -1.24139e-08   5.76530e-08 DIIS
   @DF-RHF iter  12:  -566.19178948052786   -1.56672e-09   1.86499e-08 DIIS
   @DF-RHF iter  13:  -566.19178948077126   -2.43404e-10   8.36691e-09 DIIS
   @DF-RHF iter  14:  -566.19178948082242   -5.11591e-11   4.52429e-09 DIIS
   @DF-RHF iter  15:  -566.19178948083572   -1.33014e-11   2.48234e-09 DIIS
   @DF-RHF iter  16:  -566.19178948084175   -6.02540e-12   1.01794e-09 DIIS
   @DF-RHF iter  17:  -566.19178948084129    4.54747e-13   3.97333e-10 DIIS
   @DF-RHF iter  18:  -566.19178948084254   -1.25056e-12   1.60074e-10 DIIS
   @DF-RHF iter  19:  -566.19178948084254    0.00000e+00   7.67079e-11 DIIS
  Energy and wave function converged.


  ==> Post-Iterations <==

    Orbital Energies [Eh]
    ---------------------

    Doubly Occupied:                                                      

       1A    -20.289594     2A    -20.230465     3A    -20.229849  
       4A    -20.210332     5A    -20.209548     6A    -11.071968  
       7A    -11.071214     8A    -11.053349     9A    -10.970826  
      10A    -10.958784    11A     -1.119807    12A     -1.086679  
      13A     -1.075827    14A     -0.998235    15A     -0.977501  
      16A     -0.790080    17A     -0.662065    18A     -0.557706  
      19A     -0.441003    20A     -0.421880    21A     -0.382007  
      22A     -0.370734    23A     -0.364576    24A     -0.330755  
      25A     -0.325354    26A     -0.306105    27A     -0.285131  
      28A     -0.274261    29A     -0.249173    30A     -0.230086  
      31A     -0.215634    32A     -0.207771    33A     -0.145464  
      34A     -0.128278    35A     -0.126048    36A     -0.117487  
      37A     -0.111003    38A     -0.100429  

    Virtual:                                                              

      39A      0.212518    40A      0.221276    41A      0.227788  
      42A      0.235948    43A      0.247033    44A      0.262386  
      45A      0.275366    46A      0.293810    47A      0.299703  
      48A      0.304175    49A      0.311770    50A      0.315148  
      51A      0.328392    52A      0.335549    53A      0.340102  
      54A      0.345836    55A      0.360305    56A      0.362559  
      57A      0.381391    58A      0.392498    59A      0.396408  
      60A      0.405180    61A      0.410826    62A      0.412352  
      63A      0.419657    64A      0.424770    65A      0.430994  
      66A      0.437698    67A      0.440809    68A      0.454141  
      69A      0.458247    70A      0.458580    71A      0.469885  
      72A      0.474461    73A      0.488020    74A      0.492017  
      75A      0.494640    76A      0.505705    77A      0.511393  
      78A      0.520611    79A      0.524816    80A      0.526641  
      81A      0.537082    82A      0.542523    83A      0.553562  
      84A      0.563781    85A      0.582257    86A      0.584676  
      87A      0.596557    88A      0.601205    89A      0.602548  
      90A      0.611961    91A      0.617369    92A      0.622638  
      93A      0.632269    94A      0.635626    95A      0.644736  
      96A      0.655276    97A      0.665061    98A      0.672479  
      99A      0.676811   100A      0.683259   101A      0.693487  
     102A      0.695029   103A      0.699093   104A      0.726265  
     105A      0.732734   106A      0.741128   107A      0.746777  
     108A      0.756193   109A      0.765711   110A      0.777516  
     111A      0.781759   112A      0.783935   113A      0.799168  
     114A      0.807231   115A      0.815502   116A      0.821643  
     117A      0.830381   118A      0.835914   119A      0.842403  
     120A      0.850048   121A      0.855004   122A      0.867261  
     123A      0.868933   124A      0.882769   125A      0.891956  
     126A      0.902548   127A      0.907092   128A      0.931422  
     129A      0.939266   130A      0.945732   131A      0.955466  
     132A      0.963426   133A      0.971929   134A      0.977357  
     135A      0.996166   136A      1.003219   137A      1.015807  
     138A      1.020749   139A      1.034627   140A      1.041511  
     141A      1.042984   142A      1.058413   143A      1.070682  
     144A      1.078160   145A      1.086214   146A      1.092914  
     147A      1.102460   148A      1.108042   149A      1.115767  
     150A      1.118721   151A      1.122743   152A      1.129350  
     153A      1.137053   154A      1.147056   155A      1.152874  
     156A      1.164107   157A      1.170285   158A      1.172167  
     159A      1.181703   160A      1.192769   161A      1.198306  
     162A      1.206759   163A      1.214352   164A      1.227885  
     165A      1.235938   166A      1.237116   167A      1.240474  
     168A      1.252920   169A      1.259931   170A      1.270689  
     171A      1.276885   172A      1.280843   173A      1.289016  
     174A      1.298790   175A      1.310294   176A      1.317716  
     177A      1.324908   178A      1.343252   179A      1.347123  
     180A      1.350564   181A      1.355482   182A      1.366751  
     183A      1.376890   184A      1.390942   185A      1.392131  
     186A      1.396564   187A      1.405264   188A      1.408110  
     189A      1.422375   190A      1.434554   191A      1.437748  
     192A      1.443679   193A      1.455864   194A      1.472575  
     195A      1.484399   196A      1.488925   197A      1.508858  
     198A      1.513900   199A      1.516949   200A      1.544115  
     201A      1.552317   202A      1.566009   203A      1.574442  
     204A      1.583664   205A      1.592858   206A      1.604532  
     207A      1.625912   208A      1.627794   209A      1.643029  
     210A      1.652794   211A      1.660331   212A      1.674603  
     213A      1.677752   214A      1.700235   215A      1.709904  
     216A      1.730549   217A      1.733297   218A      1.747899  
     219A      1.759956   220A      1.767025   221A      1.772873  
     222A      1.778939   223A      1.795712   224A      1.806360  
     225A      1.814390   226A      1.826059   227A      1.830678  
     228A      1.836071   229A      1.849241   230A      1.857284  
     231A      1.860192   232A      1.894956   233A      1.906929  
     234A      1.907562   235A      1.911474   236A      1.922584  
     237A      1.933072   238A      1.950213   239A      1.959811  
     240A      1.963241   241A      1.971652   242A      2.005188  
     243A      2.024322   244A      2.029746   245A      2.037045  
     246A      2.040862   247A      2.044663   248A      2.058496  
     249A      2.080986   250A      2.088914   251A      2.097587  
     252A      2.112180   253A      2.119821   254A      2.141150  
     255A      2.172759   256A      2.176105   257A      2.187155  
     258A      2.198528   259A      2.202857   260A      2.206280  
     261A      2.217639   262A      2.241959   263A      2.253680  
     264A      2.259974   265A      2.265635   266A      2.289692  
     267A      2.293494   268A      2.313186   269A      2.323123  
     270A      2.339872   271A      2.360799   272A      2.375553  
     273A      2.388546   274A      2.403567   275A      2.425672  
     276A      2.451865   277A      2.486113   278A      2.500846  
     279A      2.508881   280A      2.531509   281A      2.545157  
     282A      2.550542   283A      2.569572   284A      2.585639  
     285A      2.593235   286A      2.608647   287A      2.620074  
     288A      2.634020   289A      2.643167   290A      2.651313  
     291A      2.676321   292A      2.682246   293A      2.695199  
     294A      2.720701   295A      2.739791   296A      2.756849  
     297A      2.764813   298A      2.769194   299A      2.789663  
     300A      2.795340   301A      2.803936   302A      2.813507  
     303A      2.829091   304A      2.840605   305A      2.851884  
     306A      2.863341   307A      2.874303   308A      2.878534  
     309A      2.888059   310A      2.894644   311A      2.902778  
     312A      2.919213   313A      2.920632   314A      2.933757  
     315A      2.942724   316A      2.956153   317A      2.979537  
     318A      2.989776   319A      3.000372   320A      3.033998  
     321A      3.049713   322A      3.057076   323A      3.062053  
     324A      3.069073   325A      3.081579   326A      3.111908  
     327A      3.120870   328A      3.127630   329A      3.140325  
     330A      3.143362   331A      3.167928   332A      3.195514  
     333A      3.229437   334A      3.247903   335A      3.264881  
     336A      3.271437   337A      3.290654   338A      3.304130  
     339A      3.325590   340A      3.332226   341A      3.338489  
     342A      3.376750   343A      3.380478   344A      3.395414  
     345A      3.415590   346A      3.431810   347A      3.452813  
     348A      3.466341   349A      3.476637   350A      3.499795  
     351A      3.515128   352A      3.560900   353A      3.570854  
     354A      3.641467   355A      3.681461   356A      3.692636  
     357A      3.705864   358A      3.718597   359A      3.747106  
     360A      3.758999   361A      3.779296   362A      3.790508  
     363A      3.797512   364A      3.815605   365A      3.849822  
     366A      3.856529   367A      3.873526   368A      3.894058  
     369A      3.908651   370A      3.930497   371A      3.934955  
     372A      3.948698   373A      3.977021   374A      3.984372  
     375A      3.994266   376A      4.009097   377A      4.036342  
     378A      4.064597   379A      4.070783   380A      4.078523  
     381A      4.103397   382A      4.129440   383A      4.140996  
     384A      4.157353   385A      4.184725   386A      4.196660  
     387A      4.219619   388A      4.238851   389A      4.258658  
     390A      4.267078   391A      4.275115   392A      4.283970  
     393A      4.302165   394A      4.312835   395A      4.355792  
     396A      4.366979   397A      4.382645   398A      4.416265  
     399A      4.445897   400A      4.453742   401A      4.464026  
     402A      4.481276   403A      4.495175   404A      4.514622  
     405A      4.530124   406A      4.564581   407A      4.574758  
     408A      4.587041   409A      4.596499   410A      4.611926  
     411A      4.620283   412A      4.631756   413A      4.644542  
     414A      4.703417   415A      4.713971   416A      4.725343  
     417A      4.752044   418A      4.773555   419A      4.800235  
     420A      4.820873   421A      4.829141   422A      4.840642  
     423A      4.866375   424A      4.874350   425A      4.909506  
     426A      4.933715   427A      4.957827   428A      4.984867  
     429A      5.002546   430A      5.025105   431A      5.042094  
     432A      5.072391   433A      5.107794   434A      5.128265  
     435A      5.150750   436A      5.171980   437A      5.212494  
     438A      5.221170   439A      5.231971   440A      5.262488  
     441A      5.303271   442A      5.312433   443A      5.359336  
     444A      5.377968   445A      5.399439   446A      5.436959  
     447A      5.454476   448A      5.462253   449A      5.498988  
     450A      5.505748   451A      5.528688   452A      5.554810  
     453A      5.567116   454A      5.616882   455A      5.648260  
     456A      5.670753   457A      5.694995   458A      5.702426  
     459A      5.789012   460A      5.827798   461A      5.860073  
     462A      5.900827   463A      5.935508   464A      5.974562  
     465A      6.056001   466A      6.066511   467A      6.106075  
     468A      6.167031   469A      6.193046   470A      6.296288  
     471A      6.331195   472A      6.362737   473A      6.375673  
     474A      6.431048   475A      6.513027   476A      6.600636  
     477A      6.665672   478A      6.698589   479A      6.751751  
     480A      6.768755   481A      6.958063   482A      6.976630  
     483A      6.979237   484A      6.994760   485A      7.004654  
     486A      7.022254   487A      7.034918   488A      7.046247  
     489A      7.059704   490A      7.086047   491A      7.125664  
     492A      7.151005   493A      7.179564   494A      7.211978  
     495A      7.221501   496A      7.254146   497A      7.255897  
     498A      7.267131   499A      7.276395   500A      7.326632  
     501A      7.343374   502A      7.358954   503A      7.369857  
     504A      7.403949   505A      7.433623   506A      7.459887  
     507A      7.469942   508A      7.506240   509A      7.506825  
     510A      7.586008   511A      7.613060   512A      7.639259  
     513A      7.645177   514A      7.656648   515A      7.674768  
     516A      7.686079   517A      7.691155   518A      7.705167  
     519A      7.710589   520A      7.751831   521A      7.757735  
     522A      7.846170   523A      7.887295   524A      7.916668  
     525A      7.927712   526A      7.945753   527A      7.974739  
     528A      7.976988   529A      7.991055   530A      8.013877  
     531A      8.017814   532A      8.037224   533A      8.097273  
     534A      8.116919   535A      8.164217   536A      8.174049  
     537A      8.192892   538A      8.223770   539A      8.254551  
     540A      8.291703   541A      8.320590   542A      8.368975  
     543A     14.244416   544A     14.805449   545A     14.952494  
     546A     15.437251   547A     15.750842   548A     16.411687  
     549A     17.349632   550A     18.286594   551A     19.423422  
     552A     20.172999  

    Final Occupation by Irrep:
              A 
    DOCC [    38 ]

  @DF-RHF Final Energy:  -566.19178948084254

   => Energetics <=

    Nuclear Repulsion Energy =            479.2548598973718867
    One-Electron Energy =               -1753.4992870952323756
    Two-Electron Energy =                 708.0526377170178876
    Total Energy =                       -566.1917894808425444

Computation Completed

*** tstop() called on node142.bme.utexas.edu at Sat Nov  7 06:27:12 2020
Module time:
	user time   =     277.44 seconds =       4.62 minutes
	system time =      32.02 seconds =       0.53 minutes
	total time  =         57 seconds =       0.95 minutes
Total time:
	user time   =     277.44 seconds =       4.62 minutes
	system time =      32.02 seconds =       0.53 minutes
	total time  =         57 seconds =       0.95 minutes
   => Loading Basis Set <=

    Name: (AUG-CC-PVTZ AUX)
    Role: RIFIT
    Keyword: DF_BASIS_MP2
    atoms 1-5   entry O          line   264 file /home/xy3866/psi4conda/share/psi4/basis/aug-cc-pvtz-ri.gbs 
    atoms 6-10  entry C          line   148 file /home/xy3866/psi4conda/share/psi4/basis/aug-cc-pvtz-ri.gbs 
    atoms 11-14 entry H          line    30 file /home/xy3866/psi4conda/share/psi4/basis/aug-cc-pvtz-ri.gbs 


*** tstart() called on node142.bme.utexas.edu
*** at Sat Nov  7 06:27:12 2020


  //>>>>>>>>>>>>>>>>>>>>>>>>>>>>>>>>>>>//
  //               DFMP2               //
  //<<<<<<<<<<<<<<<<<<<<<<<<<<<<<<<<<<<//

	 --------------------------------------------------------
	                          DF-MP2                         
	      2nd-Order Density-Fitted Moller-Plesset Theory     
	              RMP2 Wavefunction,   8 Threads             
	                                                         
	        Rob Parrish, Justin Turney, Andy Simmonett,      
	           Ed Hohenstein, and C. David Sherrill          
	 --------------------------------------------------------

   => Auxiliary Basis Set <=

  Basis Set: (AUG-CC-PVTZ AUX)
    Blend: AUG-CC-PVTZ-RI
    Number of shells: 336
    Number of basis function: 1244
    Number of Cartesian functions: 1580
    Spherical Harmonics?: true
    Max angular momentum: 4

	 --------------------------------------------------------
	                 NBF =   552, NAUX =  1244
	 --------------------------------------------------------
	   CLASS    FOCC     OCC    AOCC    AVIR     VIR    FVIR
	   PAIRS       0      38      38     514     514       0
	 --------------------------------------------------------

  DFHelper Memory: AOs need 2.638 GiB; user supplied 22.352 GiB. Using in-core AOs.


         ------------------------------------------------------------
                                     CPHF                           
                                  Rob Parrish                       
         ------------------------------------------------------------

  ==> Geometry <==

    Molecular point group: c1
    Full point group: C1

    Geometry (in Angstrom), charge = -2, multiplicity = 1:

       Center              X                  Y                   Z               Mass       
    ------------   -----------------  -----------------  -----------------  -----------------
         O           -1.214371206408     1.736546726362    -0.221177695083    15.994914619570
         O            2.701360793592    -1.119976273638    -0.887342695083    15.994914619570
         O            3.721971793592     0.267328726362     0.610418304917    15.994914619570
         O           -3.282366606408    -0.308982773638    -0.886778495083    15.994914619570
         O           -2.575460206408    -0.911419273638     1.203023304917    15.994914619570
         C            0.138212793592    -0.245887273638     0.063025304917    12.000000000000
         C            1.393166793592     0.612977726362     0.149009304917    12.000000000000
         C           -1.176917206408     0.508152726362    -0.053034695083    12.000000000000
         C            2.729999793592    -0.166401273638    -0.051534695083    12.000000000000
         C           -2.475782206408    -0.319969273638     0.085100304917    12.000000000000
         H            0.042999793592    -0.918258273638     0.923751304917     1.007825032230
         H            0.235292793592    -0.907517273638    -0.809081695083     1.007825032230
         H            1.437233793592     1.146814726362     1.105518304917     1.007825032230
         H            1.334990793592     1.389265726362    -0.626825695083     1.007825032230

  Nuclear repulsion =  479.254859897371887
  Reference energy  = -566.191789480842544

  ==> Basis Set <==

  Basis Set: AUG-CC-PVTZ
    Blend: AUG-CC-PVTZ
    Number of shells: 176
    Number of basis function: 552
    Number of Cartesian functions: 650
    Spherical Harmonics?: true
    Max angular momentum: 3

  ==> CGRSolver (by Rob Parrish) <==

   Number of roots    =         1
   Preconditioning    =    JACOBI
   Convergence cutoff =     1E-06
   Maximum iterations =       100

  ==> CPHFRHamiltonian (by Rob Parrish) <== 

  ==> MemDFJK: Density-Fitted J/K Matrices <==

    J tasked:                   Yes
    K tasked:                   Yes
    wK tasked:                   No
    OpenMP threads:               8
    Memory [MiB]:             22888
    Algorithm:                 Disk
    Schwarz Cutoff:           1E-12
    Mask sparsity (%):       8.3314
    Fitting Condition:        1E-10

   => Auxiliary Basis Set <=

  Basis Set: (AUG-CC-PVTZ AUX)
    Blend: AUG-CC-PVTZ-JKFIT
    Number of shells: 356
    Number of basis function: 1224
    Number of Cartesian functions: 1530
    Spherical Harmonics?: true
    Max angular momentum: 4

  ==> CPHF Iterations <==

  => Iterations <=

             Iter  Converged  Remaining    Residual
  CGR           1          0          1   1.237E-01
  CGR           2          0          1   3.635E-02
  CGR           3          0          1   1.426E-02
  CGR           4          0          1   5.110E-03
  CGR           5          0          1   2.040E-03
  CGR           6          0          1   7.080E-04
  CGR           7          0          1   2.725E-04
  CGR           8          0          1   1.062E-04
  CGR           9          0          1   3.663E-05
  CGR          10          0          1   1.765E-05
  CGR          11          0          1   7.399E-06
  CGR          12          0          1   3.607E-06
  CGR          13          0          1   1.757E-06
  CGR          14          1          0   5.607E-07

    CGRSolver converged.

	-----------------------------------------------------------
	 ==================> DF-MP2 Energies <==================== 
	-----------------------------------------------------------
	 Reference Energy          =    -566.1917894808425444 [Eh]
	 Singles Energy            =      -0.0000000000000000 [Eh]
	 Same-Spin Energy          =      -0.5582413758593012 [Eh]
	 Opposite-Spin Energy      =      -1.6357787541787032 [Eh]
	 Correlation Energy        =      -2.1940201300380044 [Eh]
	 Total Energy              =    -568.3858096108805285 [Eh]
	-----------------------------------------------------------
	 ================> DF-SCS-MP2 Energies <================== 
	-----------------------------------------------------------
	 SCS Same-Spin Scale       =       0.3333333333333333 [-]
	 SCS Opposite-Spin Scale   =       1.2000000000000000 [-]
	 SCS Same-Spin Energy      =      -0.1860804586197671 [Eh]
	 SCS Opposite-Spin Energy  =      -1.9629345050144438 [Eh]
	 SCS Correlation Energy    =      -2.1490149636342109 [Eh]
	 SCS Total Energy          =    -568.3408044444767029 [Eh]
	-----------------------------------------------------------



Properties will be evaluated at   0.000000,  -0.000000,   0.000000 [a0]

Properties computed using the MP2 density matrix

  Nuclear Dipole Moment: [e a0]
     X:     2.8566      Y:     0.6643      Z:     0.5554

  Electronic Dipole Moment: [e a0]
     X:    -3.3472      Y:     0.1316      Z:    -0.4603

  Dipole Moment: [e a0]
     X:    -0.4906      Y:     0.7958      Z:     0.0951     Total:     0.9397

  Dipole Moment: [D]
     X:    -1.2470      Y:     2.0228      Z:     0.2416     Total:     2.3885


*** tstop() called on node142.bme.utexas.edu at Sat Nov  7 06:29:24 2020
Module time:
	user time   =     819.78 seconds =      13.66 minutes
	system time =      35.85 seconds =       0.60 minutes
	total time  =        132 seconds =       2.20 minutes
Total time:
	user time   =    1098.40 seconds =      18.31 minutes
	system time =      67.94 seconds =       1.13 minutes
	total time  =        189 seconds =       3.15 minutes

    Psi4 stopped on: Saturday, 07 November 2020 06:29AM
    Psi4 wall time for execution: 0:03:10.05

*** Psi4 exiting successfully. Buy a developer a beer!
