
    -----------------------------------------------------------------------
          Psi4: An Open-Source Ab Initio Electronic Structure Package
                               Psi4 1.3.2 release

                         Git: Rev {HEAD} ecbda83 


    R. M. Parrish, L. A. Burns, D. G. A. Smith, A. C. Simmonett,
    A. E. DePrince III, E. G. Hohenstein, U. Bozkaya, A. Yu. Sokolov,
    R. Di Remigio, R. M. Richard, J. F. Gonthier, A. M. James,
    H. R. McAlexander, A. Kumar, M. Saitow, X. Wang, B. P. Pritchard,
    P. Verma, H. F. Schaefer III, K. Patkowski, R. A. King, E. F. Valeev,
    F. A. Evangelista, J. M. Turney, T. D. Crawford, and C. D. Sherrill,
    J. Chem. Theory Comput. 13(7) pp 3185--3197 (2017).
    (doi: 10.1021/acs.jctc.7b00174)


                         Additional Contributions by
    P. Kraus, H. Kruse, M. H. Lechner, M. C. Schieber, R. A. Shaw,
    A. Alenaizan, R. Galvelis, Z. L. Glick, S. Lehtola, and J. P. Misiewicz

    -----------------------------------------------------------------------


    Psi4 started on: Saturday, 07 November 2020 08:09AM

    Process ID: 94506
    Host:       node142.bme.utexas.edu
    PSIDATADIR: /home/xy3866/psi4conda/share/psi4
    Memory:     500.0 MiB
    Threads:    8
    
  ==> Input File <==

--------------------------------------------------------------------------
#psi4
#
memory 32 gb

molecule  {
-2 1
  O       -1.1930042     1.7309845    -0.2236032
  O        2.6794370    -1.1261430    -0.8901160
  O        3.7000480     0.2611620     0.6076450
  O       -3.2904550    -0.3020480    -0.9006360
  O       -2.5973840    -0.9175860     1.2002500
  C        0.1162890    -0.2520540     0.0602520
  C        1.3712430     0.6068110     0.1462360
  C       -1.1988410     0.5019860    -0.0558080
  C        2.7080760    -0.1725680    -0.0543080
  C       -2.4977060    -0.3261360     0.0823270
  H        0.0210760    -0.9244250     0.9209780
  H        0.2133690    -0.9136840    -0.8118550
  H        1.4153100     1.1406480     1.1027450
  H        1.3130670     1.3830990    -0.6295990
units angstrom
no_reorient  #important for SAPT in psi4, default
symmetry c1  #important for SAPT in psi4, default
}

set PROPERTIES_ORIGIN ["COM"]
properties('MP2/aug-cc-pvtz', properties = ['dipole'])
--------------------------------------------------------------------------

  Memory set to  29.802 GiB by Python driver.
    SCF Algorithm Type (re)set to DF.

*** tstart() called on node142.bme.utexas.edu
*** at Sat Nov  7 08:09:46 2020

   => Loading Basis Set <=

    Name: AUG-CC-PVTZ
    Role: ORBITAL
    Keyword: BASIS
    atoms 1-5   entry O          line   327 file /home/xy3866/psi4conda/share/psi4/basis/aug-cc-pvtz.gbs 
    atoms 6-10  entry C          line   235 file /home/xy3866/psi4conda/share/psi4/basis/aug-cc-pvtz.gbs 
    atoms 11-14 entry H          line    36 file /home/xy3866/psi4conda/share/psi4/basis/aug-cc-pvtz.gbs 


         ---------------------------------------------------------
                                   SCF
               by Justin Turney, Rob Parrish, Andy Simmonett
                          and Daniel G. A. Smith
                              RHF Reference
                        8 Threads,  30517 MiB Core
         ---------------------------------------------------------

  ==> Geometry <==

    Molecular point group: c1
    Full point group: C1

    Geometry (in Angstrom), charge = -2, multiplicity = 1:

       Center              X                  Y                   Z               Mass       
    ------------   -----------------  -----------------  -----------------  -----------------
         O           -1.177425485752     1.735628883593    -0.219637389545    15.994914619570
         O            2.695015714248    -1.121498616407    -0.886150189545    15.994914619570
         O            3.715626714248     0.265806383593     0.611610810455    15.994914619570
         O           -3.274876285752    -0.297403616407    -0.896670189545    15.994914619570
         O           -2.581805285752    -0.912941616407     1.204215810455    15.994914619570
         C            0.131867714248    -0.247409616407     0.064217810455    12.000000000000
         C            1.386821714248     0.611455383593     0.150201810455    12.000000000000
         C           -1.183262285752     0.506630383593    -0.051842189545    12.000000000000
         C            2.723654714248    -0.167923616407    -0.050342189545    12.000000000000
         C           -2.482127285752    -0.321491616407     0.086292810455    12.000000000000
         H            0.036654714248    -0.919780616407     0.924943810455     1.007825032230
         H            0.228947714248    -0.909039616407    -0.807889189545     1.007825032230
         H            1.430888714248     1.145292383593     1.106710810455     1.007825032230
         H            1.328645714248     1.387743383593    -0.625633189545     1.007825032230

  Running in c1 symmetry.

  Rotational constants: A =      0.10670  B =      0.01866  C =      0.01787 [cm^-1]
  Rotational constants: A =   3198.80349  B =    559.50387  C =    535.77019 [MHz]
  Nuclear repulsion =  479.550609544234021

  Charge       = -2
  Multiplicity = 1
  Electrons    = 76
  Nalpha       = 38
  Nbeta        = 38

  ==> Algorithm <==

  SCF Algorithm Type is DF.
  DIIS enabled.
  MOM disabled.
  Fractional occupation disabled.
  Guess Type is SAD.
  Energy threshold   = 1.00e-10
  Density threshold  = 1.00e-10
  Integral threshold = 0.00e+00

  ==> Primary Basis <==

  Basis Set: AUG-CC-PVTZ
    Blend: AUG-CC-PVTZ
    Number of shells: 176
    Number of basis function: 552
    Number of Cartesian functions: 650
    Spherical Harmonics?: true
    Max angular momentum: 3

   => Loading Basis Set <=

    Name: (AUG-CC-PVTZ AUX)
    Role: JKFIT
    Keyword: DF_BASIS_SCF
    atoms 1-5   entry O          line   286 file /home/xy3866/psi4conda/share/psi4/basis/aug-cc-pvtz-jkfit.gbs 
    atoms 6-10  entry C          line   162 file /home/xy3866/psi4conda/share/psi4/basis/aug-cc-pvtz-jkfit.gbs 
    atoms 11-14 entry H          line    70 file /home/xy3866/psi4conda/share/psi4/basis/aug-cc-pvtz-jkfit.gbs 

  ==> Pre-Iterations <==

   -------------------------------------------------------
    Irrep   Nso     Nmo     Nalpha   Nbeta   Ndocc  Nsocc
   -------------------------------------------------------
     A        552     552       0       0       0       0
   -------------------------------------------------------
    Total     552     552      38      38      38       0
   -------------------------------------------------------

  ==> Integral Setup <==

  DFHelper Memory: AOs need 2.639 GiB; user supplied 22.352 GiB. Using in-core AOs.

  ==> MemDFJK: Density-Fitted J/K Matrices <==

    J tasked:                   Yes
    K tasked:                   Yes
    wK tasked:                   No
    OpenMP threads:               8
    Memory [MiB]:             22888
    Algorithm:                 Disk
    Schwarz Cutoff:           1E-12
    Mask sparsity (%):       8.2854
    Fitting Condition:        1E-10

   => Auxiliary Basis Set <=

  Basis Set: (AUG-CC-PVTZ AUX)
    Blend: AUG-CC-PVTZ-JKFIT
    Number of shells: 356
    Number of basis function: 1224
    Number of Cartesian functions: 1530
    Spherical Harmonics?: true
    Max angular momentum: 4

  Minimum eigenvalue in the overlap matrix is 7.0941637339E-06.
  Using Symmetric Orthogonalization.

  SCF Guess: Superposition of Atomic Densities via on-the-fly atomic UHF.

  ==> Iterations <==

                           Total Energy        Delta E     RMS |[F,P]|

   @DF-RHF iter SAD:  -564.02630547055696   -5.64026e+02   0.00000e+00 
   @DF-RHF iter   1:  -565.78293896669891   -1.75663e+00   1.78807e-03 DIIS
   @DF-RHF iter   2:  -566.03704584936474   -2.54107e-01   1.24371e-03 DIIS
   @DF-RHF iter   3:  -566.18590958389586   -1.48864e-01   1.48278e-04 DIIS
   @DF-RHF iter   4:  -566.19025607029153   -4.34649e-03   6.41980e-05 DIIS
   @DF-RHF iter   5:  -566.19110381344854   -8.47743e-04   1.76076e-05 DIIS
   @DF-RHF iter   6:  -566.19116993020577   -6.61168e-05   7.52922e-06 DIIS
   @DF-RHF iter   7:  -566.19118289339406   -1.29632e-05   1.89353e-06 DIIS
   @DF-RHF iter   8:  -566.19118450178564   -1.60839e-06   9.79466e-07 DIIS
   @DF-RHF iter   9:  -566.19118483739612   -3.35610e-07   4.26728e-07 DIIS
   @DF-RHF iter  10:  -566.19118491491793   -7.75218e-08   1.86748e-07 DIIS
   @DF-RHF iter  11:  -566.19118492690836   -1.19904e-08   5.68338e-08 DIIS
   @DF-RHF iter  12:  -566.19118492838072   -1.47236e-09   1.78066e-08 DIIS
   @DF-RHF iter  13:  -566.19118492859081   -2.10093e-10   7.78627e-09 DIIS
   @DF-RHF iter  14:  -566.19118492863504   -4.42242e-11   4.32322e-09 DIIS
   @DF-RHF iter  15:  -566.19118492864766   -1.26192e-11   2.34591e-09 DIIS
   @DF-RHF iter  16:  -566.19118492865152   -3.86535e-12   1.00188e-09 DIIS
   @DF-RHF iter  17:  -566.19118492865186   -3.41061e-13   3.86760e-10 DIIS
   @DF-RHF iter  18:  -566.19118492865186    0.00000e+00   1.62006e-10 DIIS
   @DF-RHF iter  19:  -566.19118492865141    4.54747e-13   8.17806e-11 DIIS
  Energy and wave function converged.


  ==> Post-Iterations <==

    Orbital Energies [Eh]
    ---------------------

    Doubly Occupied:                                                      

       1A    -20.288423     2A    -20.232962     3A    -20.232129  
       4A    -20.209306     5A    -20.208431     6A    -11.074377  
       7A    -11.070122     8A    -11.052142     9A    -10.968451  
      10A    -10.957102    11A     -1.119415    12A     -1.087930  
      13A     -1.074742    14A     -1.001386    15A     -0.976431  
      16A     -0.787872    17A     -0.661185    18A     -0.557500  
      19A     -0.439840    20A     -0.421696    21A     -0.382603  
      22A     -0.369644    23A     -0.364192    24A     -0.332281  
      25A     -0.324293    26A     -0.305199    27A     -0.284691  
      28A     -0.274523    29A     -0.248451    30A     -0.229022  
      31A     -0.214395    32A     -0.206177    33A     -0.148474  
      34A     -0.129452    35A     -0.126078    36A     -0.116403  
      37A     -0.110009    38A     -0.100433  

    Virtual:                                                              

      39A      0.212826    40A      0.221599    41A      0.227743  
      42A      0.236113    43A      0.246920    44A      0.262324  
      45A      0.275243    46A      0.293714    47A      0.300059  
      48A      0.304181    49A      0.311803    50A      0.315404  
      51A      0.328675    52A      0.335851    53A      0.339943  
      54A      0.345625    55A      0.360862    56A      0.362556  
      57A      0.381796    58A      0.393301    59A      0.396451  
      60A      0.405386    61A      0.410936    62A      0.412701  
      63A      0.419468    64A      0.424793    65A      0.431369  
      66A      0.437459    67A      0.440435    68A      0.454206  
      69A      0.458543    70A      0.458872    71A      0.470104  
      72A      0.474006    73A      0.488268    74A      0.492234  
      75A      0.494631    76A      0.505950    77A      0.511956  
      78A      0.521215    79A      0.525163    80A      0.527025  
      81A      0.537433    82A      0.543090    83A      0.554013  
      84A      0.564312    85A      0.583192    86A      0.585012  
      87A      0.596921    88A      0.601572    89A      0.603047  
      90A      0.612207    91A      0.617631    92A      0.623366  
      93A      0.632690    94A      0.635675    95A      0.645428  
      96A      0.656644    97A      0.665349    98A      0.673701  
      99A      0.675906   100A      0.683519   101A      0.694530  
     102A      0.695887   103A      0.699748   104A      0.727485  
     105A      0.733333   106A      0.742326   107A      0.747995  
     108A      0.756384   109A      0.765708   110A      0.778371  
     111A      0.781564   112A      0.785203   113A      0.798793  
     114A      0.806954   115A      0.813856   116A      0.822362  
     117A      0.830464   118A      0.835572   119A      0.842564  
     120A      0.850199   121A      0.857380   122A      0.865453  
     123A      0.870692   124A      0.883992   125A      0.893249  
     126A      0.903069   127A      0.907039   128A      0.928778  
     129A      0.938282   130A      0.945037   131A      0.955916  
     132A      0.964145   133A      0.971720   134A      0.976042  
     135A      0.996938   136A      1.003688   137A      1.016125  
     138A      1.022193   139A      1.035008   140A      1.042262  
     141A      1.042902   142A      1.056836   143A      1.071351  
     144A      1.077757   145A      1.087083   146A      1.093502  
     147A      1.103625   148A      1.108545   149A      1.116722  
     150A      1.119160   151A      1.123288   152A      1.130114  
     153A      1.136611   154A      1.147659   155A      1.153585  
     156A      1.164842   157A      1.170736   158A      1.171881  
     159A      1.182193   160A      1.192577   161A      1.198747  
     162A      1.206693   163A      1.215710   164A      1.228806  
     165A      1.237046   166A      1.237561   167A      1.241636  
     168A      1.253902   169A      1.260115   170A      1.272381  
     171A      1.277882   172A      1.281349   173A      1.289867  
     174A      1.300750   175A      1.310745   176A      1.319515  
     177A      1.325820   178A      1.342613   179A      1.349976  
     180A      1.351890   181A      1.355977   182A      1.367608  
     183A      1.376704   184A      1.391346   185A      1.393064  
     186A      1.396889   187A      1.404246   188A      1.407820  
     189A      1.422888   190A      1.435676   191A      1.438397  
     192A      1.444980   193A      1.456266   194A      1.474118  
     195A      1.486041   196A      1.490119   197A      1.508782  
     198A      1.516853   199A      1.518101   200A      1.544949  
     201A      1.553342   202A      1.567907   203A      1.574420  
     204A      1.586464   205A      1.593493   206A      1.604197  
     207A      1.626865   208A      1.630244   209A      1.643544  
     210A      1.653781   211A      1.662905   212A      1.674753  
     213A      1.678245   214A      1.699415   215A      1.710969  
     216A      1.729822   217A      1.732249   218A      1.747470  
     219A      1.761647   220A      1.767325   221A      1.776308  
     222A      1.779971   223A      1.795429   224A      1.806315  
     225A      1.815169   226A      1.824991   227A      1.832926  
     228A      1.836664   229A      1.849480   230A      1.860365  
     231A      1.867035   232A      1.896194   233A      1.907086  
     234A      1.909414   235A      1.911814   236A      1.922979  
     237A      1.935169   238A      1.954296   239A      1.959976  
     240A      1.964059   241A      1.971925   242A      2.003951  
     243A      2.026348   244A      2.029342   245A      2.036971  
     246A      2.042471   247A      2.047522   248A      2.061585  
     249A      2.082219   250A      2.091023   251A      2.098961  
     252A      2.114340   253A      2.121374   254A      2.141465  
     255A      2.170898   256A      2.175524   257A      2.186140  
     258A      2.197786   259A      2.204915   260A      2.209380  
     261A      2.217789   262A      2.238845   263A      2.252725  
     264A      2.261384   265A      2.266481   266A      2.289211  
     267A      2.296447   268A      2.311677   269A      2.327781  
     270A      2.340467   271A      2.362792   272A      2.377265  
     273A      2.382281   274A      2.401474   275A      2.425492  
     276A      2.455375   277A      2.488016   278A      2.502471  
     279A      2.508479   280A      2.534019   281A      2.544575  
     282A      2.553071   283A      2.567287   284A      2.587114  
     285A      2.592625   286A      2.609612   287A      2.622285  
     288A      2.630892   289A      2.644174   290A      2.653142  
     291A      2.679584   292A      2.682431   293A      2.695898  
     294A      2.722623   295A      2.740726   296A      2.756409  
     297A      2.764816   298A      2.768966   299A      2.789643  
     300A      2.797338   301A      2.803565   302A      2.813201  
     303A      2.830662   304A      2.840871   305A      2.852118  
     306A      2.864209   307A      2.873450   308A      2.879802  
     309A      2.886499   310A      2.890553   311A      2.900474  
     312A      2.921861   313A      2.923194   314A      2.935123  
     315A      2.944601   316A      2.958223   317A      2.981214  
     318A      2.993051   319A      3.000695   320A      3.036866  
     321A      3.058547   322A      3.061753   323A      3.064895  
     324A      3.074086   325A      3.080470   326A      3.111304  
     327A      3.117525   328A      3.128737   329A      3.141767  
     330A      3.143796   331A      3.164913   332A      3.195547  
     333A      3.235504   334A      3.245571   335A      3.268348  
     336A      3.271871   337A      3.291202   338A      3.304769  
     339A      3.326581   340A      3.334471   341A      3.339551  
     342A      3.377902   343A      3.383318   344A      3.397627  
     345A      3.418637   346A      3.434049   347A      3.452547  
     348A      3.469463   349A      3.479366   350A      3.502147  
     351A      3.513657   352A      3.562749   353A      3.575552  
     354A      3.643154   355A      3.682113   356A      3.696233  
     357A      3.708385   358A      3.720089   359A      3.747461  
     360A      3.760881   361A      3.779501   362A      3.795659  
     363A      3.800618   364A      3.815814   365A      3.849255  
     366A      3.856918   367A      3.878600   368A      3.893241  
     369A      3.912559   370A      3.930012   371A      3.936261  
     372A      3.951304   373A      3.976493   374A      3.985218  
     375A      3.997830   376A      4.009231   377A      4.036365  
     378A      4.064893   379A      4.071354   380A      4.079079  
     381A      4.102810   382A      4.129231   383A      4.144264  
     384A      4.157501   385A      4.184478   386A      4.198054  
     387A      4.215361   388A      4.239277   389A      4.259420  
     390A      4.269075   391A      4.276804   392A      4.285838  
     393A      4.302217   394A      4.312754   395A      4.354086  
     396A      4.367279   397A      4.383069   398A      4.415777  
     399A      4.444748   400A      4.454814   401A      4.465281  
     402A      4.483482   403A      4.498928   404A      4.512733  
     405A      4.533801   406A      4.570071   407A      4.571796  
     408A      4.586029   409A      4.598263   410A      4.611168  
     411A      4.621104   412A      4.627553   413A      4.646642  
     414A      4.706859   415A      4.713936   416A      4.729003  
     417A      4.754820   418A      4.773521   419A      4.801978  
     420A      4.824453   421A      4.830617   422A      4.836426  
     423A      4.866547   424A      4.870918   425A      4.910124  
     426A      4.932751   427A      4.956856   428A      4.990289  
     429A      5.001429   430A      5.024317   431A      5.046458  
     432A      5.077029   433A      5.100155   434A      5.129147  
     435A      5.150881   436A      5.171814   437A      5.210998  
     438A      5.225533   439A      5.237876   440A      5.263806  
     441A      5.303621   442A      5.320213   443A      5.358632  
     444A      5.377164   445A      5.401126   446A      5.438703  
     447A      5.457533   448A      5.466981   449A      5.503935  
     450A      5.512310   451A      5.531579   452A      5.555855  
     453A      5.572714   454A      5.616033   455A      5.650956  
     456A      5.670580   457A      5.694527   458A      5.704649  
     459A      5.792659   460A      5.829658   461A      5.862394  
     462A      5.903423   463A      5.937928   464A      5.976829  
     465A      6.054531   466A      6.063922   467A      6.103853  
     468A      6.176086   469A      6.185484   470A      6.294580  
     471A      6.332173   472A      6.365650   473A      6.377809  
     474A      6.432346   475A      6.517161   476A      6.603083  
     477A      6.664064   478A      6.700514   479A      6.750896  
     480A      6.770853   481A      6.956601   482A      6.974971  
     483A      6.978535   484A      6.996920   485A      7.006223  
     486A      7.026313   487A      7.034336   488A      7.048099  
     489A      7.062660   490A      7.096516   491A      7.126750  
     492A      7.154227   493A      7.173859   494A      7.212827  
     495A      7.221839   496A      7.254481   497A      7.256381  
     498A      7.268281   499A      7.275750   500A      7.329694  
     501A      7.345804   502A      7.357965   503A      7.371620  
     504A      7.404921   505A      7.435675   506A      7.462667  
     507A      7.470466   508A      7.502508   509A      7.507580  
     510A      7.589376   511A      7.610248   512A      7.640233  
     513A      7.645049   514A      7.660140   515A      7.675985  
     516A      7.685931   517A      7.687668   518A      7.706232  
     519A      7.710946   520A      7.754155   521A      7.760638  
     522A      7.845497   523A      7.888949   524A      7.919063  
     525A      7.929988   526A      7.944914   527A      7.968502  
     528A      7.978263   529A      7.992506   530A      8.014982  
     531A      8.018908   532A      8.038173   533A      8.097013  
     534A      8.115820   535A      8.165184   536A      8.167221  
     537A      8.194917   538A      8.232529   539A      8.263366  
     540A      8.293198   541A      8.315631   542A      8.369040  
     543A     14.336814   544A     14.823922   545A     14.960185  
     546A     15.436817   547A     15.736951   548A     16.419375  
     549A     17.351433   550A     18.278700   551A     19.439457  
     552A     20.133701  

    Final Occupation by Irrep:
              A 
    DOCC [    38 ]

  @DF-RHF Final Energy:  -566.19118492865141

   => Energetics <=

    Nuclear Repulsion Energy =            479.5506095442340211
    One-Electron Energy =               -1754.1080678310456733
    Two-Electron Energy =                 708.3662733581602424
    Total Energy =                       -566.1911849286514098

Computation Completed

*** tstop() called on node142.bme.utexas.edu at Sat Nov  7 08:10:47 2020
Module time:
	user time   =     299.67 seconds =       4.99 minutes
	system time =      33.05 seconds =       0.55 minutes
	total time  =         61 seconds =       1.02 minutes
Total time:
	user time   =     299.67 seconds =       4.99 minutes
	system time =      33.05 seconds =       0.55 minutes
	total time  =         61 seconds =       1.02 minutes
   => Loading Basis Set <=

    Name: (AUG-CC-PVTZ AUX)
    Role: RIFIT
    Keyword: DF_BASIS_MP2
    atoms 1-5   entry O          line   264 file /home/xy3866/psi4conda/share/psi4/basis/aug-cc-pvtz-ri.gbs 
    atoms 6-10  entry C          line   148 file /home/xy3866/psi4conda/share/psi4/basis/aug-cc-pvtz-ri.gbs 
    atoms 11-14 entry H          line    30 file /home/xy3866/psi4conda/share/psi4/basis/aug-cc-pvtz-ri.gbs 


*** tstart() called on node142.bme.utexas.edu
*** at Sat Nov  7 08:10:47 2020


  //>>>>>>>>>>>>>>>>>>>>>>>>>>>>>>>>>>>//
  //               DFMP2               //
  //<<<<<<<<<<<<<<<<<<<<<<<<<<<<<<<<<<<//

	 --------------------------------------------------------
	                          DF-MP2                         
	      2nd-Order Density-Fitted Moller-Plesset Theory     
	              RMP2 Wavefunction,   8 Threads             
	                                                         
	        Rob Parrish, Justin Turney, Andy Simmonett,      
	           Ed Hohenstein, and C. David Sherrill          
	 --------------------------------------------------------

   => Auxiliary Basis Set <=

  Basis Set: (AUG-CC-PVTZ AUX)
    Blend: AUG-CC-PVTZ-RI
    Number of shells: 336
    Number of basis function: 1244
    Number of Cartesian functions: 1580
    Spherical Harmonics?: true
    Max angular momentum: 4

	 --------------------------------------------------------
	                 NBF =   552, NAUX =  1244
	 --------------------------------------------------------
	   CLASS    FOCC     OCC    AOCC    AVIR     VIR    FVIR
	   PAIRS       0      38      38     514     514       0
	 --------------------------------------------------------

  DFHelper Memory: AOs need 2.639 GiB; user supplied 22.352 GiB. Using in-core AOs.


Traceback (most recent call last):
  File "/home/xy3866/psi4conda/bin/psi4", line 287, in <module>
    exec(content)
  File "<string>", line 43, in <module>
  File "/home/xy3866/psi4conda/lib//python3.7/site-packages/psi4/driver/driver.py", line 816, in properties
    return driver_cbs._cbs_gufunc(properties, lowername, ptype='properties', **kwargs)
  File "/home/xy3866/psi4conda/lib//python3.7/site-packages/psi4/driver/driver_cbs.py", line 1949, in _cbs_gufunc
    ptype_value, wfn = func(method_name, return_wfn=True, molecule=molecule, **kwargs)
  File "/home/xy3866/psi4conda/lib//python3.7/site-packages/psi4/driver/driver.py", line 826, in properties
    wfn = procedures['properties'][lowername](lowername, **kwargs)
  File "/home/xy3866/psi4conda/lib//python3.7/site-packages/psi4/driver/procrouting/proc.py", line 194, in select_mp2_property
    return func(name, **kwargs)
  File "/home/xy3866/psi4conda/lib//python3.7/site-packages/psi4/driver/procrouting/proc.py", line 2701, in run_dfmp2_property
    grad = dfmp2_wfn.compute_gradient()

RuntimeError: 
Fatal Error: DFHelper:get_tensor_AO: read error
Error occurred in file: /scratch/psilocaluser/conda-builds/psi4-multiout_1557940846948/work/psi4/src/psi4/lib3index/dfhelper.cc on line: 835
The most recent 5 function calls were:

psi::DFHelper::get_tensor_AO(std::__cxx11::basic_string<char, std::char_traits<char>, std::allocator<char> >, double*, unsigned long, unsigned long)
psi::DFHelper::grab_AO(unsigned long, unsigned long, double*)
psi::DFHelper::build_JK(std::vector<std::shared_ptr<psi::Matrix>, std::allocator<std::shared_ptr<psi::Matrix> > >, std::vector<std::shared_ptr<psi::Matrix>, std::allocator<std::shared_ptr<psi::Matrix> > >, std::vector<std::shared_ptr<psi::Matrix>, std::allocator<std::shared_ptr<psi::Matrix> > >, std::vector<std::shared_ptr<psi::Matrix>, std::allocator<std::shared_ptr<psi::Matrix> > >, std::vector<std::shared_ptr<psi::Matrix>, std::allocator<std::shared_ptr<psi::Matrix> > >, unsigned long, bool, bool, bool, bool)



Printing out the relevant lines from the Psithon --> Python processed input file:
    no_reorient 
    symmetry c1 
    """)
    core.IO.set_default_namespace("")
    core.set_global_option("PROPERTIES_ORIGIN", ["COM"])
--> properties('MP2/aug-cc-pvtz', properties = ['dipole'])

    Psi4 stopped on: Saturday, 07 November 2020 08:12AM
    Psi4 wall time for execution: 0:03:11.42

*** Psi4 encountered an error. Buy a developer more coffee!
*** Resources and help at github.com/psi4/psi4.
