
    -----------------------------------------------------------------------
          Psi4: An Open-Source Ab Initio Electronic Structure Package
                               Psi4 1.3.2 release

                         Git: Rev {HEAD} ecbda83 


    R. M. Parrish, L. A. Burns, D. G. A. Smith, A. C. Simmonett,
    A. E. DePrince III, E. G. Hohenstein, U. Bozkaya, A. Yu. Sokolov,
    R. Di Remigio, R. M. Richard, J. F. Gonthier, A. M. James,
    H. R. McAlexander, A. Kumar, M. Saitow, X. Wang, B. P. Pritchard,
    P. Verma, H. F. Schaefer III, K. Patkowski, R. A. King, E. F. Valeev,
    F. A. Evangelista, J. M. Turney, T. D. Crawford, and C. D. Sherrill,
    J. Chem. Theory Comput. 13(7) pp 3185--3197 (2017).
    (doi: 10.1021/acs.jctc.7b00174)


                         Additional Contributions by
    P. Kraus, H. Kruse, M. H. Lechner, M. C. Schieber, R. A. Shaw,
    A. Alenaizan, R. Galvelis, Z. L. Glick, S. Lehtola, and J. P. Misiewicz

    -----------------------------------------------------------------------


    Psi4 started on: Wednesday, 04 November 2020 10:58AM

    Process ID: 77758
    Host:       node35.bme.utexas.edu
    PSIDATADIR: /home/xy3866/psi4conda/share/psi4
    Memory:     500.0 MiB
    Threads:    8
    
  ==> Input File <==

--------------------------------------------------------------------------
#psi4
#
memory 32 gb

molecule  {
-2 1
  P        0.4529150    -0.0635710     0.0011530
  O       -1.0138150     0.8238990    -0.0131870
  O        1.4686650     1.0929890     0.0080030
  O        0.4082150    -0.8988910    -1.2961470
  O        0.3760258    -1.0026428     1.4683397
  C       -2.1972550     0.0409090    -0.0016870
  H       -2.2469050    -0.6260310    -0.8712670
  H       -3.0573250     0.7185790    -0.0251270
  H       -2.2582250    -0.5790110     0.9013030
units angstrom
no_reorient  #important for SAPT in psi4, default
symmetry c1  #important for SAPT in psi4, default
}

set PROPERTIES_ORIGIN ["COM"]
properties('MP2/aug-cc-pvtz', properties = ['dipole'])
--------------------------------------------------------------------------

  Memory set to  29.802 GiB by Python driver.
    SCF Algorithm Type (re)set to DF.

*** tstart() called on node35.bme.utexas.edu
*** at Wed Nov  4 10:58:57 2020

   => Loading Basis Set <=

    Name: AUG-CC-PVTZ
    Role: ORBITAL
    Keyword: BASIS
    atoms 1   entry P          line   820 file /home/xy3866/psi4conda/share/psi4/basis/aug-cc-pvtz.gbs 
    atoms 2-5 entry O          line   327 file /home/xy3866/psi4conda/share/psi4/basis/aug-cc-pvtz.gbs 
    atoms 6   entry C          line   235 file /home/xy3866/psi4conda/share/psi4/basis/aug-cc-pvtz.gbs 
    atoms 7-9 entry H          line    36 file /home/xy3866/psi4conda/share/psi4/basis/aug-cc-pvtz.gbs 


         ---------------------------------------------------------
                                   SCF
               by Justin Turney, Rob Parrish, Andy Simmonett
                          and Daniel G. A. Smith
                              RHF Reference
                        8 Threads,  30517 MiB Core
         ---------------------------------------------------------

  ==> Geometry <==

    Molecular point group: c1
    Full point group: C1

    Geometry (in Angstrom), charge = -2, multiplicity = 1:

       Center              X                  Y                   Z               Mass       
    ------------   -----------------  -----------------  -----------------  -----------------
         P            0.454197619281    -0.047905841554    -0.023322195848    30.973761998420
         O           -1.012532380719     0.839564158446    -0.037662195848    15.994914619570
         O            1.469947619281     1.108654158446    -0.016472195848    15.994914619570
         O            0.409497619281    -0.883225841554    -1.320622195848    15.994914619570
         O            0.377308419281    -0.986977641554     1.443864504152    15.994914619570
         C           -2.195972380719     0.056574158446    -0.026162195848    12.000000000000
         H           -2.245622380719    -0.610365841554    -0.895742195848     1.007825032230
         H           -3.056042380719     0.734244158446    -0.049602195848     1.007825032230
         H           -2.256942380719    -0.563345841554     0.876827804152     1.007825032230

  Running in c1 symmetry.

  Rotational constants: A =      0.13684  B =      0.08584  C =      0.08164 [cm^-1]
  Rotational constants: A =   4102.24657  B =   2573.56010  C =   2447.61027 [MHz]
  Nuclear repulsion =  325.252118304093756

  Charge       = -2
  Multiplicity = 1
  Electrons    = 58
  Nalpha       = 29
  Nbeta        = 29

  ==> Algorithm <==

  SCF Algorithm Type is DF.
  DIIS enabled.
  MOM disabled.
  Fractional occupation disabled.
  Guess Type is SAD.
  Energy threshold   = 1.00e-10
  Density threshold  = 1.00e-10
  Integral threshold = 0.00e+00

  ==> Primary Basis <==

  Basis Set: AUG-CC-PVTZ
    Blend: AUG-CC-PVTZ
    Number of shells: 113
    Number of basis function: 349
    Number of Cartesian functions: 409
    Spherical Harmonics?: true
    Max angular momentum: 3

   => Loading Basis Set <=

    Name: (AUG-CC-PVTZ AUX)
    Role: JKFIT
    Keyword: DF_BASIS_SCF
    atoms 1   entry P          line   644 file /home/xy3866/psi4conda/share/psi4/basis/aug-cc-pvtz-jkfit.gbs 
    atoms 2-5 entry O          line   286 file /home/xy3866/psi4conda/share/psi4/basis/aug-cc-pvtz-jkfit.gbs 
    atoms 6   entry C          line   162 file /home/xy3866/psi4conda/share/psi4/basis/aug-cc-pvtz-jkfit.gbs 
    atoms 7-9 entry H          line    70 file /home/xy3866/psi4conda/share/psi4/basis/aug-cc-pvtz-jkfit.gbs 

  ==> Pre-Iterations <==

   -------------------------------------------------------
    Irrep   Nso     Nmo     Nalpha   Nbeta   Ndocc  Nsocc
   -------------------------------------------------------
     A        349     349       0       0       0       0
   -------------------------------------------------------
    Total     349     349      29      29      29       0
   -------------------------------------------------------

  ==> Integral Setup <==

  DFHelper Memory: AOs need 0.754 GiB; user supplied 22.352 GiB. Using in-core AOs.

  ==> MemDFJK: Density-Fitted J/K Matrices <==

    J tasked:                   Yes
    K tasked:                   Yes
    wK tasked:                   No
    OpenMP threads:               8
    Memory [MiB]:             22888
    Algorithm:                 Core
    Schwarz Cutoff:           1E-12
    Mask sparsity (%):       1.6781
    Fitting Condition:        1E-10

   => Auxiliary Basis Set <=

  Basis Set: (AUG-CC-PVTZ AUX)
    Blend: AUG-CC-PVTZ-JKFIT
    Number of shells: 234
    Number of basis function: 804
    Number of Cartesian functions: 1000
    Spherical Harmonics?: true
    Max angular momentum: 4

  Minimum eigenvalue in the overlap matrix is 4.2532502594E-05.
  Using Symmetric Orthogonalization.

  SCF Guess: Superposition of Atomic Densities via on-the-fly atomic UHF.

  ==> Iterations <==

                           Total Energy        Delta E     RMS |[F,P]|

   @DF-RHF iter SAD:  -678.23622789214312   -6.78236e+02   0.00000e+00 
   @DF-RHF iter   1:  -679.55176013059508   -1.31553e+00   2.71589e-03 DIIS
   @DF-RHF iter   2:  -679.74808217064367   -1.96322e-01   2.06301e-03 DIIS
   @DF-RHF iter   3:  -679.91773748206640   -1.69655e-01   1.91924e-04 DIIS
   @DF-RHF iter   4:  -679.91986338415529   -2.12590e-03   1.09035e-04 DIIS
   @DF-RHF iter   5:  -679.92051649298605   -6.53109e-04   2.33859e-05 DIIS
   @DF-RHF iter   6:  -679.92056620028802   -4.97073e-05   8.61094e-06 DIIS
   @DF-RHF iter   7:  -679.92057568235145   -9.48206e-06   3.56998e-06 DIIS
   @DF-RHF iter   8:  -679.92057770584483   -2.02349e-06   1.49309e-06 DIIS
   @DF-RHF iter   9:  -679.92057801956469   -3.13720e-07   5.02790e-07 DIIS
   @DF-RHF iter  10:  -679.92057806324215   -4.36775e-08   1.11094e-07 DIIS
   @DF-RHF iter  11:  -679.92057806570665   -2.46450e-09   2.90042e-08 DIIS
   @DF-RHF iter  12:  -679.92057806584000   -1.33355e-10   1.04562e-08 DIIS
   @DF-RHF iter  13:  -679.92057806585512   -1.51203e-11   3.75691e-09 DIIS
   @DF-RHF iter  14:  -679.92057806585740   -2.27374e-12   1.73585e-09 DIIS
   @DF-RHF iter  15:  -679.92057806585683    5.68434e-13   4.66241e-10 DIIS
   @DF-RHF iter  16:  -679.92057806585785   -1.02318e-12   1.93333e-10 DIIS
   @DF-RHF iter  17:  -679.92057806585672    1.13687e-12   8.17136e-11 DIIS
  Energy and wave function converged.


  ==> Post-Iterations <==

    Orbital Energies [Eh]
    ---------------------

    Doubly Occupied:                                                      

       1A    -79.684208     2A    -20.219530     3A    -20.118071  
       4A    -20.113025     5A    -20.110399     6A    -10.976978  
       7A     -7.195718     8A     -5.095199     9A     -5.092910  
      10A     -5.092222    11A     -1.021216    12A     -0.907556  
      13A     -0.854642    14A     -0.796243    15A     -0.618499  
      16A     -0.380028    17A     -0.314091    18A     -0.301911  
      19A     -0.260184    20A     -0.183645    21A     -0.182620  
      22A     -0.157312    23A     -0.116443    24A     -0.087135  
      25A     -0.072530    26A     -0.056916    27A     -0.048289  
      28A     -0.025266    29A     -0.011520  

    Virtual:                                                              

      30A      0.198605    31A      0.227833    32A      0.232490  
      33A      0.284025    34A      0.308835    35A      0.315073  
      36A      0.315415    37A      0.330100    38A      0.338338  
      39A      0.380771    40A      0.390539    41A      0.413812  
      42A      0.432908    43A      0.443196    44A      0.463780  
      45A      0.467123    46A      0.469273    47A      0.492110  
      48A      0.507469    49A      0.513343    50A      0.516241  
      51A      0.523225    52A      0.530042    53A      0.537371  
      54A      0.539463    55A      0.561531    56A      0.574069  
      57A      0.576352    58A      0.596424    59A      0.608242  
      60A      0.612641    61A      0.625538    62A      0.633987  
      63A      0.639061    64A      0.641831    65A      0.672189  
      66A      0.682010    67A      0.693398    68A      0.708978  
      69A      0.717256    70A      0.723687    71A      0.736382  
      72A      0.739869    73A      0.747413    74A      0.757004  
      75A      0.760096    76A      0.786080    77A      0.799844  
      78A      0.812162    79A      0.821225    80A      0.826230  
      81A      0.837782    82A      0.846719    83A      0.868133  
      84A      0.958460    85A      0.986948    86A      0.991256  
      87A      0.992203    88A      1.012054    89A      1.027944  
      90A      1.051944    91A      1.066602    92A      1.074108  
      93A      1.102010    94A      1.106450    95A      1.109310  
      96A      1.135374    97A      1.157834    98A      1.160359  
      99A      1.166817   100A      1.178624   101A      1.179850  
     102A      1.195005   103A      1.198849   104A      1.206528  
     105A      1.222277   106A      1.224913   107A      1.244791  
     108A      1.249886   109A      1.256592   110A      1.264598  
     111A      1.270592   112A      1.290226   113A      1.300975  
     114A      1.314722   115A      1.318656   116A      1.324928  
     117A      1.331164   118A      1.341476   119A      1.352856  
     120A      1.376730   121A      1.390722   122A      1.393588  
     123A      1.404209   124A      1.412847   125A      1.430980  
     126A      1.434935   127A      1.465279   128A      1.476296  
     129A      1.484216   130A      1.497858   131A      1.505960  
     132A      1.517470   133A      1.533553   134A      1.555432  
     135A      1.557294   136A      1.561017   137A      1.585904  
     138A      1.603185   139A      1.611842   140A      1.656936  
     141A      1.675806   142A      1.713678   143A      1.762056  
     144A      1.785065   145A      1.807264   146A      1.824940  
     147A      1.840122   148A      1.848982   149A      1.872127  
     150A      1.879469   151A      1.883809   152A      1.897615  
     153A      1.923165   154A      1.933887   155A      1.965068  
     156A      1.979286   157A      1.989858   158A      2.024336  
     159A      2.026903   160A      2.038845   161A      2.064100  
     162A      2.077746   163A      2.099589   164A      2.123104  
     165A      2.183875   166A      2.204091   167A      2.205755  
     168A      2.276546   169A      2.281871   170A      2.296046  
     171A      2.326857   172A      2.343241   173A      2.349104  
     174A      2.368180   175A      2.382689   176A      2.398689  
     177A      2.407614   178A      2.421933   179A      2.446659  
     180A      2.479001   181A      2.481806   182A      2.516217  
     183A      2.533186   184A      2.545858   185A      2.560058  
     186A      2.593789   187A      2.599911   188A      2.618743  
     189A      2.631417   190A      2.654991   191A      2.689032  
     192A      2.710300   193A      2.722374   194A      2.747253  
     195A      2.760446   196A      2.781185   197A      2.784585  
     198A      2.804966   199A      2.811079   200A      2.843481  
     201A      2.868772   202A      2.883374   203A      2.903297  
     204A      2.918254   205A      2.922688   206A      2.938932  
     207A      2.948477   208A      2.983537   209A      2.989462  
     210A      3.018989   211A      3.028954   212A      3.039864  
     213A      3.049698   214A      3.075849   215A      3.102756  
     216A      3.113962   217A      3.172299   218A      3.216627  
     219A      3.229448   220A      3.253798   221A      3.272967  
     222A      3.301702   223A      3.346442   224A      3.405216  
     225A      3.430031   226A      3.469178   227A      3.509161  
     228A      3.521639   229A      3.562547   230A      3.572136  
     231A      3.630630   232A      3.649086   233A      3.685278  
     234A      3.708851   235A      3.726336   236A      3.743004  
     237A      3.770656   238A      3.795728   239A      3.847863  
     240A      3.890912   241A      3.917846   242A      3.941736  
     243A      3.948737   244A      3.980005   245A      3.993589  
     246A      4.036768   247A      4.053159   248A      4.090606  
     249A      4.115202   250A      4.151524   251A      4.191452  
     252A      4.262923   253A      4.322041   254A      4.348432  
     255A      4.433448   256A      4.446797   257A      4.478931  
     258A      4.543426   259A      4.560159   260A      4.583132  
     261A      4.670765   262A      4.724903   263A      4.856489  
     264A      4.884723   265A      4.941867   266A      5.025837  
     267A      5.034735   268A      5.072420   269A      5.077068  
     270A      5.113996   271A      5.136782   272A      5.176378  
     273A      5.202438   274A      5.236713   275A      5.292983  
     276A      5.304416   277A      5.345185   278A      5.368426  
     279A      5.458338   280A      5.602235   281A      5.647356  
     282A      5.691120   283A      5.729974   284A      5.833120  
     285A      5.888221   286A      5.904395   287A      5.930257  
     288A      5.993777   289A      6.000371   290A      6.250453  
     291A      6.374572   292A      6.422709   293A      6.647134  
     294A      6.949932   295A      6.961223   296A      7.040376  
     297A      7.044617   298A      7.057874   299A      7.079744  
     300A      7.094489   301A      7.125459   302A      7.148844  
     303A      7.198012   304A      7.220655   305A      7.223873  
     306A      7.234726   307A      7.252552   308A      7.267267  
     309A      7.280886   310A      7.299270   311A      7.307556  
     312A      7.313531   313A      7.328280   314A      7.349858  
     315A      7.366760   316A      7.391512   317A      7.401015  
     318A      7.404440   319A      7.438890   320A      7.464854  
     321A      7.499944   322A      7.615448   323A      7.621086  
     324A      7.629536   325A      7.633993   326A      7.638865  
     327A      7.674536   328A      7.681231   329A      7.699421  
     330A      7.730379   331A      7.761397   332A      7.847645  
     333A      7.865464   334A      7.893443   335A      7.934946  
     336A      7.969017   337A      7.993804   338A      8.006219  
     339A      8.044024   340A      8.091296   341A      8.122644  
     342A      8.370053   343A      8.433759   344A     10.161112  
     345A     12.375120   346A     12.439751   347A     13.455111  
     348A     14.842300   349A     17.855818  

    Final Occupation by Irrep:
              A 
    DOCC [    29 ]

  @DF-RHF Final Energy:  -679.92057806585672

   => Energetics <=

    Nuclear Repulsion Energy =            325.2521183040937558
    One-Electron Energy =               -1610.1567813856815974
    Two-Electron Energy =                 604.9840850157311252
    Total Energy =                       -679.9205780658567164

Computation Completed

*** tstop() called on node35.bme.utexas.edu at Wed Nov  4 10:59:15 2020
Module time:
	user time   =     109.56 seconds =       1.83 minutes
	system time =      12.95 seconds =       0.22 minutes
	total time  =         18 seconds =       0.30 minutes
Total time:
	user time   =     109.56 seconds =       1.83 minutes
	system time =      12.95 seconds =       0.22 minutes
	total time  =         18 seconds =       0.30 minutes
   => Loading Basis Set <=

    Name: (AUG-CC-PVTZ AUX)
    Role: RIFIT
    Keyword: DF_BASIS_MP2
    atoms 1   entry P          line   590 file /home/xy3866/psi4conda/share/psi4/basis/aug-cc-pvtz-ri.gbs 
    atoms 2-5 entry O          line   264 file /home/xy3866/psi4conda/share/psi4/basis/aug-cc-pvtz-ri.gbs 
    atoms 6   entry C          line   148 file /home/xy3866/psi4conda/share/psi4/basis/aug-cc-pvtz-ri.gbs 
    atoms 7-9 entry H          line    30 file /home/xy3866/psi4conda/share/psi4/basis/aug-cc-pvtz-ri.gbs 


*** tstart() called on node35.bme.utexas.edu
*** at Wed Nov  4 10:59:15 2020


  //>>>>>>>>>>>>>>>>>>>>>>>>>>>>>>>>>>>//
  //               DFMP2               //
  //<<<<<<<<<<<<<<<<<<<<<<<<<<<<<<<<<<<//

	 --------------------------------------------------------
	                          DF-MP2                         
	      2nd-Order Density-Fitted Moller-Plesset Theory     
	              RMP2 Wavefunction,   8 Threads             
	                                                         
	        Rob Parrish, Justin Turney, Andy Simmonett,      
	           Ed Hohenstein, and C. David Sherrill          
	 --------------------------------------------------------

   => Auxiliary Basis Set <=

  Basis Set: (AUG-CC-PVTZ AUX)
    Blend: AUG-CC-PVTZ-RI
    Number of shells: 219
    Number of basis function: 815
    Number of Cartesian functions: 1036
    Spherical Harmonics?: true
    Max angular momentum: 4

	 --------------------------------------------------------
	                 NBF =   349, NAUX =   815
	 --------------------------------------------------------
	   CLASS    FOCC     OCC    AOCC    AVIR     VIR    FVIR
	   PAIRS       0      29      29     320     320       0
	 --------------------------------------------------------

  DFHelper Memory: AOs need 0.754 GiB; user supplied 22.352 GiB. Using in-core AOs.


         ------------------------------------------------------------
                                     CPHF                           
                                  Rob Parrish                       
         ------------------------------------------------------------

  ==> Geometry <==

    Molecular point group: c1
    Full point group: C1

    Geometry (in Angstrom), charge = -2, multiplicity = 1:

       Center              X                  Y                   Z               Mass       
    ------------   -----------------  -----------------  -----------------  -----------------
         P            0.454197619281    -0.047905841554    -0.023322195848    30.973761998420
         O           -1.012532380719     0.839564158446    -0.037662195848    15.994914619570
         O            1.469947619281     1.108654158446    -0.016472195848    15.994914619570
         O            0.409497619281    -0.883225841554    -1.320622195848    15.994914619570
         O            0.377308419281    -0.986977641554     1.443864504152    15.994914619570
         C           -2.195972380719     0.056574158446    -0.026162195848    12.000000000000
         H           -2.245622380719    -0.610365841554    -0.895742195848     1.007825032230
         H           -3.056042380719     0.734244158446    -0.049602195848     1.007825032230
         H           -2.256942380719    -0.563345841554     0.876827804152     1.007825032230

  Nuclear repulsion =  325.252118304093756
  Reference energy  = -679.920578065856716

  ==> Basis Set <==

  Basis Set: AUG-CC-PVTZ
    Blend: AUG-CC-PVTZ
    Number of shells: 113
    Number of basis function: 349
    Number of Cartesian functions: 409
    Spherical Harmonics?: true
    Max angular momentum: 3

  ==> CGRSolver (by Rob Parrish) <==

   Number of roots    =         1
   Preconditioning    =    JACOBI
   Convergence cutoff =     1E-06
   Maximum iterations =       100

  ==> CPHFRHamiltonian (by Rob Parrish) <== 

  ==> MemDFJK: Density-Fitted J/K Matrices <==

    J tasked:                   Yes
    K tasked:                   Yes
    wK tasked:                   No
    OpenMP threads:               8
    Memory [MiB]:             22888
    Algorithm:                 Core
    Schwarz Cutoff:           1E-12
    Mask sparsity (%):       1.6781
    Fitting Condition:        1E-10

   => Auxiliary Basis Set <=

  Basis Set: (AUG-CC-PVTZ AUX)
    Blend: AUG-CC-PVTZ-JKFIT
    Number of shells: 234
    Number of basis function: 804
    Number of Cartesian functions: 1000
    Spherical Harmonics?: true
    Max angular momentum: 4

  ==> CPHF Iterations <==

  => Iterations <=

             Iter  Converged  Remaining    Residual
  CGR           1          0          1   9.890E-02
  CGR           2          0          1   2.662E-02
  CGR           3          0          1   1.323E-02
  CGR           4          0          1   5.162E-03
  CGR           5          0          1   2.064E-03
  CGR           6          0          1   6.419E-04
  CGR           7          0          1   2.407E-04
  CGR           8          0          1   8.603E-05
  CGR           9          0          1   2.000E-05
  CGR          10          0          1   4.893E-06
  CGR          11          0          1   2.108E-06
  CGR          12          1          0   6.205E-07

    CGRSolver converged.

	-----------------------------------------------------------
	 ==================> DF-MP2 Energies <==================== 
	-----------------------------------------------------------
	 Reference Energy          =    -679.9205780658567164 [Eh]
	 Singles Energy            =      -0.0000000000000000 [Eh]
	 Same-Spin Energy          =      -0.3838748177781964 [Eh]
	 Opposite-Spin Energy      =      -1.0986079246005365 [Eh]
	 Correlation Energy        =      -1.4824827423787328 [Eh]
	 Total Energy              =    -681.4030608082354092 [Eh]
	-----------------------------------------------------------
	 ================> DF-SCS-MP2 Energies <================== 
	-----------------------------------------------------------
	 SCS Same-Spin Scale       =       0.3333333333333333 [-]
	 SCS Opposite-Spin Scale   =       1.2000000000000000 [-]
	 SCS Same-Spin Energy      =      -0.1279582725927321 [Eh]
	 SCS Opposite-Spin Energy  =      -1.3183295095206438 [Eh]
	 SCS Correlation Energy    =      -1.4462877821133759 [Eh]
	 SCS Total Energy          =    -681.3668658479700753 [Eh]
	-----------------------------------------------------------



Properties will be evaluated at  -0.000000,   0.000000,  -0.000000 [a0]

Properties computed using the MP2 density matrix

  Nuclear Dipole Moment: [e a0]
     X:    -7.4979      Y:    -0.3675      Z:    -0.0424

  Electronic Dipole Moment: [e a0]
     X:     5.4397      Y:     0.9109      Z:    -0.4327

  Dipole Moment: [e a0]
     X:    -2.0581      Y:     0.5434      Z:    -0.4752     Total:     2.1810

  Dipole Moment: [D]
     X:    -5.2313      Y:     1.3811      Z:    -1.2078     Total:     5.5437


*** tstop() called on node35.bme.utexas.edu at Wed Nov  4 11:00:12 2020
Module time:
	user time   =     313.95 seconds =       5.23 minutes
	system time =      32.14 seconds =       0.54 minutes
	total time  =         57 seconds =       0.95 minutes
Total time:
	user time   =     423.72 seconds =       7.06 minutes
	system time =      45.09 seconds =       0.75 minutes
	total time  =         75 seconds =       1.25 minutes

    Psi4 stopped on: Wednesday, 04 November 2020 11:00AM
    Psi4 wall time for execution: 0:01:15.15

*** Psi4 exiting successfully. Buy a developer a beer!
