opt=Tight                                                               
Freq      RMP2-FC                                                     6-31G(d)            
Number of atoms                            I               13
Info1-9                                    I   N=           9
          22          22        1002           0           0         100
           6           2           1
Charge                                     I               -1
Multiplicity                               I                1
Number of electrons                        I               48
Number of alpha electrons                  I               24
Number of beta electrons                   I               24
Number of basis functions                  I              104
Number of independent functions            I              104
Number of point charges in /Mol/           I                0
Number of translation vectors              I                0
Atomic numbers                             I   N=          13
           8           8           6           6           6           6
           1           1           1           1           1           1
           1
Nuclear charges                            R   N=          13
  8.00000000E+00  8.00000000E+00  6.00000000E+00  6.00000000E+00  6.00000000E+00
  6.00000000E+00  1.00000000E+00  1.00000000E+00  1.00000000E+00  1.00000000E+00
  1.00000000E+00  1.00000000E+00  1.00000000E+00
Current cartesian coordinates              R   N=          39
 -1.98150784E+00 -4.37587204E-05  2.41970977E+00 -3.41771621E+00  2.28448862E-05
 -1.62674886E+00  1.07347932E+00  9.99774582E-06 -9.01631178E-01  2.43569405E+00
 -2.37331741E+00  1.97344490E-02  2.43567052E+00  2.37333145E+00  1.97881495E-02
 -1.69200731E+00 -7.89392897E-06  3.68514883E-02  1.03733582E+00  3.32835274E-05
 -2.97445045E+00  1.50761927E+00 -4.08665782E+00 -6.80695720E-01  4.40783292E+00
 -2.41066249E+00 -6.13053967E-01  2.40431196E+00 -2.42584790E+00  2.08480086E+00
  1.50757379E+00  4.08667744E+00 -6.80599149E-01  4.40780816E+00  2.41071567E+00
 -6.13002149E-01  2.40429094E+00  2.42581227E+00  2.08485589E+00
Force Field                                I                0
Int Atom Types                             I   N=          13
           0           0           0           0           0           0
           0           0           0           0           0           0
           0
MM charges                                 R   N=          13
  0.00000000E+00  0.00000000E+00  0.00000000E+00  0.00000000E+00  0.00000000E+00
  0.00000000E+00  0.00000000E+00  0.00000000E+00  0.00000000E+00  0.00000000E+00
  0.00000000E+00  0.00000000E+00  0.00000000E+00
Integer atomic weights                     I   N=          13
          16          16          12          12          12          12
           1           1           1           1           1           1
           1
Real atomic weights                        R   N=          13
  1.59949146E+01  1.59949146E+01  1.20000000E+01  1.20000000E+01  1.20000000E+01
  1.20000000E+01  1.00782504E+00  1.00782504E+00  1.00782504E+00  1.00782504E+00
  1.00782504E+00  1.00782504E+00  1.00782504E+00
Atom fragment info                         I   N=          13
           0           0           0           0           0           0
           0           0           0           0           0           0
           0
Atom residue num                           I   N=          13
           0           0           0           0           0           0
           0           0           0           0           0           0
           0
Nuclear spins                              I   N=          13
           0           0           0           0           0           0
           1           1           1           1           1           1
           1
Nuclear ZEff                               R   N=          13
 -5.60000000E+00 -5.60000000E+00 -3.60000000E+00 -3.60000000E+00 -3.60000000E+00
 -3.60000000E+00 -1.00000000E+00 -1.00000000E+00 -1.00000000E+00 -1.00000000E+00
 -1.00000000E+00 -1.00000000E+00 -1.00000000E+00
Nuclear QMom                               R   N=          13
  0.00000000E+00  0.00000000E+00  0.00000000E+00  0.00000000E+00  0.00000000E+00
  0.00000000E+00  0.00000000E+00  0.00000000E+00  0.00000000E+00  0.00000000E+00
  0.00000000E+00  0.00000000E+00  0.00000000E+00
Nuclear GFac                               R   N=          13
  0.00000000E+00  0.00000000E+00  0.00000000E+00  0.00000000E+00  0.00000000E+00
  0.00000000E+00  2.79284600E+00  2.79284600E+00  2.79284600E+00  2.79284600E+00
  2.79284600E+00  2.79284600E+00  2.79284600E+00
MicOpt                                     I   N=          13
          -1          -1          -1          -1          -1          -1
          -1          -1          -1          -1          -1          -1
          -1
Number of contracted shells                I               38
Number of primitive shells                 I               94
Pure/Cartesian d shells                    I                1
Pure/Cartesian f shells                    I                0
Highest angular momentum                   I                2
Largest degree of contraction              I                6
Shell types                                I   N=          38
           0          -1          -1           2           0          -1
          -1           2           0          -1          -1           2
           0          -1          -1           2           0          -1
          -1           2           0          -1          -1           2
           0           0           0           0           0           0
           0           0           0           0           0           0
           0           0
Number of primitives per shell             I   N=          38
           6           3           1           1           6           3
           1           1           6           3           1           1
           6           3           1           1           6           3
           1           1           6           3           1           1
           3           1           3           1           3           1
           3           1           3           1           3           1
           3           1
Shell to atom map                          I   N=          38
           1           1           1           1           2           2
           2           2           3           3           3           3
           4           4           4           4           5           5
           5           5           6           6           6           6
           7           7           8           8           9           9
          10          10          11          11          12          12
          13          13
Primitive exponents                        R   N=          94
  5.48467166E+03  8.25234946E+02  1.88046958E+02  5.29645000E+01  1.68975704E+01
  5.79963534E+00  1.55396162E+01  3.59993359E+00  1.01376175E+00  2.70005823E-01
  8.00000000E-01  5.48467166E+03  8.25234946E+02  1.88046958E+02  5.29645000E+01
  1.68975704E+01  5.79963534E+00  1.55396162E+01  3.59993359E+00  1.01376175E+00
  2.70005823E-01  8.00000000E-01  3.04752488E+03  4.57369518E+02  1.03948685E+02
  2.92101553E+01  9.28666296E+00  3.16392696E+00  7.86827235E+00  1.88128854E+00
  5.44249258E-01  1.68714478E-01  8.00000000E-01  3.04752488E+03  4.57369518E+02
  1.03948685E+02  2.92101553E+01  9.28666296E+00  3.16392696E+00  7.86827235E+00
  1.88128854E+00  5.44249258E-01  1.68714478E-01  8.00000000E-01  3.04752488E+03
  4.57369518E+02  1.03948685E+02  2.92101553E+01  9.28666296E+00  3.16392696E+00
  7.86827235E+00  1.88128854E+00  5.44249258E-01  1.68714478E-01  8.00000000E-01
  3.04752488E+03  4.57369518E+02  1.03948685E+02  2.92101553E+01  9.28666296E+00
  3.16392696E+00  7.86827235E+00  1.88128854E+00  5.44249258E-01  1.68714478E-01
  8.00000000E-01  1.87311370E+01  2.82539436E+00  6.40121692E-01  1.61277759E-01
  1.87311370E+01  2.82539436E+00  6.40121692E-01  1.61277759E-01  1.87311370E+01
  2.82539436E+00  6.40121692E-01  1.61277759E-01  1.87311370E+01  2.82539436E+00
  6.40121692E-01  1.61277759E-01  1.87311370E+01  2.82539436E+00  6.40121692E-01
  1.61277759E-01  1.87311370E+01  2.82539436E+00  6.40121692E-01  1.61277759E-01
  1.87311370E+01  2.82539436E+00  6.40121692E-01  1.61277759E-01
Contraction coefficients                   R   N=          94
  1.83107443E-03  1.39501722E-02  6.84450781E-02  2.32714336E-01  4.70192898E-01
  3.58520853E-01 -1.10777550E-01 -1.48026263E-01  1.13076702E+00  1.00000000E+00
  1.00000000E+00  1.83107443E-03  1.39501722E-02  6.84450781E-02  2.32714336E-01
  4.70192898E-01  3.58520853E-01 -1.10777550E-01 -1.48026263E-01  1.13076702E+00
  1.00000000E+00  1.00000000E+00  1.83473713E-03  1.40373228E-02  6.88426223E-02
  2.32184443E-01  4.67941348E-01  3.62311985E-01 -1.19332420E-01 -1.60854152E-01
  1.14345644E+00  1.00000000E+00  1.00000000E+00  1.83473713E-03  1.40373228E-02
  6.88426223E-02  2.32184443E-01  4.67941348E-01  3.62311985E-01 -1.19332420E-01
 -1.60854152E-01  1.14345644E+00  1.00000000E+00  1.00000000E+00  1.83473713E-03
  1.40373228E-02  6.88426223E-02  2.32184443E-01  4.67941348E-01  3.62311985E-01
 -1.19332420E-01 -1.60854152E-01  1.14345644E+00  1.00000000E+00  1.00000000E+00
  1.83473713E-03  1.40373228E-02  6.88426223E-02  2.32184443E-01  4.67941348E-01
  3.62311985E-01 -1.19332420E-01 -1.60854152E-01  1.14345644E+00  1.00000000E+00
  1.00000000E+00  3.34946043E-02  2.34726953E-01  8.13757326E-01  1.00000000E+00
  3.34946043E-02  2.34726953E-01  8.13757326E-01  1.00000000E+00  3.34946043E-02
  2.34726953E-01  8.13757326E-01  1.00000000E+00  3.34946043E-02  2.34726953E-01
  8.13757326E-01  1.00000000E+00  3.34946043E-02  2.34726953E-01  8.13757326E-01
  1.00000000E+00  3.34946043E-02  2.34726953E-01  8.13757326E-01  1.00000000E+00
  3.34946043E-02  2.34726953E-01  8.13757326E-01  1.00000000E+00
P(S=P) Contraction coefficients            R   N=          94
  0.00000000E+00  0.00000000E+00  0.00000000E+00  0.00000000E+00  0.00000000E+00
  0.00000000E+00  7.08742682E-02  3.39752839E-01  7.27158577E-01  1.00000000E+00
  0.00000000E+00  0.00000000E+00  0.00000000E+00  0.00000000E+00  0.00000000E+00
  0.00000000E+00  0.00000000E+00  7.08742682E-02  3.39752839E-01  7.27158577E-01
  1.00000000E+00  0.00000000E+00  0.00000000E+00  0.00000000E+00  0.00000000E+00
  0.00000000E+00  0.00000000E+00  0.00000000E+00  6.89990666E-02  3.16423961E-01
  7.44308291E-01  1.00000000E+00  0.00000000E+00  0.00000000E+00  0.00000000E+00
  0.00000000E+00  0.00000000E+00  0.00000000E+00  0.00000000E+00  6.89990666E-02
  3.16423961E-01  7.44308291E-01  1.00000000E+00  0.00000000E+00  0.00000000E+00
  0.00000000E+00  0.00000000E+00  0.00000000E+00  0.00000000E+00  0.00000000E+00
  6.89990666E-02  3.16423961E-01  7.44308291E-01  1.00000000E+00  0.00000000E+00
  0.00000000E+00  0.00000000E+00  0.00000000E+00  0.00000000E+00  0.00000000E+00
  0.00000000E+00  6.89990666E-02  3.16423961E-01  7.44308291E-01  1.00000000E+00
  0.00000000E+00  0.00000000E+00  0.00000000E+00  0.00000000E+00  0.00000000E+00
  0.00000000E+00  0.00000000E+00  0.00000000E+00  0.00000000E+00  0.00000000E+00
  0.00000000E+00  0.00000000E+00  0.00000000E+00  0.00000000E+00  0.00000000E+00
  0.00000000E+00  0.00000000E+00  0.00000000E+00  0.00000000E+00  0.00000000E+00
  0.00000000E+00  0.00000000E+00  0.00000000E+00  0.00000000E+00  0.00000000E+00
  0.00000000E+00  0.00000000E+00  0.00000000E+00  0.00000000E+00
Coordinates of each shell                  R   N=         114
 -1.98150784E+00 -4.37587204E-05  2.41970977E+00 -1.98150784E+00 -4.37587204E-05
  2.41970977E+00 -1.98150784E+00 -4.37587204E-05  2.41970977E+00 -1.98150784E+00
 -4.37587204E-05  2.41970977E+00 -3.41771621E+00  2.28448862E-05 -1.62674886E+00
 -3.41771621E+00  2.28448862E-05 -1.62674886E+00 -3.41771621E+00  2.28448862E-05
 -1.62674886E+00 -3.41771621E+00  2.28448862E-05 -1.62674886E+00  1.07347932E+00
  9.99774582E-06 -9.01631178E-01  1.07347932E+00  9.99774582E-06 -9.01631178E-01
  1.07347932E+00  9.99774582E-06 -9.01631178E-01  1.07347932E+00  9.99774582E-06
 -9.01631178E-01  2.43569405E+00 -2.37331741E+00  1.97344490E-02  2.43569405E+00
 -2.37331741E+00  1.97344490E-02  2.43569405E+00 -2.37331741E+00  1.97344490E-02
  2.43569405E+00 -2.37331741E+00  1.97344490E-02  2.43567052E+00  2.37333145E+00
  1.97881495E-02  2.43567052E+00  2.37333145E+00  1.97881495E-02  2.43567052E+00
  2.37333145E+00  1.97881495E-02  2.43567052E+00  2.37333145E+00  1.97881495E-02
 -1.69200731E+00 -7.89392897E-06  3.68514883E-02 -1.69200731E+00 -7.89392897E-06
  3.68514883E-02 -1.69200731E+00 -7.89392897E-06  3.68514883E-02 -1.69200731E+00
 -7.89392897E-06  3.68514883E-02  1.03733582E+00  3.32835274E-05 -2.97445045E+00
  1.03733582E+00  3.32835274E-05 -2.97445045E+00  1.50761927E+00 -4.08665782E+00
 -6.80695720E-01  1.50761927E+00 -4.08665782E+00 -6.80695720E-01  4.40783292E+00
 -2.41066249E+00 -6.13053967E-01  4.40783292E+00 -2.41066249E+00 -6.13053967E-01
  2.40431196E+00 -2.42584790E+00  2.08480086E+00  2.40431196E+00 -2.42584790E+00
  2.08480086E+00  1.50757379E+00  4.08667744E+00 -6.80599149E-01  1.50757379E+00
  4.08667744E+00 -6.80599149E-01  4.40780816E+00  2.41071567E+00 -6.13002149E-01
  4.40780816E+00  2.41071567E+00 -6.13002149E-01  2.40429094E+00  2.42581227E+00
  2.08485589E+00  2.40429094E+00  2.42581227E+00  2.08485589E+00
Constraint Structure                       R   N=          39
 -1.98150784E+00 -4.37587204E-05  2.41970977E+00 -3.41771621E+00  2.28448862E-05
 -1.62674886E+00  1.07347932E+00  9.99774582E-06 -9.01631178E-01  2.43569405E+00
 -2.37331741E+00  1.97344490E-02  2.43567052E+00  2.37333145E+00  1.97881495E-02
 -1.69200731E+00 -7.89392897E-06  3.68514883E-02  1.03733582E+00  3.32835274E-05
 -2.97445045E+00  1.50761927E+00 -4.08665782E+00 -6.80695720E-01  4.40783292E+00
 -2.41066249E+00 -6.13053967E-01  2.40431196E+00 -2.42584790E+00  2.08480086E+00
  1.50757379E+00  4.08667744E+00 -6.80599149E-01  4.40780816E+00  2.41071567E+00
 -6.13002149E-01  2.40429094E+00  2.42581227E+00  2.08485589E+00
Num ILSW                                   I              100
ILSW                                       I   N=         100
           0           1           0           0           2           0
           0           0           0           0           0          -1
           0           0           0           0           0           0
           0           0           0           0           1           0
           1           0           0           0           0           0
           0           0      100000           0          -1           0
           0           0           0           0           0           0
           0           0           0           1           1           0
           0           0           1           0           0           0
           0           0           4          40           0           0
           0           0           0           0           0           0
           0           0           0           0           0           0
           0           0           0           0           0           0
           0           0           0           0           0           0
           0           0           0           0           0           0
           0           0           0           0           0           0
           0           0           0           0
Num RLSW                                   I               40
RLSW                                       R   N=          40
  1.00000000E+00  1.00000000E+00  1.00000000E+00  1.00000000E+00  1.00000000E+00
  0.00000000E+00  0.00000000E+00  1.00000000E+00  0.00000000E+00  0.00000000E+00
  0.00000000E+00  0.00000000E+00  1.00000000E+00  0.00000000E+00  0.00000000E+00
  0.00000000E+00  0.00000000E+00  1.00000000E+00  0.00000000E+00  0.00000000E+00
  0.00000000E+00  0.00000000E+00  1.00000000E+00  0.00000000E+00  0.00000000E+00
  0.00000000E+00  0.00000000E+00  1.00000000E+00  0.00000000E+00  0.00000000E+00
  0.00000000E+00  0.00000000E+00  0.00000000E+00  0.00000000E+00  0.00000000E+00
  0.00000000E+00  0.00000000E+00  0.00000000E+00  1.00000000E+00  1.00000000E+00
MxBond                                     I                4
NBond                                      I   N=          13
           1           1           4           4           4           3
           1           1           1           1           1           1
           1
IBond                                      I   N=          52
           6           0           0           0           6           0
           0           0           4           5           6           7
           3           8           9          10           3          11
          12          13           1           2           3           0
           3           0           0           0           4           0
           0           0           4           0           0           0
           4           0           0           0           5           0
           0           0           5           0           0           0
           5           0           0           0
RBond                                      R   N=          52
  2.00000000E+00  0.00000000E+00  0.00000000E+00  0.00000000E+00  2.00000000E+00
  0.00000000E+00  0.00000000E+00  0.00000000E+00  1.00000000E+00  1.00000000E+00
  1.00000000E+00  1.00000000E+00  1.00000000E+00  1.00000000E+00  1.00000000E+00
  1.00000000E+00  1.00000000E+00  1.00000000E+00  1.00000000E+00  1.00000000E+00
  2.00000000E+00  2.00000000E+00  1.00000000E+00  0.00000000E+00  1.00000000E+00
  0.00000000E+00  0.00000000E+00  0.00000000E+00  1.00000000E+00  0.00000000E+00
  0.00000000E+00  0.00000000E+00  1.00000000E+00  0.00000000E+00  0.00000000E+00
  0.00000000E+00  1.00000000E+00  0.00000000E+00  0.00000000E+00  0.00000000E+00
  1.00000000E+00  0.00000000E+00  0.00000000E+00  0.00000000E+00  1.00000000E+00
  0.00000000E+00  0.00000000E+00  0.00000000E+00  1.00000000E+00  0.00000000E+00
  0.00000000E+00  0.00000000E+00
Virial Ratio                               R      2.002323985775868E+00
SCF Energy                                 R     -3.053980923350878E+02
MP2 Energy                                 R     -3.062774490147197E+02
Total Energy                               R     -3.062774490147197E+02
Post-SCF wavefunction norm                 R      1.596262107861705E+00
RMS Force                                  R      1.557683858622774E-05
RMS Density                                R      6.757403354084581E-10
External E-field                           R   N=          35
  0.00000000E+00  0.00000000E+00  0.00000000E+00  0.00000000E+00  0.00000000E+00
  0.00000000E+00  0.00000000E+00  0.00000000E+00  0.00000000E+00  0.00000000E+00
  0.00000000E+00  0.00000000E+00  0.00000000E+00  0.00000000E+00  0.00000000E+00
  0.00000000E+00  0.00000000E+00  0.00000000E+00  0.00000000E+00  0.00000000E+00
  0.00000000E+00  0.00000000E+00  0.00000000E+00  0.00000000E+00  0.00000000E+00
  0.00000000E+00  0.00000000E+00  0.00000000E+00  0.00000000E+00  0.00000000E+00
  0.00000000E+00  0.00000000E+00  0.00000000E+00  0.00000000E+00  0.00000000E+00
IOpCl                                      I                0
IROHF                                      I                0
Alpha Orbital Energies                     R   N=         104
 -2.04603636E+01 -2.04584241E+01 -1.12995856E+01 -1.12035824E+01 -1.12025008E+01
 -1.12023239E+01 -1.32350843E+00 -1.22173193E+00 -1.04710355E+00 -9.16176234E-01
 -8.13862664E-01 -6.71632034E-01 -6.13444191E-01 -5.92705972E-01 -5.59925674E-01
 -5.51946103E-01 -5.26229505E-01 -5.14873725E-01 -4.96263892E-01 -4.55760688E-01
 -4.54079911E-01 -3.69301255E-01 -3.56944546E-01 -3.53698976E-01  2.51341047E-01
  2.54815247E-01  3.07412257E-01  3.10069572E-01  3.20326391E-01  3.40757721E-01
  3.60099272E-01  3.78115782E-01  3.96845753E-01  4.64643709E-01  4.66696765E-01
  5.46911601E-01  6.18279770E-01  7.24392717E-01  7.50425174E-01  7.87128703E-01
  8.17677756E-01  8.81467969E-01  8.89618358E-01  9.37286770E-01  9.54823505E-01
  9.85162791E-01  1.00431623E+00  1.03879911E+00  1.06038700E+00  1.12651936E+00
  1.14311316E+00  1.17017018E+00  1.17148010E+00  1.17289833E+00  1.20011355E+00
  1.22618465E+00  1.23794870E+00  1.26223517E+00  1.31583153E+00  1.33773113E+00
  1.38711001E+00  1.43298355E+00  1.44486305E+00  1.48033512E+00  1.63112239E+00
  1.68830423E+00  1.68886093E+00  1.83486262E+00  1.85079829E+00  1.96805106E+00
  1.97474448E+00  2.08015460E+00  2.09308267E+00  2.13827003E+00  2.19010309E+00
  2.21086431E+00  2.21450840E+00  2.27156374E+00  2.28628702E+00  2.30776770E+00
  2.35334937E+00  2.40363921E+00  2.44308424E+00  2.45254329E+00  2.56956544E+00
  2.60174767E+00  2.60638097E+00  2.70279603E+00  2.75234539E+00  2.77946143E+00
  2.90026550E+00  2.99620434E+00  3.04427228E+00  3.13435359E+00  3.20636241E+00
  3.31442453E+00  3.37958744E+00  3.52908659E+00  4.33037330E+00  4.59758109E+00
  4.72199699E+00  4.72597981E+00  4.85664979E+00  5.08255650E+00
Alpha MO coefficients                      R   N=       10816
 -8.38892714E-03 -1.98319201E-04  3.07494181E-05 -3.22441319E-10  1.85292879E-05
  7.16620985E-05  1.72796280E-05  9.31914506E-10 -8.26889767E-05  2.55187354E-05
 -1.56032927E-05  3.49990833E-05  1.49303104E-09 -1.05071469E-04 -5.37078113E-10
  9.94651821E-01  2.09859272E-02  8.98348865E-04 -1.65982460E-08  8.77928504E-04
  4.26778704E-03 -1.10454130E-04  1.48935118E-09 -8.41084062E-05 -3.83188808E-03
 -4.04196112E-03 -3.84913137E-03 -1.32182273E-09  5.57785977E-05 -3.66771108E-09
 -4.32050253E-06  9.44012231E-06  3.34645957E-05  8.42443468E-13  1.05527952E-05
  5.45256086E-05  1.17208867E-04  7.70889242E-11 -3.67196444E-05 -7.29462983E-05
 -1.40987334E-05 -1.89837169E-06  3.61480015E-10 -2.24632511E-05 -3.43747121E-10
  3.59368420E-06  1.39836182E-05 -1.10530295E-05  2.38504782E-06  2.98030500E-06
 -8.98224003E-05  6.58392195E-05 -3.36104457E-05 -9.56377436E-06  6.72208732E-06
  7.05167405E-06  4.75399886E-06  4.58734736E-06  3.85055820E-06 -1.83874964E-06
  3.59369663E-06  1.39834576E-05 -1.10531555E-05 -2.38534677E-06  2.98030218E-06
 -8.98211465E-05  6.58386967E-05  3.36117781E-05 -9.56357746E-06  6.72244583E-06
  7.05136102E-06  4.75414943E-06 -4.58739420E-06  3.85041145E-06  1.83878267E-06
 -8.32715087E-06  4.90269352E-04 -1.06872337E-04  1.89095984E-09 -1.14431843E-04
 -2.54982744E-04  3.79615627E-04 -2.46892831E-09  1.64194507E-04 -2.94293488E-04
 -6.02269885E-05 -3.40322626E-04  5.62653473E-09 -3.02618235E-04  5.85434517E-09
  9.30754967E-06 -8.73401058E-05  6.21679340E-06  1.67494546E-05 -2.00920009E-06
 -3.24172886E-05  1.32373964E-05 -8.40542638E-07  6.21704983E-06  1.67484995E-05
 -2.00928245E-06 -3.24174245E-05  1.32373069E-05 -8.40183659E-07  9.94660130E-01
  2.10316643E-02  1.48308995E-04  1.83460458E-08 -1.25396839E-03  3.95862005E-03
 -6.45754489E-05 -3.32103305E-09  2.29319922E-04 -3.86840823E-03 -4.01201013E-03
 -3.78339148E-03  2.84043954E-11 -1.49657324E-05 -4.16184935E-09  8.37176665E-03
  1.10697186E-04  2.58894543E-05  3.05833250E-10 -1.97663624E-05  4.49454874E-04
  1.42190212E-04 -2.21760375E-09  8.97705195E-05  3.47784015E-05 -1.11093346E-04
 -1.51932526E-04 -1.06763992E-09  3.39352223E-05  5.67321974E-10 -6.08363781E-06
  2.12165054E-06  3.57091338E-05  4.83028073E-10 -2.28115672E-05  1.09642546E-04
  7.43455836E-05  1.31790101E-09 -1.02651192E-04 -3.09933053E-05 -1.60578088E-05
 -5.06019456E-05 -9.28639176E-10  5.34905853E-05  6.74308103E-10  5.78188413E-06
  1.92721045E-05 -2.26814439E-05  9.09344164E-07 -5.23059905E-07 -6.25357671E-05
  1.22786331E-04 -2.57798711E-05  4.02477307E-05  1.19888052E-05  4.45383986E-06
  7.86103877E-06  5.34750928E-06 -8.18757397E-07  2.54484842E-06  5.78189866E-06
  1.92720761E-05 -2.26813827E-05 -9.09645592E-07 -5.23070168E-07 -6.25360771E-05
  1.22785773E-04  2.57802318E-05  4.02479137E-05  1.19889157E-05  4.45396446E-06
  7.86100861E-06 -5.34730537E-06 -8.18875516E-07 -2.54490412E-06 -1.06221787E-05
  4.92689551E-04 -1.77503616E-05 -2.65046544E-09  1.60711356E-04 -2.37995714E-04
  3.16299193E-04  6.68085355E-10 -2.24007240E-05 -6.98721030E-05 -6.85419505E-05
 -5.77592966E-04 -1.18663895E-10  1.75988963E-05  8.92119556E-09 -1.03568118E-05
 -7.98336994E-05  1.07628761E-05  4.44836121E-05 -7.70285764E-06 -5.35265507E-05
  3.00006671E-05 -8.75568945E-05  1.07629535E-05  4.44834721E-05 -7.70282074E-06
 -5.35262992E-05  3.00005697E-05 -8.75562589E-05 -2.64644597E-04  1.98843471E-04
 -7.62415592E-05  2.15840096E-09 -1.54777085E-04 -1.33623925E-05  7.63950471E-04
 -1.34484579E-08  1.06983164E-03  1.78252418E-05  1.86414455E-04 -4.90881465E-04
  8.00022675E-10 -5.00442181E-05  1.07071991E-08 -1.81466543E-04  6.09600089E-04
  5.47989427E-05 -3.68634789E-09  1.72256256E-04 -2.78791000E-03 -8.23565524E-04
  3.48089351E-08 -1.67376781E-03  1.26754263E-05  4.30620834E-04 -9.11394499E-05
  7.21995400E-09 -3.26004426E-04  1.18165484E-08  2.81811785E-03  3.76070950E-04
 -9.55663068E-05 -5.06885763E-10  3.35648256E-05  2.27905875E-03 -1.77897489E-03
 -1.72040539E-08  2.40941884E-04 -4.19500379E-04 -1.76193837E-04 -1.14451979E-04
 -1.37728068E-09  7.79221814E-05 -1.38148512E-09 -1.16482469E-04 -3.67214280E-04
  1.92781475E-04 -3.59659280E-05 -4.08726553E-05  1.15502461E-03 -1.17383419E-03
  3.36771296E-04  2.93322340E-04 -4.04909593E-05 -6.73032524E-05 -1.11828576E-04
 -7.27725667E-05 -1.97000794E-05 -4.43724942E-06 -1.16482096E-04 -3.67216692E-04
  1.92780509E-04  3.59689986E-05 -4.08719238E-05  1.15503443E-03 -1.17384012E-03
 -3.36796715E-04  2.93314053E-04 -4.04904387E-05 -6.73020924E-05 -1.11828747E-04
  7.27737052E-05 -1.96977285E-05  4.43806000E-06  9.95978990E-01  2.58984395E-02
 -2.45038214E-04  1.79940391E-09  9.36486831E-05 -6.91962917E-03 -4.40735925E-03
 -5.98291340E-09 -1.02313169E-04 -1.04043553E-03 -2.08422638E-03 -3.89936443E-04
 -8.68533635E-09  4.21892655E-04 -3.18902845E-08 -1.04787699E-04  7.59810006E-05
 -1.63056986E-04 -1.39164349E-04  4.31179105E-05  6.12627753E-04 -1.48456107E-04
 -2.18192802E-04 -1.63059036E-04 -1.39161098E-04  4.31180072E-05  6.12630544E-04
 -1.48456970E-04 -2.18190790E-04 -7.55588150E-05 -4.01506685E-04 -6.16679122E-05
 -2.23747069E-09  7.95756602E-05  1.37996086E-03 -1.12780393E-04  1.00483770E-08
 -5.72479962E-04 -1.59095644E-04 -4.06077041E-04 -8.66115293E-05  1.57924571E-09
 -1.95182501E-05 -5.71623614E-09 -5.12671967E-05 -2.93019848E-04 -3.92350615E-05
  1.56250805E-09 -4.84359141E-05  1.13446950E-03 -2.13322926E-06 -1.29071864E-08
  5.81036803E-04 -1.24461019E-04 -2.63280403E-04 -5.73006763E-05 -1.02320719E-09
  5.04301448E-05 -4.45347080E-09  9.28413386E-01  2.70522345E-02  1.91379835E-04
  1.68043247E-09  2.38405908E-04 -1.81375944E-02  4.82789429E-04  5.63774691E-08
 -1.56910500E-03 -1.40077530E-03 -1.44613914E-03 -1.27015092E-03 -4.30121383E-09
 -2.49238371E-05 -5.48958093E-09  2.54670702E-01  7.23399654E-03 -1.01612364E-04
  1.14791516E-04 -1.67122877E-05  1.09192204E-03 -7.87973099E-04  1.70325936E-03
 -4.23798660E-04 -6.56498294E-04 -7.84433438E-04 -6.13843417E-04  1.43662979E-04
 -9.33771570E-05  1.73549689E-04  2.54699633E-01  7.23483040E-03 -1.01611569E-04
 -1.14798014E-04 -1.67139723E-05  1.09146160E-03 -7.87950505E-04 -1.70321947E-03
 -4.23848411E-04 -6.56545317E-04 -7.84481476E-04 -6.13899048E-04 -1.43660070E-04
 -9.33795668E-05 -1.73555206E-04 -2.88178515E-03 -2.00116977E-04  1.98481741E-04
  1.00194086E-09 -1.04436175E-04  3.70930088E-03  3.10786749E-03  1.78116729E-08
 -8.26524145E-04 -4.13492854E-04 -1.70883572E-04 -2.95067879E-04  2.67875963E-10
  9.87884446E-05  3.20662122E-09  1.96699685E-04  2.37175352E-03 -1.19557437E-04
  6.30002488E-04 -1.43361576E-04  4.27904801E-04 -1.38972747E-04  5.26266656E-04
 -1.19553714E-04  6.30059289E-04 -1.43356617E-04  4.27984147E-04 -1.38965071E-04
  5.26355631E-04  2.47799509E-08  1.28193234E-07  8.46109118E-09 -3.83951350E-05
 -1.11609443E-08 -7.28801997E-07 -1.08594307E-07  6.28185813E-06  1.97302776E-07
  5.09256429E-08  8.18750856E-08  5.95062293E-08  2.76821861E-05  2.33905345E-08
  7.24691462E-06  7.10810692E-10  1.17423109E-08  2.12586971E-08  4.68337530E-05
  5.99919245E-09  1.34895374E-07 -8.87750975E-10 -1.95543482E-04 -2.75886994E-08
 -4.72803811E-09  2.59874772E-08  4.13080577E-09 -3.59686726E-05 -5.18362383E-09
  1.80315411E-06 -1.38704050E-04 -3.90119831E-06  1.73484638E-08  8.90935849E-05
 -1.21207399E-08  3.74139602E-06  2.98552740E-07  2.10468373E-03  7.94626701E-08
  9.98926262E-08  4.34435710E-08  1.32477435E-07 -1.85527048E-04 -1.53360021E-08
 -1.38494872E-04 -7.03934982E-01 -2.02834840E-02 -1.02193272E-05 -1.15109181E-04
 -1.65348878E-05  1.12355603E-02 -6.54885654E-05  9.01816327E-04  1.52381422E-04
  1.20712545E-03  1.28072167E-03  1.19920588E-03 -1.32610494E-05  2.60290473E-05
 -9.39068160E-06  7.04360027E-01  2.02955012E-02  1.01820994E-05 -1.15058999E-04
  1.65150342E-05 -1.12428383E-02  6.61343898E-05  9.02203544E-04 -1.52053365E-04
 -1.20786052E-03 -1.28136155E-03 -1.19995480E-03 -1.32266550E-05 -2.60055320E-05
 -9.36629871E-06  4.22326703E-07 -1.29694214E-07 -8.54037419E-08 -4.50210443E-05
  1.06910673E-08  1.36166322E-07  8.50244808E-08  2.37476250E-04  5.46750971E-07
  3.22569053E-08 -2.52261189E-08  4.71421814E-10  7.87763378E-05 -1.82968064E-08
  4.68184493E-05 -1.23081677E-07 -4.13097387E-07 -8.95454471E-05 -1.43174445E-03
 -1.37457473E-04 -1.97668013E-03 -1.76989023E-04 -2.11749371E-03  8.96581339E-05
  1.43306822E-03  1.37515895E-04  1.97757110E-03  1.77077260E-04  2.11849427E-03
  7.04594564E-05  3.63352768E-04  2.16364747E-05  1.34289257E-08 -2.69600377E-05
 -2.12895190E-03 -3.39785084E-04 -1.27318329E-08  5.58103157E-04  1.44571584E-04
  2.22965753E-04  1.75483808E-04 -1.05369976E-08  6.84920153E-05 -1.26979046E-09