211_4-Fluorophenol Gaussian SP Calculation on node58.bme.utexas.edu     
Freq      RMP2-FC                                                     6-31G(d)            
Number of atoms                            I               13
Info1-9                                    I   N=           9
          24          23        1002           0           0         100
           6           2           1
Charge                                     I                0
Multiplicity                               I                1
Number of electrons                        I               58
Number of alpha electrons                  I               29
Number of beta electrons                   I               29
Number of basis functions                  I              130
Number of independent functions            I              130
Number of point charges in /Mol/           I                0
Number of translation vectors              I                0
Atomic numbers                             I   N=          13
           9           8           6           6           6           6
           6           6           1           1           1           1
           1
Nuclear charges                            R   N=          13
  9.00000000E+00  8.00000000E+00  6.00000000E+00  6.00000000E+00  6.00000000E+00
  6.00000000E+00  6.00000000E+00  6.00000000E+00  1.00000000E+00  1.00000000E+00
  1.00000000E+00  1.00000000E+00  1.00000000E+00
Current cartesian coordinates              R   N=          39
 -5.18706728E+00  2.77435871E-02 -2.56739645E-04  5.20251596E+00 -1.85900066E-01
  2.68042683E-04  2.60886363E+00 -2.65649252E-02  1.24741955E-04  1.27525062E+00
 -2.30820242E+00  1.23850792E-05  1.30848991E+00  2.27216937E+00  1.23965256E-04
 -1.35696292E+00 -2.29384597E+00 -1.20244428E-04 -1.33105702E+00  2.29734350E+00
 -1.79153971E-05 -2.61807124E+00  1.23054700E-02 -1.27113099E-04  2.32641933E+00
 -4.07075568E+00  1.51836133E-05  2.34312930E+00  4.05081821E+00  2.19061266E-04
 -2.43434757E+00 -4.03989362E+00 -2.10194959E-04 -2.38245851E+00  4.05900739E+00
 -2.47554877E-05  5.89165748E+00  1.51910185E+00  1.92104700E-04
Force Field                                I                0
Int Atom Types                             I   N=          13
           0           0           0           0           0           0
           0           0           0           0           0           0
           0
MM charges                                 R   N=          13
  0.00000000E+00  0.00000000E+00  0.00000000E+00  0.00000000E+00  0.00000000E+00
  0.00000000E+00  0.00000000E+00  0.00000000E+00  0.00000000E+00  0.00000000E+00
  0.00000000E+00  0.00000000E+00  0.00000000E+00
Integer atomic weights                     I   N=          13
          19          16          12          12          12          12
          12          12           1           1           1           1
           1
Real atomic weights                        R   N=          13
  1.89984032E+01  1.59949146E+01  1.20000000E+01  1.20000000E+01  1.20000000E+01
  1.20000000E+01  1.20000000E+01  1.20000000E+01  1.00782504E+00  1.00782504E+00
  1.00782504E+00  1.00782504E+00  1.00782504E+00
Atom fragment info                         I   N=          13
           0           0           0           0           0           0
           0           0           0           0           0           0
           0
Atom residue num                           I   N=          13
           0           0           0           0           0           0
           0           0           0           0           0           0
           0
Nuclear spins                              I   N=          13
           1           0           0           0           0           0
           0           0           1           1           1           1
           1
Nuclear ZEff                               R   N=          13
 -6.75000000E+00 -5.60000000E+00 -3.60000000E+00 -3.60000000E+00 -3.60000000E+00
 -3.60000000E+00 -3.60000000E+00 -3.60000000E+00 -1.00000000E+00 -1.00000000E+00
 -1.00000000E+00 -1.00000000E+00 -1.00000000E+00
Nuclear QMom                               R   N=          13
  0.00000000E+00  0.00000000E+00  0.00000000E+00  0.00000000E+00  0.00000000E+00
  0.00000000E+00  0.00000000E+00  0.00000000E+00  0.00000000E+00  0.00000000E+00
  0.00000000E+00  0.00000000E+00  0.00000000E+00
Nuclear GFac                               R   N=          13
  2.62886700E+00  0.00000000E+00  0.00000000E+00  0.00000000E+00  0.00000000E+00
  0.00000000E+00  0.00000000E+00  0.00000000E+00  2.79284600E+00  2.79284600E+00
  2.79284600E+00  2.79284600E+00  2.79284600E+00
MicOpt                                     I   N=          13
          -1          -1          -1          -1          -1          -1
          -1          -1          -1          -1          -1          -1
          -1
Number of contracted shells                I               42
Number of primitive shells                 I              108
Pure/Cartesian d shells                    I                1
Pure/Cartesian f shells                    I                0
Highest angular momentum                   I                2
Largest degree of contraction              I                6
Shell types                                I   N=          42
           0          -1          -1           2           0          -1
          -1           2           0          -1          -1           2
           0          -1          -1           2           0          -1
          -1           2           0          -1          -1           2
           0          -1          -1           2           0          -1
          -1           2           0           0           0           0
           0           0           0           0           0           0
Number of primitives per shell             I   N=          42
           6           3           1           1           6           3
           1           1           6           3           1           1
           6           3           1           1           6           3
           1           1           6           3           1           1
           6           3           1           1           6           3
           1           1           3           1           3           1
           3           1           3           1           3           1
Shell to atom map                          I   N=          42
           1           1           1           1           2           2
           2           2           3           3           3           3
           4           4           4           4           5           5
           5           5           6           6           6           6
           7           7           7           7           8           8
           8           8           9           9          10          10
          11          11          12          12          13          13
Primitive exponents                        R   N=         108
  7.00171309E+03  1.05136609E+03  2.39285690E+02  6.73974453E+01  2.15199573E+01
  7.40310130E+00  2.08479528E+01  4.80830834E+00  1.34406986E+00  3.58151393E-01
  8.00000000E-01  5.48467166E+03  8.25234946E+02  1.88046958E+02  5.29645000E+01
  1.68975704E+01  5.79963534E+00  1.55396162E+01  3.59993359E+00  1.01376175E+00
  2.70005823E-01  8.00000000E-01  3.04752488E+03  4.57369518E+02  1.03948685E+02
  2.92101553E+01  9.28666296E+00  3.16392696E+00  7.86827235E+00  1.88128854E+00
  5.44249258E-01  1.68714478E-01  8.00000000E-01  3.04752488E+03  4.57369518E+02
  1.03948685E+02  2.92101553E+01  9.28666296E+00  3.16392696E+00  7.86827235E+00
  1.88128854E+00  5.44249258E-01  1.68714478E-01  8.00000000E-01  3.04752488E+03
  4.57369518E+02  1.03948685E+02  2.92101553E+01  9.28666296E+00  3.16392696E+00
  7.86827235E+00  1.88128854E+00  5.44249258E-01  1.68714478E-01  8.00000000E-01
  3.04752488E+03  4.57369518E+02  1.03948685E+02  2.92101553E+01  9.28666296E+00
  3.16392696E+00  7.86827235E+00  1.88128854E+00  5.44249258E-01  1.68714478E-01
  8.00000000E-01  3.04752488E+03  4.57369518E+02  1.03948685E+02  2.92101553E+01
  9.28666296E+00  3.16392696E+00  7.86827235E+00  1.88128854E+00  5.44249258E-01
  1.68714478E-01  8.00000000E-01  3.04752488E+03  4.57369518E+02  1.03948685E+02
  2.92101553E+01  9.28666296E+00  3.16392696E+00  7.86827235E+00  1.88128854E+00
  5.44249258E-01  1.68714478E-01  8.00000000E-01  1.87311370E+01  2.82539436E+00
  6.40121692E-01  1.61277759E-01  1.87311370E+01  2.82539436E+00  6.40121692E-01
  1.61277759E-01  1.87311370E+01  2.82539436E+00  6.40121692E-01  1.61277759E-01
  1.87311370E+01  2.82539436E+00  6.40121692E-01  1.61277759E-01  1.87311370E+01
  2.82539436E+00  6.40121692E-01  1.61277759E-01
Contraction coefficients                   R   N=         108
  1.81961690E-03  1.39160796E-02  6.84053245E-02  2.33185760E-01  4.71267439E-01
  3.56618546E-01 -1.08506975E-01 -1.46451658E-01  1.12868858E+00  1.00000000E+00
  1.00000000E+00  1.83107443E-03  1.39501722E-02  6.84450781E-02  2.32714336E-01
  4.70192898E-01  3.58520853E-01 -1.10777550E-01 -1.48026263E-01  1.13076702E+00
  1.00000000E+00  1.00000000E+00  1.83473713E-03  1.40373228E-02  6.88426223E-02
  2.32184443E-01  4.67941348E-01  3.62311985E-01 -1.19332420E-01 -1.60854152E-01
  1.14345644E+00  1.00000000E+00  1.00000000E+00  1.83473713E-03  1.40373228E-02
  6.88426223E-02  2.32184443E-01  4.67941348E-01  3.62311985E-01 -1.19332420E-01
 -1.60854152E-01  1.14345644E+00  1.00000000E+00  1.00000000E+00  1.83473713E-03
  1.40373228E-02  6.88426223E-02  2.32184443E-01  4.67941348E-01  3.62311985E-01
 -1.19332420E-01 -1.60854152E-01  1.14345644E+00  1.00000000E+00  1.00000000E+00
  1.83473713E-03  1.40373228E-02  6.88426223E-02  2.32184443E-01  4.67941348E-01
  3.62311985E-01 -1.19332420E-01 -1.60854152E-01  1.14345644E+00  1.00000000E+00
  1.00000000E+00  1.83473713E-03  1.40373228E-02  6.88426223E-02  2.32184443E-01
  4.67941348E-01  3.62311985E-01 -1.19332420E-01 -1.60854152E-01  1.14345644E+00
  1.00000000E+00  1.00000000E+00  1.83473713E-03  1.40373228E-02  6.88426223E-02
  2.32184443E-01  4.67941348E-01  3.62311985E-01 -1.19332420E-01 -1.60854152E-01
  1.14345644E+00  1.00000000E+00  1.00000000E+00  3.34946043E-02  2.34726953E-01
  8.13757326E-01  1.00000000E+00  3.34946043E-02  2.34726953E-01  8.13757326E-01
  1.00000000E+00  3.34946043E-02  2.34726953E-01  8.13757326E-01  1.00000000E+00
  3.34946043E-02  2.34726953E-01  8.13757326E-01  1.00000000E+00  3.34946043E-02
  2.34726953E-01  8.13757326E-01  1.00000000E+00
P(S=P) Contraction coefficients            R   N=         108
  0.00000000E+00  0.00000000E+00  0.00000000E+00  0.00000000E+00  0.00000000E+00
  0.00000000E+00  7.16287242E-02  3.45912103E-01  7.22469956E-01  1.00000000E+00
  0.00000000E+00  0.00000000E+00  0.00000000E+00  0.00000000E+00  0.00000000E+00
  0.00000000E+00  0.00000000E+00  7.08742682E-02  3.39752839E-01  7.27158577E-01
  1.00000000E+00  0.00000000E+00  0.00000000E+00  0.00000000E+00  0.00000000E+00
  0.00000000E+00  0.00000000E+00  0.00000000E+00  6.89990666E-02  3.16423961E-01
  7.44308291E-01  1.00000000E+00  0.00000000E+00  0.00000000E+00  0.00000000E+00
  0.00000000E+00  0.00000000E+00  0.00000000E+00  0.00000000E+00  6.89990666E-02
  3.16423961E-01  7.44308291E-01  1.00000000E+00  0.00000000E+00  0.00000000E+00
  0.00000000E+00  0.00000000E+00  0.00000000E+00  0.00000000E+00  0.00000000E+00
  6.89990666E-02  3.16423961E-01  7.44308291E-01  1.00000000E+00  0.00000000E+00
  0.00000000E+00  0.00000000E+00  0.00000000E+00  0.00000000E+00  0.00000000E+00
  0.00000000E+00  6.89990666E-02  3.16423961E-01  7.44308291E-01  1.00000000E+00
  0.00000000E+00  0.00000000E+00  0.00000000E+00  0.00000000E+00  0.00000000E+00
  0.00000000E+00  0.00000000E+00  6.89990666E-02  3.16423961E-01  7.44308291E-01
  1.00000000E+00  0.00000000E+00  0.00000000E+00  0.00000000E+00  0.00000000E+00
  0.00000000E+00  0.00000000E+00  0.00000000E+00  6.89990666E-02  3.16423961E-01
  7.44308291E-01  1.00000000E+00  0.00000000E+00  0.00000000E+00  0.00000000E+00
  0.00000000E+00  0.00000000E+00  0.00000000E+00  0.00000000E+00  0.00000000E+00
  0.00000000E+00  0.00000000E+00  0.00000000E+00  0.00000000E+00  0.00000000E+00
  0.00000000E+00  0.00000000E+00  0.00000000E+00  0.00000000E+00  0.00000000E+00
  0.00000000E+00  0.00000000E+00  0.00000000E+00
Coordinates of each shell                  R   N=         126
 -5.18706728E+00  2.77435871E-02 -2.56739645E-04 -5.18706728E+00  2.77435871E-02
 -2.56739645E-04 -5.18706728E+00  2.77435871E-02 -2.56739645E-04 -5.18706728E+00
  2.77435871E-02 -2.56739645E-04  5.20251596E+00 -1.85900066E-01  2.68042683E-04
  5.20251596E+00 -1.85900066E-01  2.68042683E-04  5.20251596E+00 -1.85900066E-01
  2.68042683E-04  5.20251596E+00 -1.85900066E-01  2.68042683E-04  2.60886363E+00
 -2.65649252E-02  1.24741955E-04  2.60886363E+00 -2.65649252E-02  1.24741955E-04
  2.60886363E+00 -2.65649252E-02  1.24741955E-04  2.60886363E+00 -2.65649252E-02
  1.24741955E-04  1.27525062E+00 -2.30820242E+00  1.23850792E-05  1.27525062E+00
 -2.30820242E+00  1.23850792E-05  1.27525062E+00 -2.30820242E+00  1.23850792E-05
  1.27525062E+00 -2.30820242E+00  1.23850792E-05  1.30848991E+00  2.27216937E+00
  1.23965256E-04  1.30848991E+00  2.27216937E+00  1.23965256E-04  1.30848991E+00
  2.27216937E+00  1.23965256E-04  1.30848991E+00  2.27216937E+00  1.23965256E-04
 -1.35696292E+00 -2.29384597E+00 -1.20244428E-04 -1.35696292E+00 -2.29384597E+00
 -1.20244428E-04 -1.35696292E+00 -2.29384597E+00 -1.20244428E-04 -1.35696292E+00
 -2.29384597E+00 -1.20244428E-04 -1.33105702E+00  2.29734350E+00 -1.79153971E-05
 -1.33105702E+00  2.29734350E+00 -1.79153971E-05 -1.33105702E+00  2.29734350E+00
 -1.79153971E-05 -1.33105702E+00  2.29734350E+00 -1.79153971E-05 -2.61807124E+00
  1.23054700E-02 -1.27113099E-04 -2.61807124E+00  1.23054700E-02 -1.27113099E-04
 -2.61807124E+00  1.23054700E-02 -1.27113099E-04 -2.61807124E+00  1.23054700E-02
 -1.27113099E-04  2.32641933E+00 -4.07075568E+00  1.51836133E-05  2.32641933E+00
 -4.07075568E+00  1.51836133E-05  2.34312930E+00  4.05081821E+00  2.19061266E-04
  2.34312930E+00  4.05081821E+00  2.19061266E-04 -2.43434757E+00 -4.03989362E+00
 -2.10194959E-04 -2.43434757E+00 -4.03989362E+00 -2.10194959E-04 -2.38245851E+00
  4.05900739E+00 -2.47554877E-05 -2.38245851E+00  4.05900739E+00 -2.47554877E-05
  5.89165748E+00  1.51910185E+00  1.92104700E-04  5.89165748E+00  1.51910185E+00
  1.92104700E-04
Constraint Structure                       R   N=          39
 -5.18706728E+00  2.77435871E-02 -2.56739645E-04  5.20251596E+00 -1.85900066E-01
  2.68042683E-04  2.60886363E+00 -2.65649252E-02  1.24741955E-04  1.27525062E+00
 -2.30820242E+00  1.23850792E-05  1.30848991E+00  2.27216937E+00  1.23965256E-04
 -1.35696292E+00 -2.29384597E+00 -1.20244428E-04 -1.33105702E+00  2.29734350E+00
 -1.79153971E-05 -2.61807124E+00  1.23054700E-02 -1.27113099E-04  2.32641933E+00
 -4.07075568E+00  1.51836133E-05  2.34312930E+00  4.05081821E+00  2.19061266E-04
 -2.43434757E+00 -4.03989362E+00 -2.10194959E-04 -2.38245851E+00  4.05900739E+00
 -2.47554877E-05  5.89165748E+00  1.51910185E+00  1.92104700E-04
Num ILSW                                   I              100
ILSW                                       I   N=         100
           0           1           0           1           2           0
           0           0           0           0           0          -1
           0           0           0           0           0           0
           0           0           0           0           1           0
           1           0           0           0           0           0
           0           0      100000           0          -1           0
           0           0           0           0           0           0
           0           0           0           1           1           0
           0           0           1           0           0           0
           0           0           4          40           0           0
           0           0           0           0           0           0
           0           0           0           0           0           0
           0           0           0           0           0           0
           0           0           0           0           0           0
           0           0           0           0           0           0
           0           0           0           0           0           0
           0           0           0           0
Num RLSW                                   I               40
RLSW                                       R   N=          40
  1.00000000E+00  1.00000000E+00  1.00000000E+00  1.00000000E+00  1.00000000E+00
  0.00000000E+00  0.00000000E+00  1.00000000E+00  0.00000000E+00  0.00000000E+00
  0.00000000E+00  0.00000000E+00  1.00000000E+00  0.00000000E+00  0.00000000E+00
  0.00000000E+00  0.00000000E+00  1.00000000E+00  0.00000000E+00  0.00000000E+00
  0.00000000E+00  0.00000000E+00  1.00000000E+00  0.00000000E+00  0.00000000E+00
  0.00000000E+00  0.00000000E+00  1.00000000E+00  0.00000000E+00  0.00000000E+00
  0.00000000E+00  0.00000000E+00  0.00000000E+00  0.00000000E+00  0.00000000E+00
  0.00000000E+00  0.00000000E+00  0.00000000E+00  1.00000000E+00  1.00000000E+00
MxBond                                     I                3
NBond                                      I   N=          13
           1           2           3           3           3           3
           3           3           1           1           1           1
           1
IBond                                      I   N=          39
           8           0           0           3          13           0
           2           4           5           3           6           9
           3           7          10           4           8          11
           5           8          12           1           6           7
           4           0           0           5           0           0
           6           0           0           7           0           0
           2           0           0
RBond                                      R   N=          39
  1.00000000E+00  0.00000000E+00  0.00000000E+00  1.50000000E+00  1.00000000E+00
  0.00000000E+00  1.50000000E+00  1.50000000E+00  1.50000000E+00  1.50000000E+00
  1.50000000E+00  1.00000000E+00  1.50000000E+00  1.50000000E+00  1.00000000E+00
  1.50000000E+00  1.50000000E+00  1.00000000E+00  1.50000000E+00  1.50000000E+00
  1.00000000E+00  1.00000000E+00  1.50000000E+00  1.50000000E+00  1.00000000E+00
  0.00000000E+00  0.00000000E+00  1.00000000E+00  0.00000000E+00  0.00000000E+00
  1.00000000E+00  0.00000000E+00  0.00000000E+00  1.00000000E+00  0.00000000E+00
  0.00000000E+00  1.00000000E+00  0.00000000E+00  0.00000000E+00
Virial Ratio                               R      2.002435138198687E+00
SCF Energy                                 R     -4.044040105283618E+02
MP2 Energy                                 R     -4.055083186329986E+02
Total Energy                               R     -4.055083186329986E+02
Post-SCF wavefunction norm                 R      1.650008080741830E+00
RMS Force                                  R      1.353718315980125E-06
RMS Density                                R      2.891177425114054E-09
External E-field                           R   N=          35
  0.00000000E+00  0.00000000E+00  0.00000000E+00  0.00000000E+00  0.00000000E+00
  0.00000000E+00  0.00000000E+00  0.00000000E+00  0.00000000E+00  0.00000000E+00
  0.00000000E+00  0.00000000E+00  0.00000000E+00  0.00000000E+00  0.00000000E+00
  0.00000000E+00  0.00000000E+00  0.00000000E+00  0.00000000E+00  0.00000000E+00
  0.00000000E+00  0.00000000E+00  0.00000000E+00  0.00000000E+00  0.00000000E+00
  0.00000000E+00  0.00000000E+00  0.00000000E+00  0.00000000E+00  0.00000000E+00
  0.00000000E+00  0.00000000E+00  0.00000000E+00  0.00000000E+00  0.00000000E+00
IOpCl                                      I                0
IROHF                                      I                0
Alpha Orbital Energies                     R   N=         130
 -2.63008813E+01 -2.06007484E+01 -1.13225231E+01 -1.13109430E+01 -1.12539579E+01
 -1.12523165E+01 -1.12519577E+01 -1.12458166E+01 -1.60708347E+00 -1.40271468E+00
 -1.15826236E+00 -1.03467240E+00 -1.00907366E+00 -8.66930306E-01 -8.33764771E-01
 -7.41551638E-01 -7.32547570E-01 -6.96228994E-01 -6.76893014E-01 -6.37607932E-01
 -6.20259222E-01 -6.05492903E-01 -5.89648860E-01 -5.76175170E-01 -5.52839889E-01
 -5.05424820E-01 -4.84346258E-01 -3.54248392E-01 -3.15021601E-01  1.23068311E-01
  1.59549122E-01  2.09781063E-01  2.33559119E-01  2.84130184E-01  3.06635901E-01
  3.32824150E-01  3.67015045E-01  3.67925217E-01  4.09415455E-01  4.62643528E-01
  5.15514307E-01  5.23266017E-01  5.51754586E-01  6.95561273E-01  7.08021182E-01
  7.29942190E-01  7.32321077E-01  7.78833564E-01  7.95676922E-01  8.13787631E-01
  8.20516767E-01  8.22682677E-01  8.39414699E-01  8.61153160E-01  8.93471210E-01
  9.05175880E-01  9.06993139E-01  9.87387021E-01  9.98930610E-01  1.05031612E+00
  1.09388167E+00  1.11159148E+00  1.13953187E+00  1.14926586E+00  1.16264157E+00
  1.16794586E+00  1.21322724E+00  1.22136315E+00  1.23229647E+00  1.28295067E+00
  1.37613613E+00  1.39699592E+00  1.41956078E+00  1.44646908E+00  1.47821618E+00
  1.52589025E+00  1.54358572E+00  1.61907175E+00  1.62876884E+00  1.66353217E+00
  1.69819913E+00  1.71102537E+00  1.73373063E+00  1.76945327E+00  1.78655912E+00
  1.91485659E+00  1.98866198E+00  2.02068502E+00  2.05699838E+00  2.11484515E+00
  2.13195259E+00  2.13696530E+00  2.18219530E+00  2.21277473E+00  2.22690723E+00
  2.26082412E+00  2.27558606E+00  2.31394860E+00  2.37007627E+00  2.37921170E+00
  2.42580265E+00  2.45239815E+00  2.50022568E+00  2.55614271E+00  2.61329215E+00
  2.61602035E+00  2.64266393E+00  2.72495111E+00  2.79253414E+00  2.82627202E+00
  2.87408837E+00  2.92003068E+00  2.96767899E+00  2.99270900E+00  3.03674302E+00
  3.08579315E+00  3.15663905E+00  3.27063340E+00  3.30295250E+00  3.46506634E+00
  3.54684267E+00  3.78910203E+00  4.34804057E+00  4.49720212E+00  4.52458396E+00
  4.55967192E+00  4.73706625E+00  4.82415704E+00  5.07394142E+00  5.71752344E+00
Alpha MO coefficients                      R   N=       16900
  9.94431360E-01  1.77870058E-02  9.16592178E-04 -4.91685048E-06  4.63475773E-08
  8.04789785E-03 -6.66000472E-04  3.09808447E-06 -3.32471845E-08 -5.04875237E-03
 -4.50835455E-03 -4.53035214E-03  3.54430337E-06 -3.01286120E-08  7.38862933E-10
  6.25645879E-07  2.20320200E-06 -9.29073979E-07 -1.63634958E-06 -9.81063093E-11
 -2.80918508E-05  3.93073233E-06  1.00059366E-05  5.13773928E-10  4.57207550E-06
  7.39828800E-07  1.10796486E-06 -2.51262709E-08  7.10508760E-13 -2.41922596E-10
  4.20320893E-06  2.98020518E-05  6.09182787E-06  1.66752409E-07  4.13395632E-10
 -4.76844058E-04  2.07650550E-04 -2.54132006E-05  7.86893234E-09 -3.46442314E-06
 -1.25837056E-05  7.85735741E-06 -9.79597181E-08 -4.90258256E-10 -6.06614573E-10
 -2.91304227E-06 -2.28011660E-05 -9.81040527E-06 -8.38570291E-06 -7.39121752E-10
  2.00748368E-04 -3.74506645E-05  2.75407643E-04  4.67596696E-09  2.03431018E-05
  4.93010448E-06 -6.60916519E-06  8.56612733E-06  1.89827180E-09  5.88000815E-10
 -3.13210616E-06 -2.44255045E-05 -9.79550258E-06  8.75613360E-06 -3.56159050E-10
  2.24943487E-04 -1.75676208E-05 -2.95068991E-04 -8.37233320E-09  2.03850469E-05
  5.42819007E-06 -6.92167291E-06 -9.36574300E-06  1.57595131E-09  2.90919648E-11
  5.94119725E-06  1.08392448E-04  8.18469393E-06 -9.96883330E-06  1.19211627E-10
 -3.93194612E-04  9.15168289E-05 -3.56898384E-04 -3.46853029E-09 -7.33941772E-05
 -5.65700045E-05  5.84552705E-06  4.64819155E-05 -3.55522871E-09  5.70267509E-10
  5.99921748E-06  1.09005541E-04  8.89614088E-06  1.02647939E-05  4.73751463E-10
 -3.94359137E-04  1.07972937E-04  3.67901475E-04  1.38139378E-08 -7.46817354E-05
 -5.61646912E-05  5.77933613E-06 -4.64359726E-05 -5.65760275E-09 -3.66847610E-09
 -1.70945043E-05  2.09384927E-04 -5.51169380E-04  3.72298872E-06 -2.77955625E-08
  7.18335824E-04  2.49791452E-04  7.20960650E-06  1.04902815E-08  3.44825719E-04
  3.24900628E-05 -7.41670119E-05 -1.90577896E-06  2.42370059E-08  2.58134036E-09
  1.83996906E-05  8.00087260E-05  1.77309474E-05  8.23194582E-05  1.89977734E-05
 -1.12860999E-04  1.85939696E-05 -1.14857029E-04 -2.32516922E-06 -1.28518591E-05
  8.04916567E-07  3.85177205E-06 -2.97017149E-08 -5.18956979E-06  2.94232523E-11
 -1.32497450E-05  6.98653534E-07  2.36145113E-05 -8.69631841E-12  3.88383397E-06
  2.37613717E-06  3.56721878E-06  4.81274367E-06 -1.81664108E-12  2.37897545E-10
  9.94643935E-01  2.11752928E-02 -7.22237775E-04  1.13267498E-03 -1.06713534E-07
  4.03012206E-03  2.55729513E-04 -7.01129078E-04  4.34369592E-08 -4.16189075E-03
 -4.11061737E-03 -3.89243248E-03 -3.07613148E-05 -1.13011714E-08  1.66271869E-08
 -1.26144768E-05  3.37481196E-04  3.32856479E-04 -6.12444285E-05  1.97615594E-08
  1.56010673E-04 -1.75353530E-04  9.51791257E-04 -8.36561175E-09 -6.04126052E-05
 -4.00500521E-06 -7.26630521E-05 -2.08137375E-05 -1.28013091E-09  1.15433650E-09
 -8.24814417E-06 -1.60849437E-06  1.45820035E-05  5.51592036E-06  1.45836572E-09
  8.11928033E-04 -1.04040861E-04  1.89637535E-04  3.12550757E-09 -4.81260049E-05
 -2.14410119E-05 -2.61700430E-05 -3.24157083E-05 -2.05211665E-09 -3.99456565E-10
  8.96757868E-06  9.32930762E-05 -4.56931571E-05  2.23767579E-05 -1.74931379E-09
 -9.70347563E-04 -1.06418301E-04  4.06636544E-04  1.38455166E-08 -8.06717233E-05
 -6.13704912E-06  3.36692550E-06  4.90596550E-05 -3.59926810E-09  4.88745973E-10
  6.95626458E-06  3.64574522E-05 -3.09997558E-06  4.40054863E-06 -5.01003533E-10
 -3.83308215E-04 -1.63950115E-04 -1.11922536E-04 -1.12936143E-08  4.06427863E-06
  7.14796903E-06  1.42744369E-05 -1.30046936E-05 -9.25637415E-10 -7.25486444E-10
 -5.82125047E-06 -3.28117700E-05  2.05666831E-05  1.36622034E-05  1.24116834E-09
  3.05197394E-04  9.08347013E-05 -2.32881661E-04 -2.35433812E-09  2.82709501E-05
 -6.38982793E-06 -1.31559348E-05  1.16363537E-05  2.55627980E-09  4.56824730E-10
  1.26196377E-06  1.10191611E-05 -1.35387310E-06 -1.36553392E-05 -8.58811033E-10
 -1.04501327E-04 -3.37675339E-05 -9.71725909E-05 -1.72204340E-09 -6.43382119E-07
 -9.96659506E-06  3.90127718E-06 -3.78952966E-06 -2.78483934E-10 -4.48839431E-10
  2.68027785E-05 -5.33461971E-05 -5.76680231E-06 -1.47648470E-05  1.98972195E-06
 -3.91815782E-05  1.33211653E-05  6.60877806E-05  4.46101752E-04 -2.34903866E-04
  2.41650771E-04  2.34013735E-03  4.89927193E-04 -3.09038711E-06  2.66176919E-08
 -7.53652776E-03 -2.77067702E-03  1.85882078E-05 -1.47766010E-07  3.12206231E-05
  1.59361532E-03  1.72165262E-03  1.13586818E-05 -9.98771735E-08 -2.72967788E-09
 -4.15930875E-05 -1.94862744E-04  1.38095273E-05 -5.91305847E-08  2.09531150E-09
  1.34800257E-03 -3.36603960E-04  2.53923438E-05 -2.57248454E-08 -8.89661099E-05
 -1.16898177E-04 -1.10959031E-04 -2.32720826E-06  2.60985008E-09 -9.76959946E-10
 -1.07329410E-03 -3.33114515E-04  4.31882815E-05 -1.27974493E-06  1.01399636E-09
  4.00051643E-03 -3.07642392E-03  1.64346640E-04 -1.42333830E-07 -8.15433626E-05
 -5.64799212E-06 -1.18616385E-04  1.78943381E-06 -8.05624604E-11  2.85559755E-09
  4.21818352E-05  6.17869362E-05  5.76483514E-05 -2.97577447E-05  1.14866166E-09
 -5.32124699E-03  1.80315467E-03 -2.15726232E-03  4.85200565E-08  1.19317341E-04
  4.21549111E-05  1.85265320E-05 -3.27267147E-05  3.71040096E-09  1.04026737E-09
  4.39033938E-05  6.73592186E-05  5.77018273E-05  2.94075948E-05  2.04807448E-09
 -5.45946950E-03  1.71436873E-03  2.21118313E-03  1.60153692E-07  1.19127360E-04
  4.04438386E-05  2.02078221E-05  3.45370191E-05  4.88345262E-09 -1.13556034E-09
  8.17632626E-03 -2.01718152E-04 -1.13690133E-05 -1.31361839E-04 -4.43554866E-09
  9.38058411E-03  2.34964757E-03  4.92984592E-03  2.29571502E-07 -4.42613566E-04
 -2.80734976E-04 -2.16535966E-04  1.35095803E-04 -8.07122981E-09  5.65695205E-09
  8.56276571E-03 -1.99857916E-04 -8.23648211E-06  1.33628487E-04  2.11416454E-09
  9.38409688E-03  2.23498217E-03 -5.02060006E-03  5.65639094E-09 -4.46785450E-04
 -2.74173601E-04 -2.15947263E-04 -1.28830460E-04 -1.33590216E-08 -9.38229365E-09
  9.95811206E-01  2.70453468E-02 -1.63001776E-03  1.04669719E-05 -8.98119574E-08
 -1.58175811E-02 -8.10165659E-03  1.66996778E-05 -3.77523271E-07 -5.07159686E-04
 -1.22263465E-03 -2.02795363E-03 -2.74023175E-06  9.02780895E-08  2.08078758E-08
 -6.92884264E-05 -4.54064518E-04 -6.23184205E-05 -4.49970281E-04  1.24072590E-04
  1.36280002E-03  1.26600452E-04  1.37363202E-03 -2.12116014E-05  5.45916945E-05
 -6.41705993E-05 -3.59739434E-04 -1.16926988E-05  1.29833055E-06 -1.58780625E-09
  1.42982016E-03  1.39618166E-04 -9.73440343E-06  1.06778541E-08 -2.39533245E-04
 -2.40574752E-04 -2.32744739E-04 -1.74510592E-06  1.91737067E-10 -2.70338262E-10
  5.13419701E-05  1.23758059E-03 -2.16097610E-04  1.29214322E-05 -1.63196765E-08
 -5.52952856E-03  2.71687558E-03 -1.37618437E-04  1.77116395E-07 -5.50357501E-04
  6.28899363E-04  8.43766003E-04  1.67454410E-05 -9.17641398E-08  4.38711837E-09
  9.95754674E-01  2.72322359E-02  9.47325095E-04 -4.16757127E-07  6.36031858E-08
 -1.57442694E-02  9.28558324E-03 -6.86622874E-04  4.12955851E-07 -8.32383110E-04
 -1.30418605E-03 -2.12685851E-03 -8.87648555E-05  8.26574576E-08  1.40043104E-08
  8.57412969E-03 -2.11151461E-04  7.61770464E-06 -1.25732988E-04 -2.50445022E-09
  9.52275442E-03 -2.43448648E-03  5.15748346E-03 -9.46155974E-10 -4.40963191E-04
 -2.74595794E-04 -2.38499505E-04 -1.40853326E-04 -1.15722434E-08 -9.20555411E-09
  9.63026336E-03 -1.98845673E-04  1.02693741E-05  1.59633886E-04  6.62697573E-09
  1.02070008E-02 -2.15221299E-03 -5.52529904E-03 -2.59113308E-07 -4.26913568E-04
 -3.29829679E-04 -2.39914585E-04  1.49199255E-04 -3.24653677E-09  5.28162560E-09
  7.29377966E-05  7.64154531E-05 -7.16443745E-05 -3.12065815E-05 -2.28189656E-09