
    -----------------------------------------------------------------------
          Psi4: An Open-Source Ab Initio Electronic Structure Package
                               Psi4 1.4a3.dev225 

                         Git: Rev {master} 7105e37 


    D. G. A. Smith, L. A. Burns, A. C. Simmonett, R. M. Parrish,
    M. C. Schieber, R. Galvelis, P. Kraus, H. Kruse, R. Di Remigio,
    A. Alenaizan, A. M. James, S. Lehtola, J. P. Misiewicz, M. Scheurer,
    R. A. Shaw, J. B. Schriber, Y. Xie, Z. L. Glick, D. A. Sirianni,
    J. S. O'Brien, J. M. Waldrop, A. Kumar, E. G. Hohenstein,
    B. P. Pritchard, B. R. Brooks, H. F. Schaefer III, A. Yu. Sokolov,
    K. Patkowski, A. E. DePrince III, U. Bozkaya, R. A. King,
    F. A. Evangelista, J. M. Turney, T. D. Crawford, C. D. Sherrill,
    J. Chem. Phys. 152(18) 184108 (2020). https://doi.org/10.1063/5.0006002

                            Additional Code Authors
    E. T. Seidl, C. L. Janssen, E. F. Valeev, M. L. Leininger,
    J. F. Gonthier, R. M. Richard, H. R. McAlexander, M. Saitow, X. Wang,
    P. Verma, and M. H. Lechner

             Previous Authors, Complete List of Code Contributors,
                       and Citations for Specific Modules
    https://github.com/psi4/psi4/blob/master/codemeta.json
    https://github.com/psi4/psi4/graphs/contributors
    http://psicode.org/psi4manual/master/introduction.html#citing-psifour

    -----------------------------------------------------------------------


    Psi4 started on: Saturday, 20 March 2021 09:36AM

    Process ID: 79468
    Host:       c446-102.stampede2.tacc.utexas.edu
    PSIDATADIR: /home1/07844/xy3866/miniconda3/envs/p4env/share/psi4
    Memory:     500.0 MiB
    Threads:    32
    
  ==> Input File <==

--------------------------------------------------------------------------
#psi4
#
memory 32 gb

molecule  {
0 1
  S        0.2011420    -0.7740460    -0.0125590
  O       -1.2094190     1.4662670    -0.0184260
  C        1.4537980     0.5412620     0.0354980
  C        2.8478080    -0.0717200    -0.0067890
  C       -1.2582631     0.2936566    -0.0197563
  C       -2.5578740    -0.5297180     0.0165720
  H        1.2827490     1.2035910    -0.8153790
  H        1.3032950     1.1268910     0.9448060
  H        3.0193930    -0.7314540     0.8473820
  H        3.0002020    -0.6488010    -0.9221550
  H        3.5981220     0.7231720     0.0226780
  H       -2.8743340    -0.6368580     1.0585370
  H       -2.4550100    -1.5249000    -0.4208200
  H       -3.3176630     0.0418070    -0.5195010
units angstrom
no_reorient  #important for SAPT in psi4, default
symmetry c1  #important for SAPT in psi4, default
}

set PROPERTIES_ORIGIN ["COM"]
properties('MP2/aug-cc-pvtz', properties = ['dipole'])
--------------------------------------------------------------------------

  Memory set to  29.802 GiB by Python driver.
    SCF Algorithm Type (re)set to DF.

*** tstart() called on c446-102.stampede2.tacc.utexas.edu
*** at Sat Mar 20 09:36:56 2021

   => Loading Basis Set <=

    Name: AUG-CC-PVTZ
    Role: ORBITAL
    Keyword: BASIS
    atoms 1    entry S          line   906 file /home1/07844/xy3866/miniconda3/envs/p4env/share/psi4/basis/aug-cc-pvtz.gbs 
    atoms 2    entry O          line   331 file /home1/07844/xy3866/miniconda3/envs/p4env/share/psi4/basis/aug-cc-pvtz.gbs 
    atoms 3-6  entry C          line   239 file /home1/07844/xy3866/miniconda3/envs/p4env/share/psi4/basis/aug-cc-pvtz.gbs 
    atoms 7-14 entry H          line    40 file /home1/07844/xy3866/miniconda3/envs/p4env/share/psi4/basis/aug-cc-pvtz.gbs 


         ---------------------------------------------------------
                                   SCF
               by Justin Turney, Rob Parrish, Andy Simmonett
                          and Daniel G. A. Smith
                              RHF Reference
                       32 Threads,  30517 MiB Core
         ---------------------------------------------------------

  ==> Geometry <==

    Molecular point group: c1
    Full point group: C1

    Geometry (in Angstrom), charge = 0, multiplicity = 1:

       Center              X                  Y                   Z               Mass       
    ------------   -----------------  -----------------  -----------------  -----------------
         S            0.234819100164    -0.784203519861    -0.010704864301    31.972071174400
         O           -1.175741899836     1.456109480139    -0.016571864301    15.994914619570
         C            1.487475100164     0.531104480139     0.037352135699    12.000000000000
         C            2.881485100164    -0.081877519861    -0.004934864301    12.000000000000
         C           -1.224585999836     0.283499080139    -0.017902164301    12.000000000000
         C           -2.524196899836    -0.539875519861     0.018426135699    12.000000000000
         H            1.316426100164     1.193433480139    -0.813524864301     1.007825032230
         H            1.336972100164     1.116733480139     0.946660135699     1.007825032230
         H            3.053070100164    -0.741611519861     0.849236135699     1.007825032230
         H            3.033879100164    -0.658958519861    -0.920300864301     1.007825032230
         H            3.631799100164     0.713014480139     0.024532135699     1.007825032230
         H           -2.840656899836    -0.647015519861     1.060391135699     1.007825032230
         H           -2.421332899836    -1.535057519861    -0.418965864301     1.007825032230
         H           -3.283985899836     0.031649480139    -0.517646864301     1.007825032230

  Running in c1 symmetry.

  Rotational constants: A =      0.23086  B =      0.05439  C =      0.04514 [cm^-1]
  Rotational constants: A =   6921.00665  B =   1630.56491  C =   1353.33032 [MHz]
  Nuclear repulsion =  294.196879360235357

  Charge       = 0
  Multiplicity = 1
  Electrons    = 56
  Nalpha       = 28
  Nbeta        = 28

  ==> Algorithm <==

  SCF Algorithm Type is DF.
  DIIS enabled.
  MOM disabled.
  Fractional occupation disabled.
  Guess Type is SAD.
  Energy threshold   = 1.00e-10
  Density threshold  = 1.00e-10
  Integral threshold = 1.00e-12

  ==> Primary Basis <==

  Basis Set: AUG-CC-PVTZ
    Blend: AUG-CC-PVTZ
    Number of shells: 158
    Number of basis functions: 464
    Number of Cartesian functions: 534
    Spherical Harmonics?: true
    Max angular momentum: 3

   => Loading Basis Set <=

    Name: (AUG-CC-PVTZ AUX)
    Role: JKFIT
    Keyword: DF_BASIS_SCF
    atoms 1    entry S          line   730 file /home1/07844/xy3866/miniconda3/envs/p4env/share/psi4/basis/aug-cc-pvtz-jkfit.gbs 
    atoms 2    entry O          line   286 file /home1/07844/xy3866/miniconda3/envs/p4env/share/psi4/basis/aug-cc-pvtz-jkfit.gbs 
    atoms 3-6  entry C          line   162 file /home1/07844/xy3866/miniconda3/envs/p4env/share/psi4/basis/aug-cc-pvtz-jkfit.gbs 
    atoms 7-14 entry H          line    70 file /home1/07844/xy3866/miniconda3/envs/p4env/share/psi4/basis/aug-cc-pvtz-jkfit.gbs 

  ==> Integral Setup <==

  DFHelper Memory: AOs need 1.626 GiB; user supplied 22.352 GiB. Using in-core AOs.

  ==> MemDFJK: Density-Fitted J/K Matrices <==

    J tasked:                   Yes
    K tasked:                   Yes
    wK tasked:                   No
    OpenMP threads:              32
    Memory [MiB]:             22888
    Algorithm:                 Core
    Schwarz Cutoff:           1E-12
    Mask sparsity (%):       8.1293
    Fitting Condition:        1E-10

   => Auxiliary Basis Set <=

  Basis Set: (AUG-CC-PVTZ AUX)
    Blend: AUG-CC-PVTZ-JKFIT
    Number of shells: 304
    Number of basis functions: 1034
    Number of Cartesian functions: 1275
    Spherical Harmonics?: true
    Max angular momentum: 4

  Minimum eigenvalue in the overlap matrix is 1.1796844219E-05.
  Reciprocal condition number of the overlap matrix is 7.6744287188E-07.
    Using symmetric orthogonalization.

  ==> Pre-Iterations <==

  SCF Guess: Superposition of Atomic Densities via on-the-fly atomic UHF (no occupation information).

   -------------------------
    Irrep   Nso     Nmo    
   -------------------------
     A        464     464 
   -------------------------
    Total     464     464
   -------------------------

  ==> Iterations <==

                           Total Energy        Delta E     RMS |[F,P]|

   @DF-RHF iter SAD:  -627.75082451567869   -6.27751e+02   0.00000e+00 
   @DF-RHF iter   1:  -628.40008534119988   -6.49261e-01   1.41206e-03 DIIS
   @DF-RHF iter   2:  -628.56685635421172   -1.66771e-01   8.67790e-04 DIIS
   @DF-RHF iter   3:  -628.62761608353583   -6.07597e-02   1.84804e-04 DIIS
   @DF-RHF iter   4:  -628.63247676656840   -4.86068e-03   7.14348e-05 DIIS
   @DF-RHF iter   5:  -628.63347297585062   -9.96209e-04   1.64562e-05 DIIS
   @DF-RHF iter   6:  -628.63358056304253   -1.07587e-04   7.59688e-06 DIIS
   @DF-RHF iter   7:  -628.63360398492557   -2.34219e-05   3.10140e-06 DIIS
   @DF-RHF iter   8:  -628.63360809687151   -4.11195e-06   9.26478e-07 DIIS
   @DF-RHF iter   9:  -628.63360837614118   -2.79270e-07   2.57521e-07 DIIS
   @DF-RHF iter  10:  -628.63360839219774   -1.60566e-08   7.54098e-08 DIIS
   @DF-RHF iter  11:  -628.63360839373718   -1.53943e-09   2.60107e-08 DIIS
   @DF-RHF iter  12:  -628.63360839390771   -1.70530e-10   8.50351e-09 DIIS
   @DF-RHF iter  13:  -628.63360839392760   -1.98952e-11   2.81906e-09 DIIS
   @DF-RHF iter  14:  -628.63360839393056   -2.95586e-12   1.09214e-09 DIIS
   @DF-RHF iter  15:  -628.63360839393090   -3.41061e-13   3.59282e-10 DIIS
   @DF-RHF iter  16:  -628.63360839393124   -3.41061e-13   1.55985e-10 DIIS
   @DF-RHF iter  17:  -628.63360839393056    6.82121e-13   6.65904e-11 DIIS
  Energy and wave function converged.


  ==> Post-Iterations <==

    Orbital Energies [Eh]
    ---------------------

    Doubly Occupied:                                                      

       1A    -91.963099     2A    -20.561608     3A    -11.362081  
       4A    -11.260672     5A    -11.244908     6A    -11.229655  
       7A     -8.964730     8A     -6.645846     9A     -6.644740  
      10A     -6.644072    11A     -1.428403    12A     -1.082527  
      13A     -1.023007    14A     -0.952576    15A     -0.831625  
      16A     -0.734714    17A     -0.660304    18A     -0.641826  
      19A     -0.635725    20A     -0.611396    21A     -0.574886  
      22A     -0.558751    23A     -0.534749    24A     -0.522386  
      25A     -0.509315    26A     -0.458952    27A     -0.401152  
      28A     -0.367138  

    Virtual:                                                              

      29A      0.029572    30A      0.032488    31A      0.040842  
      32A      0.042659    33A      0.053478    34A      0.054424  
      35A      0.057018    36A      0.068897    37A      0.089236  
      38A      0.098901    39A      0.099916    40A      0.111777  
      41A      0.117296    42A      0.123583    43A      0.129105  
      44A      0.131425    45A      0.131987    46A      0.139401  
      47A      0.144080    48A      0.145419    49A      0.150624  
      50A      0.155676    51A      0.157849    52A      0.167815  
      53A      0.177365    54A      0.192888    55A      0.206414  
      56A      0.216884    57A      0.218107    58A      0.225183  
      59A      0.226146    60A      0.232845    61A      0.237065  
      62A      0.243137    63A      0.253867    64A      0.275112  
      65A      0.280585    66A      0.282437    67A      0.290376  
      68A      0.299962    69A      0.302771    70A      0.307623  
      71A      0.317447    72A      0.322485    73A      0.335958  
      74A      0.342382    75A      0.345642    76A      0.351451  
      77A      0.353501    78A      0.357385    79A      0.365420  
      80A      0.369991    81A      0.372288    82A      0.379339  
      83A      0.389208    84A      0.396463    85A      0.402656  
      86A      0.406625    87A      0.413617    88A      0.419066  
      89A      0.422855    90A      0.426923    91A      0.431587  
      92A      0.436796    93A      0.440759    94A      0.445490  
      95A      0.452432    96A      0.462142    97A      0.463957  
      98A      0.465681    99A      0.473858   100A      0.479101  
     101A      0.484145   102A      0.489383   103A      0.498418  
     104A      0.503146   105A      0.511822   106A      0.513034  
     107A      0.519246   108A      0.528815   109A      0.535773  
     110A      0.538625   111A      0.548868   112A      0.559675  
     113A      0.570436   114A      0.574158   115A      0.596408  
     116A      0.602326   117A      0.615456   118A      0.627253  
     119A      0.638396   120A      0.641010   121A      0.660386  
     122A      0.676423   123A      0.729139   124A      0.742938  
     125A      0.747286   126A      0.755053   127A      0.757700  
     128A      0.776484   129A      0.784457   130A      0.794637  
     131A      0.797832   132A      0.803060   133A      0.816270  
     134A      0.817394   135A      0.819950   136A      0.831574  
     137A      0.835733   138A      0.849552   139A      0.853233  
     140A      0.862105   141A      0.866867   142A      0.873563  
     143A      0.880474   144A      0.887321   145A      0.892184  
     146A      0.899394   147A      0.905240   148A      0.911982  
     149A      0.913827   150A      0.927357   151A      0.929709  
     152A      0.939592   153A      0.947403   154A      0.955323  
     155A      0.961538   156A      0.964610   157A      0.976985  
     158A      0.985680   159A      0.990218   160A      0.996732  
     161A      1.004943   162A      1.009593   163A      1.019257  
     164A      1.031390   165A      1.034335   166A      1.042255  
     167A      1.049561   168A      1.055421   169A      1.065484  
     170A      1.071463   171A      1.091998   172A      1.096457  
     173A      1.103292   174A      1.121054   175A      1.122675  
     176A      1.127957   177A      1.134840   178A      1.145947  
     179A      1.151028   180A      1.153503   181A      1.159837  
     182A      1.170455   183A      1.182782   184A      1.198047  
     185A      1.210136   186A      1.218490   187A      1.233789  
     188A      1.241578   189A      1.248729   190A      1.255138  
     191A      1.261157   192A      1.266414   193A      1.275685  
     194A      1.283948   195A      1.305853   196A      1.316325  
     197A      1.328086   198A      1.336626   199A      1.342885  
     200A      1.369624   201A      1.371698   202A      1.390138  
     203A      1.394743   204A      1.400412   205A      1.413580  
     206A      1.427695   207A      1.441339   208A      1.453079  
     209A      1.471008   210A      1.488024   211A      1.500810  
     212A      1.506801   213A      1.530409   214A      1.535198  
     215A      1.562727   216A      1.571775   217A      1.583927  
     218A      1.597346   219A      1.609203   220A      1.622449  
     221A      1.629579   222A      1.634104   223A      1.641409  
     224A      1.649436   225A      1.661647   226A      1.675273  
     227A      1.682237   228A      1.684565   229A      1.701653  
     230A      1.702836   231A      1.705014   232A      1.716302  
     233A      1.728082   234A      1.743261   235A      1.752381  
     236A      1.766938   237A      1.774609   238A      1.801961  
     239A      1.807072   240A      1.811766   241A      1.824410  
     242A      1.840273   243A      1.855486   244A      1.858003  
     245A      1.878594   246A      1.884246   247A      1.890074  
     248A      1.908842   249A      1.911070   250A      1.927364  
     251A      1.945730   252A      1.958237   253A      1.972468  
     254A      1.990904   255A      1.996368   256A      2.019961  
     257A      2.041046   258A      2.047345   259A      2.060413  
     260A      2.083292   261A      2.097014   262A      2.114350  
     263A      2.141318   264A      2.156082   265A      2.165562  
     266A      2.182108   267A      2.215633   268A      2.218932  
     269A      2.233349   270A      2.259330   271A      2.263354  
     272A      2.277722   273A      2.284162   274A      2.304847  
     275A      2.322963   276A      2.353223   277A      2.364058  
     278A      2.386518   279A      2.396001   280A      2.420478  
     281A      2.439476   282A      2.449837   283A      2.496676  
     284A      2.513700   285A      2.520884   286A      2.523385  
     287A      2.577287   288A      2.585796   289A      2.594568  
     290A      2.612633   291A      2.625896   292A      2.676199  
     293A      2.686455   294A      2.728684   295A      2.732530  
     296A      2.743953   297A      2.759282   298A      2.814682  
     299A      2.840935   300A      2.861032   301A      2.898578  
     302A      2.932522   303A      2.952233   304A      2.959698  
     305A      2.997520   306A      3.011531   307A      3.027500  
     308A      3.115110   309A      3.146659   310A      3.203120  
     311A      3.208895   312A      3.280457   313A      3.292280  
     314A      3.354877   315A      3.385644   316A      3.414681  
     317A      3.428058   318A      3.445694   319A      3.470387  
     320A      3.499055   321A      3.527053   322A      3.558363  
     323A      3.565491   324A      3.581479   325A      3.607282  
     326A      3.623029   327A      3.624964   328A      3.640436  
     329A      3.655543   330A      3.668757   331A      3.675816  
     332A      3.690779   333A      3.716757   334A      3.721795  
     335A      3.741468   336A      3.751101   337A      3.789243  
     338A      3.796267   339A      3.807590   340A      3.817488  
     341A      3.833988   342A      3.843685   343A      3.878395  
     344A      3.887892   345A      3.901552   346A      3.916538  
     347A      3.926094   348A      3.940565   349A      3.949441  
     350A      3.963465   351A      3.978115   352A      3.990667  
     353A      3.994537   354A      4.024949   355A      4.049973  
     356A      4.079326   357A      4.091340   358A      4.109081  
     359A      4.115539   360A      4.139560   361A      4.145674  
     362A      4.152264   363A      4.178229   364A      4.203057  
     365A      4.205288   366A      4.223058   367A      4.235511  
     368A      4.261965   369A      4.286601   370A      4.307199  
     371A      4.335261   372A      4.348239   373A      4.381517  
     374A      4.404911   375A      4.419512   376A      4.446561  
     377A      4.467245   378A      4.491328   379A      4.531000  
     380A      4.546733   381A      4.562889   382A      4.623092  
     383A      4.631772   384A      4.646127   385A      4.660288  
     386A      4.706114   387A      4.725435   388A      4.770503  
     389A      4.784347   390A      4.809988   391A      4.823530  
     392A      4.827898   393A      4.831971   394A      4.843345  
     395A      4.853632   396A      4.887720   397A      4.906309  
     398A      4.953722   399A      4.969606   400A      4.979958  
     401A      5.032807   402A      5.071273   403A      5.089747  
     404A      5.097732   405A      5.113188   406A      5.133356  
     407A      5.143284   408A      5.165366   409A      5.183029  
     410A      5.232196   411A      5.283205   412A      5.288307  
     413A      5.325541   414A      5.341236   415A      5.348900  
     416A      5.378128   417A      5.397396   418A      5.422804  
     419A      5.441469   420A      5.512318   421A      5.546256  
     422A      5.576126   423A      5.602846   424A      5.628778  
     425A      5.666150   426A      5.672756   427A      5.747229  
     428A      5.755062   429A      5.793148   430A      5.860715  
     431A      5.975217   432A      5.995822   433A      6.017700  
     434A      6.040863   435A      6.108636   436A      6.121996  
     437A      6.143391   438A      6.173916   439A      6.204867  
     440A      6.252767   441A      6.364477   442A      6.690815  
     443A      6.704409   444A      6.725940   445A      6.758699  
     446A      6.769689   447A      6.811240   448A      6.819594  
     449A      7.010573   450A      7.072171   451A      7.217015  
     452A      7.377386   453A      7.397940   454A      7.468486  
     455A      7.593039   456A      7.648835   457A      7.839975  
     458A      7.938836   459A      8.098060   460A     15.777688  
     461A     16.383367   462A     17.232518   463A     18.172297  
     464A     18.745167  

    Final Occupation by Irrep:
              A 
    DOCC [    28 ]

  @DF-RHF Final Energy:  -628.63360839393056

   => Energetics <=

    Nuclear Repulsion Energy =            294.1968793602353571
    One-Electron Energy =               -1447.5592844020652592
    Two-Electron Energy =                 524.7287966478992303
    Total Energy =                       -628.6336083939305581

Computation Completed

*** tstop() called on c446-102.stampede2.tacc.utexas.edu at Sat Mar 20 09:37:16 2021
Module time:
	user time   =     295.18 seconds =       4.92 minutes
	system time =      22.52 seconds =       0.38 minutes
	total time  =         20 seconds =       0.33 minutes
Total time:
	user time   =     295.18 seconds =       4.92 minutes
	system time =      22.52 seconds =       0.38 minutes
	total time  =         20 seconds =       0.33 minutes
   => Loading Basis Set <=

    Name: (AUG-CC-PVTZ AUX)
    Role: RIFIT
    Keyword: DF_BASIS_MP2
    atoms 1    entry S          line   666 file /home1/07844/xy3866/miniconda3/envs/p4env/share/psi4/basis/aug-cc-pvtz-ri.gbs 
    atoms 2    entry O          line   264 file /home1/07844/xy3866/miniconda3/envs/p4env/share/psi4/basis/aug-cc-pvtz-ri.gbs 
    atoms 3-6  entry C          line   148 file /home1/07844/xy3866/miniconda3/envs/p4env/share/psi4/basis/aug-cc-pvtz-ri.gbs 
    atoms 7-14 entry H          line    30 file /home1/07844/xy3866/miniconda3/envs/p4env/share/psi4/basis/aug-cc-pvtz-ri.gbs 


*** tstart() called on c446-102.stampede2.tacc.utexas.edu
*** at Sat Mar 20 09:37:17 2021


  //>>>>>>>>>>>>>>>>>>>>>>>>>>>>>>>>>>>//
  //               DFMP2               //
  //<<<<<<<<<<<<<<<<<<<<<<<<<<<<<<<<<<<//

	 --------------------------------------------------------
	                          DF-MP2                         
	      2nd-Order Density-Fitted Moller-Plesset Theory     
	              RMP2 Wavefunction,  32 Threads             
	                                                         
	        Rob Parrish, Justin Turney, Andy Simmonett,      
	           Ed Hohenstein, and C. David Sherrill          
	 --------------------------------------------------------

   => Auxiliary Basis Set <=

  Basis Set: (AUG-CC-PVTZ AUX)
    Blend: AUG-CC-PVTZ-RI
    Number of shells: 289
    Number of basis functions: 1045
    Number of Cartesian functions: 1311
    Spherical Harmonics?: true
    Max angular momentum: 4

	 --------------------------------------------------------
	                 NBF =   464, NAUX =  1045
	 --------------------------------------------------------
	   CLASS    FOCC     OCC    AOCC    AVIR     VIR    FVIR
	   PAIRS       0      28      28     436     436       0
	 --------------------------------------------------------

  DFHelper Memory: AOs need 1.672 GiB; user supplied 22.352 GiB. Using in-core AOs.


         ------------------------------------------------------------
                                     CPHF                           
                                  Rob Parrish                       
         ------------------------------------------------------------

  ==> Geometry <==

    Molecular point group: c1
    Full point group: C1

    Geometry (in Angstrom), charge = 0, multiplicity = 1:

       Center              X                  Y                   Z               Mass       
    ------------   -----------------  -----------------  -----------------  -----------------
         S            0.234819100164    -0.784203519861    -0.010704864301    31.972071174400
         O           -1.175741899836     1.456109480139    -0.016571864301    15.994914619570
         C            1.487475100164     0.531104480139     0.037352135699    12.000000000000
         C            2.881485100164    -0.081877519861    -0.004934864301    12.000000000000
         C           -1.224585999836     0.283499080139    -0.017902164301    12.000000000000
         C           -2.524196899836    -0.539875519861     0.018426135699    12.000000000000
         H            1.316426100164     1.193433480139    -0.813524864301     1.007825032230
         H            1.336972100164     1.116733480139     0.946660135699     1.007825032230
         H            3.053070100164    -0.741611519861     0.849236135699     1.007825032230
         H            3.033879100164    -0.658958519861    -0.920300864301     1.007825032230
         H            3.631799100164     0.713014480139     0.024532135699     1.007825032230
         H           -2.840656899836    -0.647015519861     1.060391135699     1.007825032230
         H           -2.421332899836    -1.535057519861    -0.418965864301     1.007825032230
         H           -3.283985899836     0.031649480139    -0.517646864301     1.007825032230

  Nuclear repulsion =  294.196879360235357
  Reference energy  = -628.633608393930558

  ==> Basis Set <==

  Basis Set: AUG-CC-PVTZ
    Blend: AUG-CC-PVTZ
    Number of shells: 158
    Number of basis functions: 464
    Number of Cartesian functions: 534
    Spherical Harmonics?: true
    Max angular momentum: 3

  ==> CGRSolver (by Rob Parrish) <==

   Number of roots    =         1
   Preconditioning    =    JACOBI
   Convergence cutoff =     1E-06
   Maximum iterations =       100

  ==> CPHFRHamiltonian (by Rob Parrish) <== 

  ==> MemDFJK: Density-Fitted J/K Matrices <==

    J tasked:                   Yes
    K tasked:                   Yes
    wK tasked:                   No
    OpenMP threads:              32
    Memory [MiB]:             22888
    Algorithm:                 Core
    Schwarz Cutoff:           1E-12
    Mask sparsity (%):       5.3610
    Fitting Condition:        1E-10

   => Auxiliary Basis Set <=

  Basis Set: (AUG-CC-PVTZ AUX)
    Blend: AUG-CC-PVTZ-JKFIT
    Number of shells: 304
    Number of basis functions: 1034
    Number of Cartesian functions: 1275
    Spherical Harmonics?: true
    Max angular momentum: 4

  ==> CPHF Iterations <==

  => Iterations <=

             Iter  Converged  Remaining    Residual
  CGR           1          0          1   1.310E-01
  CGR           2          0          1   3.867E-02
  CGR           3          0          1   1.660E-02
  CGR           4          0          1   5.418E-03
  CGR           5          0          1   1.943E-03
  CGR           6          0          1   6.985E-04
  CGR           7          0          1   1.993E-04
  CGR           8          0          1   8.693E-05
  CGR           9          0          1   2.499E-05
  CGR          10          0          1   8.369E-06
  CGR          11          0          1   3.058E-06
  CGR          12          0          1   1.119E-06
  CGR          13          1          0   5.225E-07

    CGRSolver converged.

	-----------------------------------------------------------
	 ==================> DF-MP2 Energies <==================== 
	-----------------------------------------------------------
	 Reference Energy          =    -628.6336083939305581 [Eh]
	 Singles Energy            =      -0.0000000000000000 [Eh]
	 Same-Spin Energy          =      -0.2895316612475185 [Eh]
	 Opposite-Spin Energy      =      -0.9509436973996734 [Eh]
	 Correlation Energy        =      -1.2404753586471919 [Eh]
	 Total Energy              =    -629.8740837525778034 [Eh]
	-----------------------------------------------------------
	 ================> DF-SCS-MP2 Energies <================== 
	-----------------------------------------------------------
	 SCS Same-Spin Scale       =       0.3333333333333333 [-]
	 SCS Opposite-Spin Scale   =       1.2000000000000000 [-]
	 SCS Same-Spin Energy      =      -0.0965105537491728 [Eh]
	 SCS Opposite-Spin Energy  =      -1.1411324368796081 [Eh]
	 SCS Correlation Energy    =      -1.2376429906287809 [Eh]
	 SCS Total Energy          =    -629.8712513845592866 [Eh]
	-----------------------------------------------------------



Properties will be evaluated at   0.000000,  -0.000000,  -0.000000 [a0]

Properties computed using the MP2 density matrix

  Nuclear Dipole Moment: [e a0]
     X:     3.5875      Y:    -0.5085      Z:     0.1969

  Electronic Dipole Moment: [e a0]
     X:    -3.4590      Y:     0.1424      Z:    -0.1599

  Dipole Moment: [e a0]
     X:     0.1284      Y:    -0.3662      Z:     0.0369     Total:     0.3898

  Dipole Moment: [D]
     X:     0.3264      Y:    -0.9307      Z:     0.0939     Total:     0.9907


*** tstop() called on c446-102.stampede2.tacc.utexas.edu at Sat Mar 20 09:39:17 2021
Module time:
	user time   =     733.20 seconds =      12.22 minutes
	system time =      24.00 seconds =       0.40 minutes
	total time  =        120 seconds =       2.00 minutes
Total time:
	user time   =    1029.11 seconds =      17.15 minutes
	system time =      46.55 seconds =       0.78 minutes
	total time  =        141 seconds =       2.35 minutes

    Psi4 stopped on: Saturday, 20 March 2021 09:39AM
    Psi4 wall time for execution: 0:02:21.78

*** Psi4 exiting successfully. Buy a developer a beer!
