
    -----------------------------------------------------------------------
          Psi4: An Open-Source Ab Initio Electronic Structure Package
                               Psi4 1.3.2 release

                         Git: Rev {HEAD} ecbda83 


    R. M. Parrish, L. A. Burns, D. G. A. Smith, A. C. Simmonett,
    A. E. DePrince III, E. G. Hohenstein, U. Bozkaya, A. Yu. Sokolov,
    R. Di Remigio, R. M. Richard, J. F. Gonthier, A. M. James,
    H. R. McAlexander, A. Kumar, M. Saitow, X. Wang, B. P. Pritchard,
    P. Verma, H. F. Schaefer III, K. Patkowski, R. A. King, E. F. Valeev,
    F. A. Evangelista, J. M. Turney, T. D. Crawford, and C. D. Sherrill,
    J. Chem. Theory Comput. 13(7) pp 3185--3197 (2017).
    (doi: 10.1021/acs.jctc.7b00174)


                         Additional Contributions by
    P. Kraus, H. Kruse, M. H. Lechner, M. C. Schieber, R. A. Shaw,
    A. Alenaizan, R. Galvelis, Z. L. Glick, S. Lehtola, and J. P. Misiewicz

    -----------------------------------------------------------------------


    Psi4 started on: Tuesday, 02 February 2021 03:11PM

    Process ID: 997799
    Host:       node56.bme.utexas.edu
    PSIDATADIR: /home/xy3866/psi4conda/share/psi4
    Memory:     500.0 MiB
    Threads:    8
    
  ==> Input File <==

--------------------------------------------------------------------------
#psi4
#
memory 32 gb

molecule  {
0 1
  S        0.1547568    -0.7199232    -0.1174574
  O       -1.2094190     1.4662670    -0.0184260
  C        1.4537980     0.5412620     0.0354980
  C        2.8478080    -0.0717200    -0.0067890
  C       -1.2603440     0.2437000    -0.0198130
  C       -2.5578740    -0.5297180     0.0165720
  H        1.2827490     1.2035910    -0.8153790
  H        1.3032950     1.1268910     0.9448060
  H        3.0193930    -0.7314540     0.8473820
  H        3.0002020    -0.6488010    -0.9221550
  H        3.5981220     0.7231720     0.0226780
  H       -2.8743340    -0.6368580     1.0585370
  H       -2.4550100    -1.5249000    -0.4208200
  H       -3.3176630     0.0418070    -0.5195010
units angstrom
no_reorient  #important for SAPT in psi4, default
symmetry c1  #important for SAPT in psi4, default
}

set PROPERTIES_ORIGIN ["COM"]
properties('MP2/aug-cc-pvtz', properties = ['dipole'])
--------------------------------------------------------------------------

  Memory set to  29.802 GiB by Python driver.
    SCF Algorithm Type (re)set to DF.

*** tstart() called on node56.bme.utexas.edu
*** at Tue Feb  2 15:11:19 2021

   => Loading Basis Set <=

    Name: AUG-CC-PVTZ
    Role: ORBITAL
    Keyword: BASIS
    atoms 1    entry S          line   902 file /home/xy3866/psi4conda/share/psi4/basis/aug-cc-pvtz.gbs 
    atoms 2    entry O          line   327 file /home/xy3866/psi4conda/share/psi4/basis/aug-cc-pvtz.gbs 
    atoms 3-6  entry C          line   235 file /home/xy3866/psi4conda/share/psi4/basis/aug-cc-pvtz.gbs 
    atoms 7-14 entry H          line    36 file /home/xy3866/psi4conda/share/psi4/basis/aug-cc-pvtz.gbs 


         ---------------------------------------------------------
                                   SCF
               by Justin Turney, Rob Parrish, Andy Simmonett
                          and Daniel G. A. Smith
                              RHF Reference
                        8 Threads,  30517 MiB Core
         ---------------------------------------------------------

  ==> Geometry <==

    Molecular point group: c1
    Full point group: C1

    Geometry (in Angstrom), charge = 0, multiplicity = 1:

       Center              X                  Y                   Z               Mass       
    ------------   -----------------  -----------------  -----------------  -----------------
         S            0.202929792852    -0.740952038845    -0.083357634589    31.972071174400
         O           -1.161246007148     1.445238161155     0.015673765411    15.994914619570
         C            1.501970992852     0.520233161155     0.069597765411    12.000000000000
         C            2.895980992852    -0.092748838845     0.027310765411    12.000000000000
         C           -1.212171007148     0.222671161155     0.014286765411    12.000000000000
         C           -2.509701007148    -0.550746838845     0.050671765411    12.000000000000
         H            1.330921992852     1.182562161155    -0.781279234589     1.007825032230
         H            1.351467992852     1.105862161155     0.978905765411     1.007825032230
         H            3.067565992852    -0.752482838845     0.881481765411     1.007825032230
         H            3.048374992852    -0.669829838845    -0.888055234589     1.007825032230
         H            3.646294992852     0.702143161155     0.056777765411     1.007825032230
         H           -2.826161007148    -0.657886838845     1.092636765411     1.007825032230
         H           -2.406837007148    -1.545928838845    -0.386720234589     1.007825032230
         H           -3.269490007148     0.020778161155    -0.485401234589     1.007825032230

  Running in c1 symmetry.

  Rotational constants: A =      0.23906  B =      0.05448  C =      0.04556 [cm^-1]
  Rotational constants: A =   7166.91229  B =   1633.16334  C =   1365.88470 [MHz]
  Nuclear repulsion =  295.918078567980160

  Charge       = 0
  Multiplicity = 1
  Electrons    = 56
  Nalpha       = 28
  Nbeta        = 28

  ==> Algorithm <==

  SCF Algorithm Type is DF.
  DIIS enabled.
  MOM disabled.
  Fractional occupation disabled.
  Guess Type is SAD.
  Energy threshold   = 1.00e-10
  Density threshold  = 1.00e-10
  Integral threshold = 0.00e+00

  ==> Primary Basis <==

  Basis Set: AUG-CC-PVTZ
    Blend: AUG-CC-PVTZ
    Number of shells: 158
    Number of basis function: 464
    Number of Cartesian functions: 534
    Spherical Harmonics?: true
    Max angular momentum: 3

   => Loading Basis Set <=

    Name: (AUG-CC-PVTZ AUX)
    Role: JKFIT
    Keyword: DF_BASIS_SCF
    atoms 1    entry S          line   730 file /home/xy3866/psi4conda/share/psi4/basis/aug-cc-pvtz-jkfit.gbs 
    atoms 2    entry O          line   286 file /home/xy3866/psi4conda/share/psi4/basis/aug-cc-pvtz-jkfit.gbs 
    atoms 3-6  entry C          line   162 file /home/xy3866/psi4conda/share/psi4/basis/aug-cc-pvtz-jkfit.gbs 
    atoms 7-14 entry H          line    70 file /home/xy3866/psi4conda/share/psi4/basis/aug-cc-pvtz-jkfit.gbs 

  ==> Pre-Iterations <==

   -------------------------------------------------------
    Irrep   Nso     Nmo     Nalpha   Nbeta   Ndocc  Nsocc
   -------------------------------------------------------
     A        464     464       0       0       0       0
   -------------------------------------------------------
    Total     464     464      28      28      28       0
   -------------------------------------------------------

  ==> Integral Setup <==

  DFHelper Memory: AOs need 1.634 GiB; user supplied 22.352 GiB. Using in-core AOs.

  ==> MemDFJK: Density-Fitted J/K Matrices <==

    J tasked:                   Yes
    K tasked:                   Yes
    wK tasked:                   No
    OpenMP threads:               8
    Memory [MiB]:             22888
    Algorithm:                 Core
    Schwarz Cutoff:           1E-12
    Mask sparsity (%):       5.3591
    Fitting Condition:        1E-10

   => Auxiliary Basis Set <=

  Basis Set: (AUG-CC-PVTZ AUX)
    Blend: AUG-CC-PVTZ-JKFIT
    Number of shells: 304
    Number of basis function: 1034
    Number of Cartesian functions: 1275
    Spherical Harmonics?: true
    Max angular momentum: 4

  Minimum eigenvalue in the overlap matrix is 1.0602289069E-05.
  Using Symmetric Orthogonalization.

  SCF Guess: Superposition of Atomic Densities via on-the-fly atomic UHF.

  ==> Iterations <==

                           Total Energy        Delta E     RMS |[F,P]|

   @DF-RHF iter SAD:  -627.81275756788841   -6.27813e+02   0.00000e+00 
   @DF-RHF iter   1:  -628.38658199481335   -5.73824e-01   1.43903e-03 DIIS
   @DF-RHF iter   2:  -628.55341375549608   -1.66832e-01   9.40304e-04 DIIS
   @DF-RHF iter   3:  -628.62416658100256   -7.07528e-02   1.98010e-04 DIIS
   @DF-RHF iter   4:  -628.62959867412667   -5.43209e-03   7.43870e-05 DIIS
   @DF-RHF iter   5:  -628.63072339898656   -1.12472e-03   1.76700e-05 DIIS
   @DF-RHF iter   6:  -628.63084712984494   -1.23731e-04   8.07733e-06 DIIS
   @DF-RHF iter   7:  -628.63087549198463   -2.83621e-05   3.35115e-06 DIIS
   @DF-RHF iter   8:  -628.63088021981480   -4.72783e-06   9.40643e-07 DIIS
   @DF-RHF iter   9:  -628.63088051212833   -2.92314e-07   2.87063e-07 DIIS
   @DF-RHF iter  10:  -628.63088053459410   -2.24658e-08   1.05745e-07 DIIS
   @DF-RHF iter  11:  -628.63088053780734   -3.21324e-09   3.24319e-08 DIIS
   @DF-RHF iter  12:  -628.63088053813613   -3.28782e-10   9.74915e-09 DIIS
   @DF-RHF iter  13:  -628.63088053816182   -2.56932e-11   3.86715e-09 DIIS
   @DF-RHF iter  14:  -628.63088053816830   -6.48015e-12   1.54585e-09 DIIS
   @DF-RHF iter  15:  -628.63088053816728    1.02318e-12   6.54733e-10 DIIS
   @DF-RHF iter  16:  -628.63088053816739   -1.13687e-13   3.10072e-10 DIIS
   @DF-RHF iter  17:  -628.63088053816409    3.29692e-12   1.37460e-10 DIIS
   @DF-RHF iter  18:  -628.63088053816568   -1.59162e-12   4.53363e-11 DIIS
  Energy and wave function converged.


  ==> Post-Iterations <==

    Orbital Energies [Eh]
    ---------------------

    Doubly Occupied:                                                      

       1A    -91.967995     2A    -20.546063     3A    -11.357184  
       4A    -11.264652     5A    -11.243961     6A    -11.234014  
       7A     -8.971326     8A     -6.652606     9A     -6.651390  
      10A     -6.650760    11A     -1.386382    12A     -1.092855  
      13A     -1.033401    14A     -0.964409    15A     -0.841721  
      16A     -0.728297    17A     -0.655739    18A     -0.638187  
      19A     -0.629637    20A     -0.608805    21A     -0.576980  
      22A     -0.555379    23A     -0.528438    24A     -0.524243  
      25A     -0.501210    26A     -0.460278    27A     -0.410212  
      28A     -0.370688  

    Virtual:                                                              

      29A      0.029074    30A      0.032049    31A      0.040367  
      32A      0.042674    33A      0.053256    34A      0.054578  
      35A      0.056748    36A      0.068880    37A      0.089197  
      38A      0.098951    39A      0.100305    40A      0.111909  
      41A      0.115776    42A      0.121152    43A      0.128477  
      44A      0.129677    45A      0.131932    46A      0.137401  
      47A      0.144350    48A      0.144723    49A      0.151455  
      50A      0.155394    51A      0.157061    52A      0.167337  
      53A      0.176316    54A      0.195796    55A      0.208019  
      56A      0.217884    57A      0.219565    58A      0.224992  
      59A      0.227407    60A      0.231056    61A      0.237914  
      62A      0.245072    63A      0.256830    64A      0.271505  
      65A      0.279967    66A      0.285509    67A      0.290708  
      68A      0.297805    69A      0.306481    70A      0.307267  
      71A      0.316656    72A      0.321552    73A      0.335395  
      74A      0.340859    75A      0.346056    76A      0.351777  
      77A      0.354876    78A      0.357711    79A      0.365589  
      80A      0.368682    81A      0.371208    82A      0.378937  
      83A      0.389650    84A      0.397394    85A      0.401916  
      86A      0.407439    87A      0.410699    88A      0.417595  
      89A      0.422967    90A      0.426881    91A      0.432565  
      92A      0.437126    93A      0.439148    94A      0.446915  
      95A      0.451848    96A      0.457869    97A      0.462734  
      98A      0.466682    99A      0.477828   100A      0.480032  
     101A      0.485187   102A      0.491610   103A      0.499787  
     104A      0.503170   105A      0.513541   106A      0.515804  
     107A      0.520660   108A      0.529991   109A      0.539060  
     110A      0.540974   111A      0.546391   112A      0.561666  
     113A      0.570072   114A      0.574587   115A      0.595553  
     116A      0.607496   117A      0.616777   118A      0.628497  
     119A      0.640143   120A      0.642520   121A      0.653992  
     122A      0.679863   123A      0.724367   124A      0.739101  
     125A      0.741554   126A      0.751271   127A      0.761551  
     128A      0.774807   129A      0.785313   130A      0.795161  
     131A      0.797585   132A      0.804546   133A      0.817766  
     134A      0.821594   135A      0.821960   136A      0.830372  
     137A      0.839174   138A      0.848699   139A      0.852262  
     140A      0.861413   141A      0.866221   142A      0.869324  
     143A      0.880650   144A      0.883628   145A      0.890438  
     146A      0.900536   147A      0.905468   148A      0.912628  
     149A      0.914896   150A      0.927819   151A      0.929665  
     152A      0.940655   153A      0.947295   154A      0.961529  
     155A      0.965277   156A      0.971079   157A      0.976807  
     158A      0.990866   159A      0.992983   160A      0.996018  
     161A      0.999108   162A      1.014306   163A      1.020395  
     164A      1.032415   165A      1.036578   166A      1.044991  
     167A      1.049835   168A      1.057659   169A      1.066264  
     170A      1.075590   171A      1.091800   172A      1.097010  
     173A      1.107085   174A      1.122106   175A      1.123857  
     176A      1.126679   177A      1.132012   178A      1.141334  
     179A      1.149269   180A      1.154420   181A      1.158599  
     182A      1.171658   183A      1.184049   184A      1.192494  
     185A      1.215520   186A      1.217433   187A      1.233810  
     188A      1.239966   189A      1.250283   190A      1.255113  
     191A      1.264414   192A      1.266977   193A      1.278114  
     194A      1.286551   195A      1.305484   196A      1.311955  
     197A      1.325671   198A      1.339809   199A      1.343688  
     200A      1.364631   201A      1.377426   202A      1.390706  
     203A      1.399103   204A      1.408873   205A      1.414845  
     206A      1.431676   207A      1.447054   208A      1.455704  
     209A      1.471011   210A      1.491274   211A      1.507181  
     212A      1.512043   213A      1.533530   214A      1.538328  
     215A      1.563020   216A      1.580229   217A      1.585704  
     218A      1.595462   219A      1.611498   220A      1.626332  
     221A      1.633973   222A      1.635944   223A      1.642961  
     224A      1.647905   225A      1.662458   226A      1.672298  
     227A      1.679133   228A      1.685265   229A      1.702775  
     230A      1.705981   231A      1.708657   232A      1.719776  
     233A      1.724499   234A      1.743394   235A      1.755057  
     236A      1.762668   237A      1.782239   238A      1.796736  
     239A      1.809108   240A      1.819286   241A      1.822092  
     242A      1.842089   243A      1.856146   244A      1.864074  
     245A      1.874849   246A      1.886960   247A      1.893619  
     248A      1.913487   249A      1.920275   250A      1.929096  
     251A      1.953886   252A      1.962461   253A      1.977102  
     254A      1.997194   255A      2.003908   256A      2.021041  
     257A      2.039842   258A      2.048669   259A      2.071429  
     260A      2.080574   261A      2.098436   262A      2.117468  
     263A      2.143254   264A      2.155132   265A      2.171405  
     266A      2.198034   267A      2.217010   268A      2.227513  
     269A      2.233179   270A      2.258822   271A      2.261861  
     272A      2.279242   273A      2.291861   274A      2.305614  
     275A      2.322598   276A      2.342442   277A      2.371350  
     278A      2.387734   279A      2.407011   280A      2.423000  
     281A      2.432071   282A      2.447982   283A      2.487856  
     284A      2.523290   285A      2.523686   286A      2.535245  
     287A      2.578478   288A      2.585738   289A      2.590392  
     290A      2.605142   291A      2.634310   292A      2.667255  
     293A      2.696087   294A      2.729881   295A      2.743788  
     296A      2.770559   297A      2.778763   298A      2.834601  
     299A      2.843051   300A      2.890064   301A      2.901005  
     302A      2.944282   303A      2.951301   304A      2.970173  
     305A      3.009118   306A      3.028419   307A      3.057821  
     308A      3.121178   309A      3.171353   310A      3.211722  
     311A      3.237483   312A      3.272724   313A      3.302407  
     314A      3.369127   315A      3.380556   316A      3.412650  
     317A      3.428059   318A      3.447390   319A      3.473736  
     320A      3.505409   321A      3.527370   322A      3.556676  
     323A      3.564799   324A      3.588030   325A      3.602531  
     326A      3.619847   327A      3.628194   328A      3.637554  
     329A      3.661344   330A      3.674256   331A      3.677007  
     332A      3.697013   333A      3.719037   334A      3.729025  
     335A      3.740433   336A      3.748941   337A      3.792114  
     338A      3.805010   339A      3.807687   340A      3.834478  
     341A      3.838392   342A      3.854949   343A      3.880155  
     344A      3.892516   345A      3.911621   346A      3.922462  
     347A      3.929046   348A      3.941343   349A      3.962478  
     350A      3.967087   351A      3.977748   352A      3.985079  
     353A      3.990504   354A      4.026605   355A      4.064848  
     356A      4.076741   357A      4.082172   358A      4.111318  
     359A      4.121743   360A      4.139400   361A      4.146099  
     362A      4.158988   363A      4.176705   364A      4.192966  
     365A      4.201852   366A      4.223457   367A      4.237346  
     368A      4.252687   369A      4.285180   370A      4.300908  
     371A      4.345621   372A      4.356101   373A      4.385521  
     374A      4.411274   375A      4.424985   376A      4.454450  
     377A      4.472810   378A      4.497213   379A      4.509533  
     380A      4.545455   381A      4.566760   382A      4.613428  
     383A      4.620826   384A      4.632507   385A      4.656004  
     386A      4.698286   387A      4.722439   388A      4.764416  
     389A      4.800036   390A      4.814436   391A      4.817905  
     392A      4.828397   393A      4.832009   394A      4.844030  
     395A      4.846937   396A      4.882826   397A      4.904446  
     398A      4.945067   399A      4.966172   400A      4.980850  
     401A      5.028852   402A      5.072315   403A      5.092900  
     404A      5.100396   405A      5.118868   406A      5.135266  
     407A      5.143501   408A      5.164990   409A      5.177612  
     410A      5.203575   411A      5.266292   412A      5.283833  
     413A      5.318204   414A      5.342831   415A      5.358651  
     416A      5.381380   417A      5.403560   418A      5.420621  
     419A      5.442252   420A      5.512769   421A      5.541528  
     422A      5.571506   423A      5.594726   424A      5.643859  
     425A      5.661104   426A      5.683634   427A      5.746332  
     428A      5.790412   429A      5.806904   430A      5.836798  
     431A      5.972967   432A      5.992593   433A      6.017692  
     434A      6.045473   435A      6.112809   436A      6.127748  
     437A      6.149088   438A      6.171457   439A      6.202738  
     440A      6.304520   441A      6.362864   442A      6.691876  
     443A      6.705324   444A      6.725603   445A      6.764558  
     446A      6.772800   447A      6.812190   448A      6.833936  
     449A      7.006481   450A      7.056726   451A      7.163472  
     452A      7.373214   453A      7.396145   454A      7.429056  
     455A      7.563963   456A      7.663756   457A      7.831952  
     458A      7.934892   459A      8.416934   460A     14.857664  
     461A     16.152417   462A     17.194370   463A     18.184889  
     464A     18.765484  

    Final Occupation by Irrep:
              A 
    DOCC [    28 ]

  @DF-RHF Final Energy:  -628.63088053816568

   => Energetics <=

    Nuclear Repulsion Energy =            295.9180785679801602
    One-Electron Energy =               -1451.0042964725189449
    Two-Electron Energy =                 526.4553373663732145
    Total Energy =                       -628.6308805381656839

Computation Completed

*** tstop() called on node56.bme.utexas.edu at Tue Feb  2 15:11:30 2021
Module time:
	user time   =      79.58 seconds =       1.33 minutes
	system time =       2.35 seconds =       0.04 minutes
	total time  =         11 seconds =       0.18 minutes
Total time:
	user time   =      79.58 seconds =       1.33 minutes
	system time =       2.35 seconds =       0.04 minutes
	total time  =         11 seconds =       0.18 minutes
   => Loading Basis Set <=

    Name: (AUG-CC-PVTZ AUX)
    Role: RIFIT
    Keyword: DF_BASIS_MP2
    atoms 1    entry S          line   666 file /home/xy3866/psi4conda/share/psi4/basis/aug-cc-pvtz-ri.gbs 
    atoms 2    entry O          line   264 file /home/xy3866/psi4conda/share/psi4/basis/aug-cc-pvtz-ri.gbs 
    atoms 3-6  entry C          line   148 file /home/xy3866/psi4conda/share/psi4/basis/aug-cc-pvtz-ri.gbs 
    atoms 7-14 entry H          line    30 file /home/xy3866/psi4conda/share/psi4/basis/aug-cc-pvtz-ri.gbs 


*** tstart() called on node56.bme.utexas.edu
*** at Tue Feb  2 15:11:31 2021


  //>>>>>>>>>>>>>>>>>>>>>>>>>>>>>>>>>>>//
  //               DFMP2               //
  //<<<<<<<<<<<<<<<<<<<<<<<<<<<<<<<<<<<//

	 --------------------------------------------------------
	                          DF-MP2                         
	      2nd-Order Density-Fitted Moller-Plesset Theory     
	              RMP2 Wavefunction,   8 Threads             
	                                                         
	        Rob Parrish, Justin Turney, Andy Simmonett,      
	           Ed Hohenstein, and C. David Sherrill          
	 --------------------------------------------------------

   => Auxiliary Basis Set <=

  Basis Set: (AUG-CC-PVTZ AUX)
    Blend: AUG-CC-PVTZ-RI
    Number of shells: 289
    Number of basis function: 1045
    Number of Cartesian functions: 1311
    Spherical Harmonics?: true
    Max angular momentum: 4

	 --------------------------------------------------------
	                 NBF =   464, NAUX =  1045
	 --------------------------------------------------------
	   CLASS    FOCC     OCC    AOCC    AVIR     VIR    FVIR
	   PAIRS       0      28      28     436     436       0
	 --------------------------------------------------------

  DFHelper Memory: AOs need 1.634 GiB; user supplied 22.352 GiB. Using in-core AOs.


         ------------------------------------------------------------
                                     CPHF                           
                                  Rob Parrish                       
         ------------------------------------------------------------

  ==> Geometry <==

    Molecular point group: c1
    Full point group: C1

    Geometry (in Angstrom), charge = 0, multiplicity = 1:

       Center              X                  Y                   Z               Mass       
    ------------   -----------------  -----------------  -----------------  -----------------
         S            0.202929792852    -0.740952038845    -0.083357634589    31.972071174400
         O           -1.161246007148     1.445238161155     0.015673765411    15.994914619570
         C            1.501970992852     0.520233161155     0.069597765411    12.000000000000
         C            2.895980992852    -0.092748838845     0.027310765411    12.000000000000
         C           -1.212171007148     0.222671161155     0.014286765411    12.000000000000
         C           -2.509701007148    -0.550746838845     0.050671765411    12.000000000000
         H            1.330921992852     1.182562161155    -0.781279234589     1.007825032230
         H            1.351467992852     1.105862161155     0.978905765411     1.007825032230
         H            3.067565992852    -0.752482838845     0.881481765411     1.007825032230
         H            3.048374992852    -0.669829838845    -0.888055234589     1.007825032230
         H            3.646294992852     0.702143161155     0.056777765411     1.007825032230
         H           -2.826161007148    -0.657886838845     1.092636765411     1.007825032230
         H           -2.406837007148    -1.545928838845    -0.386720234589     1.007825032230
         H           -3.269490007148     0.020778161155    -0.485401234589     1.007825032230

  Nuclear repulsion =  295.918078567980160
  Reference energy  = -628.630880538165684

  ==> Basis Set <==

  Basis Set: AUG-CC-PVTZ
    Blend: AUG-CC-PVTZ
    Number of shells: 158
    Number of basis function: 464
    Number of Cartesian functions: 534
    Spherical Harmonics?: true
    Max angular momentum: 3

  ==> CGRSolver (by Rob Parrish) <==

   Number of roots    =         1
   Preconditioning    =    JACOBI
   Convergence cutoff =     1E-06
   Maximum iterations =       100

  ==> CPHFRHamiltonian (by Rob Parrish) <== 

  ==> MemDFJK: Density-Fitted J/K Matrices <==

    J tasked:                   Yes
    K tasked:                   Yes
    wK tasked:                   No
    OpenMP threads:               8
    Memory [MiB]:             22888
    Algorithm:                 Core
    Schwarz Cutoff:           1E-12
    Mask sparsity (%):       5.3591
    Fitting Condition:        1E-10

   => Auxiliary Basis Set <=

  Basis Set: (AUG-CC-PVTZ AUX)
    Blend: AUG-CC-PVTZ-JKFIT
    Number of shells: 304
    Number of basis function: 1034
    Number of Cartesian functions: 1275
    Spherical Harmonics?: true
    Max angular momentum: 4

  ==> CPHF Iterations <==

  => Iterations <=

             Iter  Converged  Remaining    Residual
  CGR           1          0          1   1.316E-01
  CGR           2          0          1   3.989E-02
  CGR           3          0          1   1.535E-02
  CGR           4          0          1   4.661E-03
  CGR           5          0          1   1.594E-03
  CGR           6          0          1   5.737E-04
  CGR           7          0          1   1.872E-04
  CGR           8          0          1   9.459E-05
  CGR           9          0          1   2.994E-05
  CGR          10          0          1   1.144E-05
  CGR          11          0          1   4.844E-06
  CGR          12          0          1   1.945E-06
  CGR          13          1          0   7.114E-07

    CGRSolver converged.

	-----------------------------------------------------------
	 ==================> DF-MP2 Energies <==================== 
	-----------------------------------------------------------
	 Reference Energy          =    -628.6308805381656839 [Eh]
	 Singles Energy            =      -0.0000000000000000 [Eh]
	 Same-Spin Energy          =      -0.2910217532235293 [Eh]
	 Opposite-Spin Energy      =      -0.9527177574653305 [Eh]
	 Correlation Energy        =      -1.2437395106888598 [Eh]
	 Total Energy              =    -629.8746200488545810 [Eh]
	-----------------------------------------------------------
	 ================> DF-SCS-MP2 Energies <================== 
	-----------------------------------------------------------
	 SCS Same-Spin Scale       =       0.3333333333333333 [-]
	 SCS Opposite-Spin Scale   =       1.2000000000000000 [-]
	 SCS Same-Spin Energy      =      -0.0970072510745098 [Eh]
	 SCS Opposite-Spin Energy  =      -1.1432613089583965 [Eh]
	 SCS Correlation Energy    =      -1.2402685600329062 [Eh]
	 SCS Total Energy          =    -629.8711490981985435 [Eh]
	-----------------------------------------------------------



Properties will be evaluated at   0.000000,   0.000000,  -0.000000 [a0]

Properties computed using the MP2 density matrix

  Nuclear Dipole Moment: [e a0]
     X:     3.6954      Y:    -0.5889      Z:     0.4369

  Electronic Dipole Moment: [e a0]
     X:    -3.3919      Y:     0.0592      Z:    -0.3848

  Dipole Moment: [e a0]
     X:     0.3035      Y:    -0.5298      Z:     0.0522     Total:     0.6128

  Dipole Moment: [D]
     X:     0.7714      Y:    -1.3465      Z:     0.1326     Total:     1.5575


*** tstop() called on node56.bme.utexas.edu at Tue Feb  2 15:12:10 2021
Module time:
	user time   =     264.58 seconds =       4.41 minutes
	system time =       6.01 seconds =       0.10 minutes
	total time  =         39 seconds =       0.65 minutes
Total time:
	user time   =     345.33 seconds =       5.76 minutes
	system time =       8.41 seconds =       0.14 minutes
	total time  =         51 seconds =       0.85 minutes

    Psi4 stopped on: Tuesday, 02 February 2021 03:12PM
    Psi4 wall time for execution: 0:00:50.90

*** Psi4 exiting successfully. Buy a developer a beer!
