
    -----------------------------------------------------------------------
          Psi4: An Open-Source Ab Initio Electronic Structure Package
                               Psi4 1.3.2 release

                         Git: Rev {HEAD} ecbda83 


    R. M. Parrish, L. A. Burns, D. G. A. Smith, A. C. Simmonett,
    A. E. DePrince III, E. G. Hohenstein, U. Bozkaya, A. Yu. Sokolov,
    R. Di Remigio, R. M. Richard, J. F. Gonthier, A. M. James,
    H. R. McAlexander, A. Kumar, M. Saitow, X. Wang, B. P. Pritchard,
    P. Verma, H. F. Schaefer III, K. Patkowski, R. A. King, E. F. Valeev,
    F. A. Evangelista, J. M. Turney, T. D. Crawford, and C. D. Sherrill,
    J. Chem. Theory Comput. 13(7) pp 3185--3197 (2017).
    (doi: 10.1021/acs.jctc.7b00174)


                         Additional Contributions by
    P. Kraus, H. Kruse, M. H. Lechner, M. C. Schieber, R. A. Shaw,
    A. Alenaizan, R. Galvelis, Z. L. Glick, S. Lehtola, and J. P. Misiewicz

    -----------------------------------------------------------------------


    Psi4 started on: Thursday, 04 February 2021 06:57AM

    Process ID: 2533579
    Host:       node57.bme.utexas.edu
    PSIDATADIR: /home/xy3866/psi4conda/share/psi4
    Memory:     500.0 MiB
    Threads:    8
    
  ==> Input File <==

--------------------------------------------------------------------------
#psi4
#
memory 32 gb

molecule  {
0 1
  S        1.0053540    -0.0074810    -0.7736030
  S       -1.6960990    -1.1658100     0.0116150
  O        1.1433427    -1.3314452    -1.3780293
  O        1.3858060     1.2139170    -1.4782970
  N        1.8781370    -0.0233820     0.6524530
  C       -0.6861290     0.1873580    -0.3161810
  C        1.8702590     1.2384050     1.3961810
  C        1.6932100    -1.2084810     1.4940670
  C       -1.3340060     1.3908220    -0.1017950
  C       -2.6674560     1.1993540     0.3271550
  C       -2.9984720    -0.1352680     0.4414500
  H        2.0840190     2.0584320     0.7119160
  H        2.6656140     1.1849010     2.1428720
  H        0.9115380     1.4151000     1.9054530
  H        1.7293810    -2.1000160     0.8695980
  H        0.7471110    -1.1811200     2.0534300
  H        2.5234680    -1.2398400     2.2034110
  H       -0.8634200     2.3493520    -0.2940320
  H       -3.3646430     2.0039100     0.5365790
  H       -3.9505650    -0.5636820     0.7303990
units angstrom
no_reorient  #important for SAPT in psi4, default
symmetry c1  #important for SAPT in psi4, default
}

set PROPERTIES_ORIGIN ["COM"]
properties('MP2/aug-cc-pvtz', properties = ['dipole'])
--------------------------------------------------------------------------

  Memory set to  29.802 GiB by Python driver.
    SCF Algorithm Type (re)set to DF.

*** tstart() called on node57.bme.utexas.edu
*** at Thu Feb  4 06:57:22 2021

   => Loading Basis Set <=

    Name: AUG-CC-PVTZ
    Role: ORBITAL
    Keyword: BASIS
    atoms 1-2   entry S          line   902 file /home/xy3866/psi4conda/share/psi4/basis/aug-cc-pvtz.gbs 
    atoms 3-4   entry O          line   327 file /home/xy3866/psi4conda/share/psi4/basis/aug-cc-pvtz.gbs 
    atoms 5     entry N          line   281 file /home/xy3866/psi4conda/share/psi4/basis/aug-cc-pvtz.gbs 
    atoms 6-11  entry C          line   235 file /home/xy3866/psi4conda/share/psi4/basis/aug-cc-pvtz.gbs 
    atoms 12-20 entry H          line    36 file /home/xy3866/psi4conda/share/psi4/basis/aug-cc-pvtz.gbs 


         ---------------------------------------------------------
                                   SCF
               by Justin Turney, Rob Parrish, Andy Simmonett
                          and Daniel G. A. Smith
                              RHF Reference
                        8 Threads,  30517 MiB Core
         ---------------------------------------------------------

  ==> Geometry <==

    Molecular point group: c1
    Full point group: C1

    Geometry (in Angstrom), charge = 0, multiplicity = 1:

       Center              X                  Y                   Z               Mass       
    ------------   -----------------  -----------------  -----------------  -----------------
         S            1.017398234231     0.011867827315    -0.715607596752    31.972071174400
         S           -1.684054765769    -1.146461172685     0.069610403248    31.972071174400
         O            1.155386934231    -1.312096372685    -1.320033896752    15.994914619570
         O            1.397850234231     1.233265827315    -1.420301596752    15.994914619570
         N            1.890181234231    -0.004033172685     0.710448403248    14.003074004430
         C           -0.674084765769     0.206706827315    -0.258185596752    12.000000000000
         C            1.882303234231     1.257753827315     1.454176403248    12.000000000000
         C            1.705254234231    -1.189132172685     1.552062403248    12.000000000000
         C           -1.321961765769     1.410170827315    -0.043799596752    12.000000000000
         C           -2.655411765769     1.218702827315     0.385150403248    12.000000000000
         C           -2.986427765769    -0.115919172685     0.499445403248    12.000000000000
         H            2.096063234231     2.077780827315     0.769911403248     1.007825032230
         H            2.677658234231     1.204249827315     2.200867403248     1.007825032230
         H            0.923582234231     1.434448827315     1.963448403248     1.007825032230
         H            1.741425234231    -2.080667172685     0.927593403248     1.007825032230
         H            0.759155234231    -1.161771172685     2.111425403248     1.007825032230
         H            2.535512234231    -1.220491172685     2.261406403248     1.007825032230
         H           -0.851375765769     2.368700827315    -0.236036596752     1.007825032230
         H           -3.352598765769     2.023258827315     0.594574403248     1.007825032230
         H           -3.938520765769    -0.544333172685     0.788394403248     1.007825032230

  Running in c1 symmetry.

  Rotational constants: A =      0.04665  B =      0.02288  C =      0.02189 [cm^-1]
  Rotational constants: A =   1398.43333  B =    685.91482  C =    656.28592 [MHz]
  Nuclear repulsion =  892.198675315052355

  Charge       = 0
  Multiplicity = 1
  Electrons    = 100
  Nalpha       = 50
  Nbeta        = 50

  ==> Algorithm <==

  SCF Algorithm Type is DF.
  DIIS enabled.
  MOM disabled.
  Fractional occupation disabled.
  Guess Type is SAD.
  Energy threshold   = 1.00e-10
  Density threshold  = 1.00e-10
  Integral threshold = 0.00e+00

  ==> Primary Basis <==

  Basis Set: AUG-CC-PVTZ
    Blend: AUG-CC-PVTZ
    Number of shells: 239
    Number of basis function: 721
    Number of Cartesian functions: 838
    Spherical Harmonics?: true
    Max angular momentum: 3

   => Loading Basis Set <=

    Name: (AUG-CC-PVTZ AUX)
    Role: JKFIT
    Keyword: DF_BASIS_SCF
    atoms 1-2   entry S          line   730 file /home/xy3866/psi4conda/share/psi4/basis/aug-cc-pvtz-jkfit.gbs 
    atoms 3-4   entry O          line   286 file /home/xy3866/psi4conda/share/psi4/basis/aug-cc-pvtz-jkfit.gbs 
    atoms 5     entry N          line   224 file /home/xy3866/psi4conda/share/psi4/basis/aug-cc-pvtz-jkfit.gbs 
    atoms 6-11  entry C          line   162 file /home/xy3866/psi4conda/share/psi4/basis/aug-cc-pvtz-jkfit.gbs 
    atoms 12-20 entry H          line    70 file /home/xy3866/psi4conda/share/psi4/basis/aug-cc-pvtz-jkfit.gbs 

  ==> Pre-Iterations <==

   -------------------------------------------------------
    Irrep   Nso     Nmo     Nalpha   Nbeta   Ndocc  Nsocc
   -------------------------------------------------------
     A        721     721       0       0       0       0
   -------------------------------------------------------
    Total     721     721      50      50      50       0
   -------------------------------------------------------

  ==> Integral Setup <==

  DFHelper Memory: AOs need 6.182 GiB; user supplied 22.352 GiB. Using in-core AOs.

  ==> MemDFJK: Density-Fitted J/K Matrices <==

    J tasked:                   Yes
    K tasked:                   Yes
    wK tasked:                   No
    OpenMP threads:               8
    Memory [MiB]:             22888
    Algorithm:                 Disk
    Schwarz Cutoff:           1E-12
    Mask sparsity (%):       5.2451
    Fitting Condition:        1E-10

   => Auxiliary Basis Set <=

  Basis Set: (AUG-CC-PVTZ AUX)
    Blend: AUG-CC-PVTZ-JKFIT
    Number of shells: 480
    Number of basis function: 1642
    Number of Cartesian functions: 2034
    Spherical Harmonics?: true
    Max angular momentum: 4

  Minimum eigenvalue in the overlap matrix is 2.6203094775E-06.
  Using Symmetric Orthogonalization.

  SCF Guess: Superposition of Atomic Densities via on-the-fly atomic UHF.

  ==> Iterations <==

                           Total Energy        Delta E     RMS |[F,P]|

   @DF-RHF iter SAD: -1232.04207450823469   -1.23204e+03   0.00000e+00 
   @DF-RHF iter   1: -1231.36362098213476    6.78454e-01   1.28784e-03 DIIS
   @DF-RHF iter   2: -1231.60588265547062   -2.42262e-01   9.24069e-04 DIIS
   @DF-RHF iter   3: -1231.78116351888252   -1.75281e-01   1.44098e-04 DIIS
   @DF-RHF iter   4: -1231.78781233564587   -6.64882e-03   6.48037e-05 DIIS
   @DF-RHF iter   5: -1231.78924003495399   -1.42770e-03   1.67124e-05 DIIS
   @DF-RHF iter   6: -1231.78941461933437   -1.74584e-04   6.97277e-06 DIIS
   @DF-RHF iter   7: -1231.78947013009656   -5.55108e-05   3.56469e-06 DIIS
   @DF-RHF iter   8: -1231.78948467299529   -1.45429e-05   1.37755e-06 DIIS
   @DF-RHF iter   9: -1231.78948689833010   -2.22533e-06   4.80733e-07 DIIS
   @DF-RHF iter  10: -1231.78948712640135   -2.28071e-07   1.74887e-07 DIIS
   @DF-RHF iter  11: -1231.78948714663238   -2.02310e-08   8.19295e-08 DIIS
   @DF-RHF iter  12: -1231.78948715099591   -4.36353e-09   3.28606e-08 DIIS
   @DF-RHF iter  13: -1231.78948715212596   -1.13005e-09   1.17884e-08 DIIS
   @DF-RHF iter  14: -1231.78948715226556   -1.39607e-10   5.74974e-09 DIIS
   @DF-RHF iter  15: -1231.78948715231127   -4.57021e-11   2.92879e-09 DIIS
   @DF-RHF iter  16: -1231.78948715231854   -7.27596e-12   9.94069e-10 DIIS
   @DF-RHF iter  17: -1231.78948715231559    2.95586e-12   5.20377e-10 DIIS
   @DF-RHF iter  18: -1231.78948715232082   -5.22959e-12   1.59588e-10 DIIS
   @DF-RHF iter  19: -1231.78948715231991    9.09495e-13   5.22761e-11 DIIS
  Energy and wave function converged.


  ==> Post-Iterations <==

    Orbital Energies [Eh]
    ---------------------

    Doubly Occupied:                                                      

       1A    -92.207958     2A    -92.016393     3A    -20.549590  
       4A    -20.547732     5A    -15.607040     6A    -11.299142  
       7A    -11.295885     8A    -11.277421     9A    -11.272395  
      10A    -11.271334    11A    -11.264543    12A     -9.172158  
      13A     -9.015916    14A     -6.857273    15A     -6.856982  
      16A     -6.856649    17A     -6.696757    18A     -6.696227  
      19A     -6.695467    20A     -1.455316    21A     -1.338394  
      22A     -1.253457    23A     -1.201608    24A     -1.031913  
      25A     -1.017524    26A     -0.982178    27A     -0.946527  
      28A     -0.853640    29A     -0.786839    30A     -0.753696  
      31A     -0.727655    32A     -0.703419    33A     -0.661808  
      34A     -0.659107    35A     -0.628072    36A     -0.615812  
      37A     -0.588556    38A     -0.579827    39A     -0.572491  
      40A     -0.564129    41A     -0.550011    42A     -0.542258  
      43A     -0.509683    44A     -0.500965    45A     -0.496536  
      46A     -0.471908    47A     -0.468112    48A     -0.417936  
      49A     -0.372678    50A     -0.354337  

    Virtual:                                                              

      51A      0.020506    52A      0.028908    53A      0.031404  
      54A      0.042995    55A      0.045906    56A      0.048379  
      57A      0.058478    58A      0.064326    59A      0.064896  
      60A      0.070336    61A      0.081538    62A      0.086133  
      63A      0.089803    64A      0.102981    65A      0.108864  
      66A      0.109905    67A      0.110367    68A      0.114397  
      69A      0.121018    70A      0.122410    71A      0.125106  
      72A      0.131220    73A      0.132548    74A      0.137751  
      75A      0.140146    76A      0.144132    77A      0.148392  
      78A      0.149897    79A      0.154533    80A      0.163457  
      81A      0.163618    82A      0.167763    83A      0.171347  
      84A      0.176724    85A      0.181050    86A      0.188046  
      87A      0.194139    88A      0.198188    89A      0.204340  
      90A      0.210173    91A      0.215990    92A      0.219799  
      93A      0.227580    94A      0.234474    95A      0.240071  
      96A      0.246649    97A      0.252323    98A      0.255019  
      99A      0.262414   100A      0.269777   101A      0.270633  
     102A      0.276195   103A      0.277745   104A      0.285130  
     105A      0.288660   106A      0.292183   107A      0.297121  
     108A      0.301114   109A      0.304060   110A      0.306970  
     111A      0.314179   112A      0.320903   113A      0.322584  
     114A      0.324158   115A      0.327835   116A      0.333103  
     117A      0.338288   118A      0.341850   119A      0.346430  
     120A      0.351654   121A      0.352429   122A      0.357308  
     123A      0.362186   124A      0.364870   125A      0.366824  
     126A      0.369322   127A      0.372882   128A      0.381943  
     129A      0.385012   130A      0.390200   131A      0.401639  
     132A      0.407440   133A      0.411629   134A      0.416819  
     135A      0.421550   136A      0.423863   137A      0.427283  
     138A      0.429891   139A      0.437172   140A      0.441287  
     141A      0.446219   142A      0.452352   143A      0.456106  
     144A      0.458671   145A      0.463779   146A      0.464774  
     147A      0.466874   148A      0.474842   149A      0.476821  
     150A      0.479629   151A      0.486109   152A      0.489468  
     153A      0.494122   154A      0.500001   155A      0.502015  
     156A      0.506809   157A      0.514090   158A      0.520150  
     159A      0.521532   160A      0.527811   161A      0.529958  
     162A      0.537127   163A      0.541295   164A      0.546017  
     165A      0.552937   166A      0.554493   167A      0.562650  
     168A      0.569305   169A      0.574321   170A      0.580343  
     171A      0.585891   172A      0.592065   173A      0.596791  
     174A      0.599647   175A      0.604381   176A      0.609493  
     177A      0.611283   178A      0.618350   179A      0.623867  
     180A      0.625732   181A      0.632132   182A      0.637878  
     183A      0.651726   184A      0.652405   185A      0.665273  
     186A      0.666345   187A      0.670243   188A      0.681604  
     189A      0.686796   190A      0.701286   191A      0.710158  
     192A      0.714863   193A      0.718150   194A      0.734310  
     195A      0.735204   196A      0.751367   197A      0.755549  
     198A      0.760984   199A      0.767515   200A      0.782817  
     201A      0.784358   202A      0.792466   203A      0.801084  
     204A      0.804824   205A      0.809504   206A      0.813743  
     207A      0.817089   208A      0.830726   209A      0.835266  
     210A      0.837806   211A      0.842997   212A      0.849802  
     213A      0.852835   214A      0.862435   215A      0.867885  
     216A      0.873092   217A      0.879120   218A      0.881134  
     219A      0.882460   220A      0.893076   221A      0.896519  
     222A      0.906567   223A      0.915555   224A      0.919837  
     225A      0.923541   226A      0.927650   227A      0.931952  
     228A      0.939296   229A      0.942880   230A      0.946900  
     231A      0.953522   232A      0.965118   233A      0.967145  
     234A      0.971265   235A      0.978896   236A      0.981778  
     237A      0.985572   238A      0.988225   239A      0.994237  
     240A      0.998548   241A      1.002285   242A      1.008796  
     243A      1.017673   244A      1.027166   245A      1.031579  
     246A      1.034190   247A      1.039932   248A      1.047530  
     249A      1.057774   250A      1.061250   251A      1.069033  
     252A      1.073979   253A      1.077996   254A      1.084102  
     255A      1.087636   256A      1.096015   257A      1.103469  
     258A      1.110861   259A      1.111819   260A      1.118394  
     261A      1.122147   262A      1.124390   263A      1.131258  
     264A      1.135534   265A      1.140476   266A      1.145285  
     267A      1.160615   268A      1.163522   269A      1.166711  
     270A      1.169392   271A      1.175045   272A      1.182436  
     273A      1.190616   274A      1.193545   275A      1.195084  
     276A      1.199772   277A      1.209253   278A      1.212677  
     279A      1.213769   280A      1.221750   281A      1.223879  
     282A      1.231297   283A      1.240157   284A      1.244962  
     285A      1.249495   286A      1.254430   287A      1.262305  
     288A      1.267660   289A      1.278482   290A      1.282637  
     291A      1.292976   292A      1.296680   293A      1.301766  
     294A      1.318491   295A      1.319029   296A      1.325147  
     297A      1.335158   298A      1.349596   299A      1.357778  
     300A      1.362608   301A      1.372120   302A      1.376239  
     303A      1.379517   304A      1.390710   305A      1.406961  
     306A      1.413136   307A      1.421156   308A      1.424008  
     309A      1.432846   310A      1.446494   311A      1.450975  
     312A      1.461383   313A      1.467267   314A      1.475447  
     315A      1.480341   316A      1.487162   317A      1.493290  
     318A      1.496613   319A      1.507463   320A      1.512082  
     321A      1.517303   322A      1.529701   323A      1.543427  
     324A      1.551227   325A      1.557265   326A      1.561473  
     327A      1.569584   328A      1.573785   329A      1.584407  
     330A      1.589512   331A      1.601000   332A      1.609825  
     333A      1.613548   334A      1.618526   335A      1.627218  
     336A      1.632187   337A      1.645819   338A      1.652862  
     339A      1.657532   340A      1.675206   341A      1.684615  
     342A      1.685942   343A      1.695567   344A      1.699615  
     345A      1.709104   346A      1.711686   347A      1.723983  
     348A      1.735712   349A      1.738634   350A      1.742629  
     351A      1.748735   352A      1.761985   353A      1.775798  
     354A      1.782222   355A      1.787394   356A      1.792730  
     357A      1.809012   358A      1.815398   359A      1.821674  
     360A      1.824976   361A      1.832679   362A      1.841173  
     363A      1.849457   364A      1.856439   365A      1.857424  
     366A      1.877023   367A      1.885665   368A      1.895959  
     369A      1.900739   370A      1.912359   371A      1.915834  
     372A      1.929763   373A      1.935366   374A      1.942326  
     375A      1.952821   376A      1.959727   377A      1.964665  
     378A      1.977563   379A      1.987129   380A      1.992384  
     381A      2.000027   382A      2.010151   383A      2.032895  
     384A      2.037637   385A      2.043538   386A      2.051107  
     387A      2.062325   388A      2.065934   389A      2.078405  
     390A      2.094738   391A      2.100900   392A      2.102488  
     393A      2.107718   394A      2.121602   395A      2.136549  
     396A      2.151609   397A      2.167210   398A      2.173497  
     399A      2.191104   400A      2.195844   401A      2.206003  
     402A      2.215623   403A      2.219517   404A      2.231761  
     405A      2.235274   406A      2.256190   407A      2.263618  
     408A      2.273175   409A      2.279792   410A      2.297042  
     411A      2.307149   412A      2.312966   413A      2.316898  
     414A      2.334928   415A      2.339528   416A      2.341870  
     417A      2.358575   418A      2.368461   419A      2.374708  
     420A      2.383880   421A      2.401642   422A      2.416393  
     423A      2.423086   424A      2.432574   425A      2.438657  
     426A      2.453941   427A      2.468958   428A      2.475509  
     429A      2.497528   430A      2.506170   431A      2.520154  
     432A      2.521865   433A      2.536094   434A      2.550265  
     435A      2.557819   436A      2.561030   437A      2.570407  
     438A      2.579428   439A      2.592847   440A      2.597473  
     441A      2.616469   442A      2.622819   443A      2.639451  
     444A      2.650632   445A      2.652979   446A      2.679929  
     447A      2.688869   448A      2.697868   449A      2.706739  
     450A      2.713596   451A      2.746051   452A      2.762187  
     453A      2.770895   454A      2.786623   455A      2.798856  
     456A      2.809965   457A      2.818144   458A      2.839060  
     459A      2.848959   460A      2.854869   461A      2.866771  
     462A      2.888356   463A      2.899538   464A      2.911863  
     465A      2.936095   466A      2.944915   467A      2.956338  
     468A      2.979627   469A      3.001198   470A      3.027576  
     471A      3.044342   472A      3.050378   473A      3.070452  
     474A      3.087730   475A      3.106319   476A      3.118878  
     477A      3.137315   478A      3.152220   479A      3.165044  
     480A      3.174701   481A      3.202145   482A      3.239829  
     483A      3.254406   484A      3.260118   485A      3.281323  
     486A      3.304489   487A      3.323812   488A      3.333148  
     489A      3.359357   490A      3.370333   491A      3.377457  
     492A      3.386640   493A      3.414011   494A      3.418775  
     495A      3.442282   496A      3.450957   497A      3.469206  
     498A      3.480767   499A      3.491133   500A      3.511596  
     501A      3.514725   502A      3.526041   503A      3.540594  
     504A      3.543089   505A      3.560709   506A      3.562543  
     507A      3.574517   508A      3.597490   509A      3.614692  
     510A      3.629385   511A      3.634405   512A      3.653309  
     513A      3.659762   514A      3.678059   515A      3.685476  
     516A      3.703006   517A      3.717044   518A      3.727360  
     519A      3.738864   520A      3.754417   521A      3.763570  
     522A      3.770170   523A      3.774444   524A      3.790397  
     525A      3.806991   526A      3.820256   527A      3.823651  
     528A      3.832029   529A      3.839687   530A      3.856341  
     531A      3.870125   532A      3.878483   533A      3.882587  
     534A      3.885975   535A      3.899420   536A      3.914791  
     537A      3.917516   538A      3.931665   539A      3.934815  
     540A      3.948342   541A      3.955628   542A      3.978528  
     543A      3.981372   544A      3.992439   545A      4.002339  
     546A      4.005560   547A      4.011405   548A      4.029797  
     549A      4.040398   550A      4.055675   551A      4.059218  
     552A      4.074700   553A      4.086401   554A      4.094951  
     555A      4.102564   556A      4.121822   557A      4.138665  
     558A      4.145439   559A      4.174174   560A      4.183945  
     561A      4.192708   562A      4.209843   563A      4.222236  
     564A      4.227234   565A      4.231715   566A      4.251705  
     567A      4.263073   568A      4.284183   569A      4.290433  
     570A      4.297016   571A      4.306583   572A      4.320734  
     573A      4.338787   574A      4.348795   575A      4.378670  
     576A      4.388605   577A      4.390324   578A      4.409203  
     579A      4.417962   580A      4.437104   581A      4.440792  
     582A      4.461049   583A      4.466798   584A      4.475592  
     585A      4.492962   586A      4.523644   587A      4.562772  
     588A      4.568462   589A      4.572154   590A      4.598757  
     591A      4.613421   592A      4.626571   593A      4.640962  
     594A      4.674588   595A      4.687895   596A      4.701911  
     597A      4.730914   598A      4.743490   599A      4.775719  
     600A      4.778758   601A      4.783403   602A      4.788543  
     603A      4.804289   604A      4.844811   605A      4.850739  
     606A      4.879541   607A      4.891724   608A      4.915224  
     609A      4.929975   610A      4.942429   611A      4.943026  
     612A      4.953282   613A      4.974314   614A      4.997387  
     615A      5.019071   616A      5.031241   617A      5.042288  
     618A      5.056924   619A      5.072331   620A      5.093047  
     621A      5.101462   622A      5.107060   623A      5.118623  
     624A      5.129331   625A      5.135454   626A      5.146535  
     627A      5.162282   628A      5.184694   629A      5.209238  
     630A      5.230060   631A      5.236157   632A      5.260309  
     633A      5.265415   634A      5.287573   635A      5.296366  
     636A      5.355763   637A      5.362906   638A      5.377610  
     639A      5.430962   640A      5.442836   641A      5.454649  
     642A      5.473746   643A      5.514587   644A      5.528587  
     645A      5.576079   646A      5.580268   647A      5.620970  
     648A      5.638122   649A      5.648427   650A      5.652604  
     651A      5.692125   652A      5.711457   653A      5.721309  
     654A      5.747745   655A      5.779541   656A      5.793695  
     657A      5.854180   658A      5.910365   659A      5.913423  
     660A      5.922579   661A      5.962412   662A      5.991947  
     663A      6.014842   664A      6.078112   665A      6.098707  
     666A      6.147585   667A      6.152682   668A      6.171816  
     669A      6.194035   670A      6.200832   671A      6.224722  
     672A      6.294402   673A      6.338406   674A      6.437360  
     675A      6.461274   676A      6.602021   677A      6.651000  
     678A      6.694010   679A      6.732503   680A      6.742744  
     681A      6.756295   682A      6.779729   683A      6.782493  
     684A      6.798467   685A      6.809627   686A      6.839168  
     687A      6.863656   688A      6.895728   689A      6.916329  
     690A      6.926075   691A      6.968797   692A      6.989229  
     693A      6.997530   694A      7.004565   695A      7.026028  
     696A      7.076843   697A      7.081236   698A      7.110720  
     699A      7.124118   700A      7.141428   701A      7.344775  
     702A      7.370451   703A      7.400179   704A      7.467778  
     705A      7.676810   706A      7.743591   707A      7.793878  
     708A      7.823085   709A      7.843349   710A      7.899084  
     711A      8.962615   712A     13.413157   713A     13.744876  
     714A     14.225061   715A     15.611262   716A     16.273429  
     717A     16.869464   718A     17.918650   719A     18.284696  
     720A     18.816790   721A     19.006632  

    Final Occupation by Irrep:
              A 
    DOCC [    50 ]

  @DF-RHF Final Energy: -1231.78948715231991

   => Energetics <=

    Nuclear Repulsion Energy =            892.1986753150523555
    One-Electron Energy =               -3467.8498104536847677
    Two-Electron Energy =                1343.8616479863126187
    Total Energy =                      -1231.7894871523199072

Computation Completed

*** tstop() called on node57.bme.utexas.edu at Thu Feb  4 06:59:25 2021
Module time:
	user time   =     483.47 seconds =       8.06 minutes
	system time =      67.55 seconds =       1.13 minutes
	total time  =        123 seconds =       2.05 minutes
Total time:
	user time   =     483.47 seconds =       8.06 minutes
	system time =      67.55 seconds =       1.13 minutes
	total time  =        123 seconds =       2.05 minutes
   => Loading Basis Set <=

    Name: (AUG-CC-PVTZ AUX)
    Role: RIFIT
    Keyword: DF_BASIS_MP2
    atoms 1-2   entry S          line   666 file /home/xy3866/psi4conda/share/psi4/basis/aug-cc-pvtz-ri.gbs 
    atoms 3-4   entry O          line   264 file /home/xy3866/psi4conda/share/psi4/basis/aug-cc-pvtz-ri.gbs 
    atoms 5     entry N          line   206 file /home/xy3866/psi4conda/share/psi4/basis/aug-cc-pvtz-ri.gbs 
    atoms 6-11  entry C          line   148 file /home/xy3866/psi4conda/share/psi4/basis/aug-cc-pvtz-ri.gbs 
    atoms 12-20 entry H          line    30 file /home/xy3866/psi4conda/share/psi4/basis/aug-cc-pvtz-ri.gbs 


*** tstart() called on node57.bme.utexas.edu
*** at Thu Feb  4 06:59:25 2021


  //>>>>>>>>>>>>>>>>>>>>>>>>>>>>>>>>>>>//
  //               DFMP2               //
  //<<<<<<<<<<<<<<<<<<<<<<<<<<<<<<<<<<<//

	 --------------------------------------------------------
	                          DF-MP2                         
	      2nd-Order Density-Fitted Moller-Plesset Theory     
	              RMP2 Wavefunction,   8 Threads             
	                                                         
	        Rob Parrish, Justin Turney, Andy Simmonett,      
	           Ed Hohenstein, and C. David Sherrill          
	 --------------------------------------------------------

   => Auxiliary Basis Set <=

  Basis Set: (AUG-CC-PVTZ AUX)
    Blend: AUG-CC-PVTZ-RI
    Number of shells: 452
    Number of basis function: 1662
    Number of Cartesian functions: 2101
    Spherical Harmonics?: true
    Max angular momentum: 4

	 --------------------------------------------------------
	                 NBF =   721, NAUX =  1662
	 --------------------------------------------------------
	   CLASS    FOCC     OCC    AOCC    AVIR     VIR    FVIR
	   PAIRS       0      50      50     671     671       0
	 --------------------------------------------------------

  DFHelper Memory: AOs need 6.182 GiB; user supplied 22.352 GiB. Using in-core AOs.


         ------------------------------------------------------------
                                     CPHF                           
                                  Rob Parrish                       
         ------------------------------------------------------------

  ==> Geometry <==

    Molecular point group: c1
    Full point group: C1

    Geometry (in Angstrom), charge = 0, multiplicity = 1:

       Center              X                  Y                   Z               Mass       
    ------------   -----------------  -----------------  -----------------  -----------------
         S            1.017398234231     0.011867827315    -0.715607596752    31.972071174400
         S           -1.684054765769    -1.146461172685     0.069610403248    31.972071174400
         O            1.155386934231    -1.312096372685    -1.320033896752    15.994914619570
         O            1.397850234231     1.233265827315    -1.420301596752    15.994914619570
         N            1.890181234231    -0.004033172685     0.710448403248    14.003074004430
         C           -0.674084765769     0.206706827315    -0.258185596752    12.000000000000
         C            1.882303234231     1.257753827315     1.454176403248    12.000000000000
         C            1.705254234231    -1.189132172685     1.552062403248    12.000000000000
         C           -1.321961765769     1.410170827315    -0.043799596752    12.000000000000
         C           -2.655411765769     1.218702827315     0.385150403248    12.000000000000
         C           -2.986427765769    -0.115919172685     0.499445403248    12.000000000000
         H            2.096063234231     2.077780827315     0.769911403248     1.007825032230
         H            2.677658234231     1.204249827315     2.200867403248     1.007825032230
         H            0.923582234231     1.434448827315     1.963448403248     1.007825032230
         H            1.741425234231    -2.080667172685     0.927593403248     1.007825032230
         H            0.759155234231    -1.161771172685     2.111425403248     1.007825032230
         H            2.535512234231    -1.220491172685     2.261406403248     1.007825032230
         H           -0.851375765769     2.368700827315    -0.236036596752     1.007825032230
         H           -3.352598765769     2.023258827315     0.594574403248     1.007825032230
         H           -3.938520765769    -0.544333172685     0.788394403248     1.007825032230

  Nuclear repulsion =  892.198675315052355
  Reference energy  = -1231.789487152319907

  ==> Basis Set <==

  Basis Set: AUG-CC-PVTZ
    Blend: AUG-CC-PVTZ
    Number of shells: 239
    Number of basis function: 721
    Number of Cartesian functions: 838
    Spherical Harmonics?: true
    Max angular momentum: 3

  ==> CGRSolver (by Rob Parrish) <==

   Number of roots    =         1
   Preconditioning    =    JACOBI
   Convergence cutoff =     1E-06
   Maximum iterations =       100

  ==> CPHFRHamiltonian (by Rob Parrish) <== 

  ==> MemDFJK: Density-Fitted J/K Matrices <==

    J tasked:                   Yes
    K tasked:                   Yes
    wK tasked:                   No
    OpenMP threads:               8
    Memory [MiB]:             22888
    Algorithm:                 Disk
    Schwarz Cutoff:           1E-12
    Mask sparsity (%):       5.2451
    Fitting Condition:        1E-10

   => Auxiliary Basis Set <=

  Basis Set: (AUG-CC-PVTZ AUX)
    Blend: AUG-CC-PVTZ-JKFIT
    Number of shells: 480
    Number of basis function: 1642
    Number of Cartesian functions: 2034
    Spherical Harmonics?: true
    Max angular momentum: 4

  ==> CPHF Iterations <==

  => Iterations <=

             Iter  Converged  Remaining    Residual
  CGR           1          0          1   1.315E-01
  CGR           2          0          1   4.003E-02
  CGR           3          0          1   2.379E-02
  CGR           4          0          1   8.834E-03
  CGR           5          0          1   3.629E-03
  CGR           6          0          1   1.529E-03
  CGR           7          0          1   5.883E-04
  CGR           8          0          1   2.341E-04
  CGR           9          0          1   9.895E-05
  CGR          10          0          1   5.303E-05
  CGR          11          0          1   1.823E-05
  CGR          12          0          1   5.938E-06
  CGR          13          0          1   2.123E-06
  CGR          14          1          0   7.250E-07

    CGRSolver converged.

	-----------------------------------------------------------
	 ==================> DF-MP2 Energies <==================== 
	-----------------------------------------------------------
	 Reference Energy          =   -1231.7894871523199072 [Eh]
	 Singles Energy            =      -0.0000000000000000 [Eh]
	 Same-Spin Energy          =      -0.5860581720615452 [Eh]
	 Opposite-Spin Energy      =      -1.7438929932202862 [Eh]
	 Correlation Energy        =      -2.3299511652818312 [Eh]
	 Total Energy              =   -1234.1194383176016345 [Eh]
	-----------------------------------------------------------
	 ================> DF-SCS-MP2 Energies <================== 
	-----------------------------------------------------------
	 SCS Same-Spin Scale       =       0.3333333333333333 [-]
	 SCS Opposite-Spin Scale   =       1.2000000000000000 [-]
	 SCS Same-Spin Energy      =      -0.1953527240205151 [Eh]
	 SCS Opposite-Spin Energy  =      -2.0926715918643435 [Eh]
	 SCS Correlation Energy    =      -2.2880243158848588 [Eh]
	 SCS Total Energy          =   -1234.0775114682048752 [Eh]
	-----------------------------------------------------------



Properties will be evaluated at  -0.000000,  -0.000000,   0.000000 [a0]

Properties computed using the MP2 density matrix

  Nuclear Dipole Moment: [e a0]
     X:     2.4181      Y:     3.8144      Z:    10.6376

  Electronic Dipole Moment: [e a0]
     X:    -3.4405      Y:    -3.5275      Z:    -8.7385

  Dipole Moment: [e a0]
     X:    -1.0224      Y:     0.2869      Z:     1.8991     Total:     2.1759

  Dipole Moment: [D]
     X:    -2.5988      Y:     0.7293      Z:     4.8271     Total:     5.5305


*** tstop() called on node57.bme.utexas.edu at Thu Feb  4 07:04:44 2021
Module time:
	user time   =    1698.92 seconds =      28.32 minutes
	system time =     153.46 seconds =       2.56 minutes
	total time  =        319 seconds =       5.32 minutes
Total time:
	user time   =    2182.57 seconds =      36.38 minutes
	system time =     221.02 seconds =       3.68 minutes
	total time  =        442 seconds =       7.37 minutes

    Psi4 stopped on: Thursday, 04 February 2021 07:04AM
    Psi4 wall time for execution: 0:07:22.21

*** Psi4 exiting successfully. Buy a developer a beer!
