opt=Tight                                                               
Freq      RMP2-FC                                                     6-31G(d)            
Number of atoms                            I               21
Info1-9                                    I   N=           9
          30          30        1002           0           0         100
           6           2           1
Charge                                     I                0
Multiplicity                               I                1
Number of electrons                        I               84
Number of alpha electrons                  I               42
Number of beta electrons                   I               42
Number of basis functions                  I              198
Number of independent functions            I              198
Number of point charges in /Mol/           I                0
Number of translation vectors              I                0
Atomic numbers                             I   N=          21
           8           7           6           6           6           6
           6           6           6           6           6           6
           1           1           1           1           1           1
           1           1           1
Nuclear charges                            R   N=          21
  8.00000000E+00  7.00000000E+00  6.00000000E+00  6.00000000E+00  6.00000000E+00
  6.00000000E+00  6.00000000E+00  6.00000000E+00  6.00000000E+00  6.00000000E+00
  6.00000000E+00  6.00000000E+00  1.00000000E+00  1.00000000E+00  1.00000000E+00
  1.00000000E+00  1.00000000E+00  1.00000000E+00  1.00000000E+00  1.00000000E+00
  1.00000000E+00
Current cartesian coordinates              R   N=          63
 -4.17775863E+00  1.69670947E+00 -5.16522510E-01  7.89791192E-01  2.87295842E+00
  2.76216837E-01  1.65939786E-01  4.09015750E-01  5.12457805E-02  4.53509360E+00
 -9.36466416E-01 -1.17761706E-01 -2.52285972E+00 -2.03773855E-01  5.96113220E-02
  1.96696360E+00 -1.52427162E+00 -1.73549575E-01  5.18143613E+00  1.61719611E+00
  1.19305662E-01 -3.84414675E+00 -2.39502871E+00  5.47272299E-01  6.52533139E+00
 -2.96174976E+00 -2.70573927E-01  3.26827822E+00  3.42016538E+00  2.88241372E-01
 -6.44805100E+00 -1.80643429E+00  2.47666425E-01 -6.54856634E+00  6.96791987E-01
 -3.94276367E-01  1.35495519E+00 -3.47189445E+00 -4.22029071E-01  7.15235820E+00
  2.20151138E+00  1.52273641E-01 -3.04435187E+00 -4.19344681E+00  1.10179853E+00
  7.18875895E+00 -3.48456499E+00  1.61898298E+00  5.78377325E+00 -4.66522199E+00
 -1.17466021E+00  8.16249631E+00 -2.31334322E+00 -1.35245569E+00  3.73339443E+00
  5.41848430E+00  4.52413006E-01 -8.04409409E+00 -3.05934163E+00  4.92984455E-01
 -8.07027319E+00  1.99076519E+00 -8.13733142E-01
Force Field                                I                0
Int Atom Types                             I   N=          21
           0           0           0           0           0           0
           0           0           0           0           0           0
           0           0           0           0           0           0
           0           0           0
MM charges                                 R   N=          21
  0.00000000E+00  0.00000000E+00  0.00000000E+00  0.00000000E+00  0.00000000E+00
  0.00000000E+00  0.00000000E+00  0.00000000E+00  0.00000000E+00  0.00000000E+00
  0.00000000E+00  0.00000000E+00  0.00000000E+00  0.00000000E+00  0.00000000E+00
  0.00000000E+00  0.00000000E+00  0.00000000E+00  0.00000000E+00  0.00000000E+00
  0.00000000E+00
Integer atomic weights                     I   N=          21
          16          14          12          12          12          12
          12          12          12          12          12          12
           1           1           1           1           1           1
           1           1           1
Real atomic weights                        R   N=          21
  1.59949146E+01  1.40030740E+01  1.20000000E+01  1.20000000E+01  1.20000000E+01
  1.20000000E+01  1.20000000E+01  1.20000000E+01  1.20000000E+01  1.20000000E+01
  1.20000000E+01  1.20000000E+01  1.00782504E+00  1.00782504E+00  1.00782504E+00
  1.00782504E+00  1.00782504E+00  1.00782504E+00  1.00782504E+00  1.00782504E+00
  1.00782504E+00
Atom fragment info                         I   N=          21
           0           0           0           0           0           0
           0           0           0           0           0           0
           0           0           0           0           0           0
           0           0           0
Atom residue num                           I   N=          21
           0           0           0           0           0           0
           0           0           0           0           0           0
           0           0           0           0           0           0
           0           0           0
Nuclear spins                              I   N=          21
           0           2           0           0           0           0
           0           0           0           0           0           0
           1           1           1           1           1           1
           1           1           1
Nuclear ZEff                               R   N=          21
 -5.60000000E+00 -4.55000000E+00 -3.60000000E+00 -3.60000000E+00 -3.60000000E+00
 -3.60000000E+00 -3.60000000E+00 -3.60000000E+00 -3.60000000E+00 -3.60000000E+00
 -3.60000000E+00 -3.60000000E+00 -1.00000000E+00 -1.00000000E+00 -1.00000000E+00
 -1.00000000E+00 -1.00000000E+00 -1.00000000E+00 -1.00000000E+00 -1.00000000E+00
 -1.00000000E+00
Nuclear QMom                               R   N=          21
  0.00000000E+00  2.04400000E+00  0.00000000E+00  0.00000000E+00  0.00000000E+00
  0.00000000E+00  0.00000000E+00  0.00000000E+00  0.00000000E+00  0.00000000E+00
  0.00000000E+00  0.00000000E+00  0.00000000E+00  0.00000000E+00  0.00000000E+00
  0.00000000E+00  0.00000000E+00  0.00000000E+00  0.00000000E+00  0.00000000E+00
  0.00000000E+00
Nuclear GFac                               R   N=          21
  0.00000000E+00  4.03761000E-01  0.00000000E+00  0.00000000E+00  0.00000000E+00
  0.00000000E+00  0.00000000E+00  0.00000000E+00  0.00000000E+00  0.00000000E+00
  0.00000000E+00  0.00000000E+00  2.79284600E+00  2.79284600E+00  2.79284600E+00
  2.79284600E+00  2.79284600E+00  2.79284600E+00  2.79284600E+00  2.79284600E+00
  2.79284600E+00
MicOpt                                     I   N=          21
          -1          -1          -1          -1          -1          -1
          -1          -1          -1          -1          -1          -1
          -1          -1          -1          -1          -1          -1
          -1          -1          -1
Number of contracted shells                I               66
Number of primitive shells                 I              168
Pure/Cartesian d shells                    I                1
Pure/Cartesian f shells                    I                0
Highest angular momentum                   I                2
Largest degree of contraction              I                6
Shell types                                I   N=          66
           0          -1          -1           2           0          -1
          -1           2           0          -1          -1           2
           0          -1          -1           2           0          -1
          -1           2           0          -1          -1           2
           0          -1          -1           2           0          -1
          -1           2           0          -1          -1           2
           0          -1          -1           2           0          -1
          -1           2           0          -1          -1           2
           0           0           0           0           0           0
           0           0           0           0           0           0
           0           0           0           0           0           0
Number of primitives per shell             I   N=          66
           6           3           1           1           6           3
           1           1           6           3           1           1
           6           3           1           1           6           3
           1           1           6           3           1           1
           6           3           1           1           6           3
           1           1           6           3           1           1
           6           3           1           1           6           3
           1           1           6           3           1           1
           3           1           3           1           3           1
           3           1           3           1           3           1
           3           1           3           1           3           1
Shell to atom map                          I   N=          66
           1           1           1           1           2           2
           2           2           3           3           3           3
           4           4           4           4           5           5
           5           5           6           6           6           6
           7           7           7           7           8           8
           8           8           9           9           9           9
          10          10          10          10          11          11
          11          11          12          12          12          12
          13          13          14          14          15          15
          16          16          17          17          18          18
          19          19          20          20          21          21
Primitive exponents                        R   N=         168
  5.48467166E+03  8.25234946E+02  1.88046958E+02  5.29645000E+01  1.68975704E+01
  5.79963534E+00  1.55396162E+01  3.59993359E+00  1.01376175E+00  2.70005823E-01
  8.00000000E-01  4.17351146E+03  6.27457911E+02  1.42902093E+02  4.02343293E+01
  1.28202129E+01  4.39043701E+00  1.16263619E+01  2.71627981E+00  7.72218397E-01
  2.12031498E-01  8.00000000E-01  3.04752488E+03  4.57369518E+02  1.03948685E+02
  2.92101553E+01  9.28666296E+00  3.16392696E+00  7.86827235E+00  1.88128854E+00
  5.44249258E-01  1.68714478E-01  8.00000000E-01  3.04752488E+03  4.57369518E+02
  1.03948685E+02  2.92101553E+01  9.28666296E+00  3.16392696E+00  7.86827235E+00
  1.88128854E+00  5.44249258E-01  1.68714478E-01  8.00000000E-01  3.04752488E+03
  4.57369518E+02  1.03948685E+02  2.92101553E+01  9.28666296E+00  3.16392696E+00
  7.86827235E+00  1.88128854E+00  5.44249258E-01  1.68714478E-01  8.00000000E-01
  3.04752488E+03  4.57369518E+02  1.03948685E+02  2.92101553E+01  9.28666296E+00
  3.16392696E+00  7.86827235E+00  1.88128854E+00  5.44249258E-01  1.68714478E-01
  8.00000000E-01  3.04752488E+03  4.57369518E+02  1.03948685E+02  2.92101553E+01
  9.28666296E+00  3.16392696E+00  7.86827235E+00  1.88128854E+00  5.44249258E-01
  1.68714478E-01  8.00000000E-01  3.04752488E+03  4.57369518E+02  1.03948685E+02
  2.92101553E+01  9.28666296E+00  3.16392696E+00  7.86827235E+00  1.88128854E+00
  5.44249258E-01  1.68714478E-01  8.00000000E-01  3.04752488E+03  4.57369518E+02
  1.03948685E+02  2.92101553E+01  9.28666296E+00  3.16392696E+00  7.86827235E+00
  1.88128854E+00  5.44249258E-01  1.68714478E-01  8.00000000E-01  3.04752488E+03
  4.57369518E+02  1.03948685E+02  2.92101553E+01  9.28666296E+00  3.16392696E+00
  7.86827235E+00  1.88128854E+00  5.44249258E-01  1.68714478E-01  8.00000000E-01
  3.04752488E+03  4.57369518E+02  1.03948685E+02  2.92101553E+01  9.28666296E+00
  3.16392696E+00  7.86827235E+00  1.88128854E+00  5.44249258E-01  1.68714478E-01
  8.00000000E-01  3.04752488E+03  4.57369518E+02  1.03948685E+02  2.92101553E+01
  9.28666296E+00  3.16392696E+00  7.86827235E+00  1.88128854E+00  5.44249258E-01
  1.68714478E-01  8.00000000E-01  1.87311370E+01  2.82539436E+00  6.40121692E-01
  1.61277759E-01  1.87311370E+01  2.82539436E+00  6.40121692E-01  1.61277759E-01
  1.87311370E+01  2.82539436E+00  6.40121692E-01  1.61277759E-01  1.87311370E+01
  2.82539436E+00  6.40121692E-01  1.61277759E-01  1.87311370E+01  2.82539436E+00
  6.40121692E-01  1.61277759E-01  1.87311370E+01  2.82539436E+00  6.40121692E-01
  1.61277759E-01  1.87311370E+01  2.82539436E+00  6.40121692E-01  1.61277759E-01
  1.87311370E+01  2.82539436E+00  6.40121692E-01  1.61277759E-01  1.87311370E+01
  2.82539436E+00  6.40121692E-01  1.61277759E-01
Contraction coefficients                   R   N=         168
  1.83107443E-03  1.39501722E-02  6.84450781E-02  2.32714336E-01  4.70192898E-01
  3.58520853E-01 -1.10777550E-01 -1.48026263E-01  1.13076702E+00  1.00000000E+00
  1.00000000E+00  1.83477216E-03  1.39946270E-02  6.85865518E-02  2.32240873E-01
  4.69069948E-01  3.60455199E-01 -1.14961182E-01 -1.69117479E-01  1.14585195E+00
  1.00000000E+00  1.00000000E+00  1.83473713E-03  1.40373228E-02  6.88426223E-02
  2.32184443E-01  4.67941348E-01  3.62311985E-01 -1.19332420E-01 -1.60854152E-01
  1.14345644E+00  1.00000000E+00  1.00000000E+00  1.83473713E-03  1.40373228E-02
  6.88426223E-02  2.32184443E-01  4.67941348E-01  3.62311985E-01 -1.19332420E-01
 -1.60854152E-01  1.14345644E+00  1.00000000E+00  1.00000000E+00  1.83473713E-03
  1.40373228E-02  6.88426223E-02  2.32184443E-01  4.67941348E-01  3.62311985E-01
 -1.19332420E-01 -1.60854152E-01  1.14345644E+00  1.00000000E+00  1.00000000E+00
  1.83473713E-03  1.40373228E-02  6.88426223E-02  2.32184443E-01  4.67941348E-01
  3.62311985E-01 -1.19332420E-01 -1.60854152E-01  1.14345644E+00  1.00000000E+00
  1.00000000E+00  1.83473713E-03  1.40373228E-02  6.88426223E-02  2.32184443E-01
  4.67941348E-01  3.62311985E-01 -1.19332420E-01 -1.60854152E-01  1.14345644E+00
  1.00000000E+00  1.00000000E+00  1.83473713E-03  1.40373228E-02  6.88426223E-02
  2.32184443E-01  4.67941348E-01  3.62311985E-01 -1.19332420E-01 -1.60854152E-01
  1.14345644E+00  1.00000000E+00  1.00000000E+00  1.83473713E-03  1.40373228E-02
  6.88426223E-02  2.32184443E-01  4.67941348E-01  3.62311985E-01 -1.19332420E-01
 -1.60854152E-01  1.14345644E+00  1.00000000E+00  1.00000000E+00  1.83473713E-03
  1.40373228E-02  6.88426223E-02  2.32184443E-01  4.67941348E-01  3.62311985E-01
 -1.19332420E-01 -1.60854152E-01  1.14345644E+00  1.00000000E+00  1.00000000E+00
  1.83473713E-03  1.40373228E-02  6.88426223E-02  2.32184443E-01  4.67941348E-01
  3.62311985E-01 -1.19332420E-01 -1.60854152E-01  1.14345644E+00  1.00000000E+00
  1.00000000E+00  1.83473713E-03  1.40373228E-02  6.88426223E-02  2.32184443E-01
  4.67941348E-01  3.62311985E-01 -1.19332420E-01 -1.60854152E-01  1.14345644E+00
  1.00000000E+00  1.00000000E+00  3.34946043E-02  2.34726953E-01  8.13757326E-01
  1.00000000E+00  3.34946043E-02  2.34726953E-01  8.13757326E-01  1.00000000E+00
  3.34946043E-02  2.34726953E-01  8.13757326E-01  1.00000000E+00  3.34946043E-02
  2.34726953E-01  8.13757326E-01  1.00000000E+00  3.34946043E-02  2.34726953E-01
  8.13757326E-01  1.00000000E+00  3.34946043E-02  2.34726953E-01  8.13757326E-01
  1.00000000E+00  3.34946043E-02  2.34726953E-01  8.13757326E-01  1.00000000E+00
  3.34946043E-02  2.34726953E-01  8.13757326E-01  1.00000000E+00  3.34946043E-02
  2.34726953E-01  8.13757326E-01  1.00000000E+00
P(S=P) Contraction coefficients            R   N=         168
  0.00000000E+00  0.00000000E+00  0.00000000E+00  0.00000000E+00  0.00000000E+00
  0.00000000E+00  7.08742682E-02  3.39752839E-01  7.27158577E-01  1.00000000E+00
  0.00000000E+00  0.00000000E+00  0.00000000E+00  0.00000000E+00  0.00000000E+00
  0.00000000E+00  0.00000000E+00  6.75797439E-02  3.23907296E-01  7.40895140E-01
  1.00000000E+00  0.00000000E+00  0.00000000E+00  0.00000000E+00  0.00000000E+00
  0.00000000E+00  0.00000000E+00  0.00000000E+00  6.89990666E-02  3.16423961E-01
  7.44308291E-01  1.00000000E+00  0.00000000E+00  0.00000000E+00  0.00000000E+00
  0.00000000E+00  0.00000000E+00  0.00000000E+00  0.00000000E+00  6.89990666E-02
  3.16423961E-01  7.44308291E-01  1.00000000E+00  0.00000000E+00  0.00000000E+00
  0.00000000E+00  0.00000000E+00  0.00000000E+00  0.00000000E+00  0.00000000E+00
  6.89990666E-02  3.16423961E-01  7.44308291E-01  1.00000000E+00  0.00000000E+00
  0.00000000E+00  0.00000000E+00  0.00000000E+00  0.00000000E+00  0.00000000E+00
  0.00000000E+00  6.89990666E-02  3.16423961E-01  7.44308291E-01  1.00000000E+00
  0.00000000E+00  0.00000000E+00  0.00000000E+00  0.00000000E+00  0.00000000E+00
  0.00000000E+00  0.00000000E+00  6.89990666E-02  3.16423961E-01  7.44308291E-01
  1.00000000E+00  0.00000000E+00  0.00000000E+00  0.00000000E+00  0.00000000E+00
  0.00000000E+00  0.00000000E+00  0.00000000E+00  6.89990666E-02  3.16423961E-01
  7.44308291E-01  1.00000000E+00  0.00000000E+00  0.00000000E+00  0.00000000E+00
  0.00000000E+00  0.00000000E+00  0.00000000E+00  0.00000000E+00  6.89990666E-02
  3.16423961E-01  7.44308291E-01  1.00000000E+00  0.00000000E+00  0.00000000E+00
  0.00000000E+00  0.00000000E+00  0.00000000E+00  0.00000000E+00  0.00000000E+00
  6.89990666E-02  3.16423961E-01  7.44308291E-01  1.00000000E+00  0.00000000E+00
  0.00000000E+00  0.00000000E+00  0.00000000E+00  0.00000000E+00  0.00000000E+00
  0.00000000E+00  6.89990666E-02  3.16423961E-01  7.44308291E-01  1.00000000E+00
  0.00000000E+00  0.00000000E+00  0.00000000E+00  0.00000000E+00  0.00000000E+00
  0.00000000E+00  0.00000000E+00  6.89990666E-02  3.16423961E-01  7.44308291E-01
  1.00000000E+00  0.00000000E+00  0.00000000E+00  0.00000000E+00  0.00000000E+00
  0.00000000E+00  0.00000000E+00  0.00000000E+00  0.00000000E+00  0.00000000E+00
  0.00000000E+00  0.00000000E+00  0.00000000E+00  0.00000000E+00  0.00000000E+00
  0.00000000E+00  0.00000000E+00  0.00000000E+00  0.00000000E+00  0.00000000E+00
  0.00000000E+00  0.00000000E+00  0.00000000E+00  0.00000000E+00  0.00000000E+00
  0.00000000E+00  0.00000000E+00  0.00000000E+00  0.00000000E+00  0.00000000E+00
  0.00000000E+00  0.00000000E+00  0.00000000E+00  0.00000000E+00  0.00000000E+00
  0.00000000E+00  0.00000000E+00  0.00000000E+00
Coordinates of each shell                  R   N=         198
 -4.17775863E+00  1.69670947E+00 -5.16522510E-01 -4.17775863E+00  1.69670947E+00
 -5.16522510E-01 -4.17775863E+00  1.69670947E+00 -5.16522510E-01 -4.17775863E+00
  1.69670947E+00 -5.16522510E-01  7.89791192E-01  2.87295842E+00  2.76216837E-01
  7.89791192E-01  2.87295842E+00  2.76216837E-01  7.89791192E-01  2.87295842E+00
  2.76216837E-01  7.89791192E-01  2.87295842E+00  2.76216837E-01  1.65939786E-01
  4.09015750E-01  5.12457805E-02  1.65939786E-01  4.09015750E-01  5.12457805E-02
  1.65939786E-01  4.09015750E-01  5.12457805E-02  1.65939786E-01  4.09015750E-01
  5.12457805E-02  4.53509360E+00 -9.36466416E-01 -1.17761706E-01  4.53509360E+00
 -9.36466416E-01 -1.17761706E-01  4.53509360E+00 -9.36466416E-01 -1.17761706E-01
  4.53509360E+00 -9.36466416E-01 -1.17761706E-01 -2.52285972E+00 -2.03773855E-01
  5.96113220E-02 -2.52285972E+00 -2.03773855E-01  5.96113220E-02 -2.52285972E+00
 -2.03773855E-01  5.96113220E-02 -2.52285972E+00 -2.03773855E-01  5.96113220E-02
  1.96696360E+00 -1.52427162E+00 -1.73549575E-01  1.96696360E+00 -1.52427162E+00
 -1.73549575E-01  1.96696360E+00 -1.52427162E+00 -1.73549575E-01  1.96696360E+00
 -1.52427162E+00 -1.73549575E-01  5.18143613E+00  1.61719611E+00  1.19305662E-01
  5.18143613E+00  1.61719611E+00  1.19305662E-01  5.18143613E+00  1.61719611E+00
  1.19305662E-01  5.18143613E+00  1.61719611E+00  1.19305662E-01 -3.84414675E+00
 -2.39502871E+00  5.47272299E-01 -3.84414675E+00 -2.39502871E+00  5.47272299E-01
 -3.84414675E+00 -2.39502871E+00  5.47272299E-01 -3.84414675E+00 -2.39502871E+00
  5.47272299E-01  6.52533139E+00 -2.96174976E+00 -2.70573927E-01  6.52533139E+00
 -2.96174976E+00 -2.70573927E-01  6.52533139E+00 -2.96174976E+00 -2.70573927E-01
  6.52533139E+00 -2.96174976E+00 -2.70573927E-01  3.26827822E+00  3.42016538E+00
  2.88241372E-01  3.26827822E+00  3.42016538E+00  2.88241372E-01  3.26827822E+00
  3.42016538E+00  2.88241372E-01  3.26827822E+00  3.42016538E+00  2.88241372E-01
 -6.44805100E+00 -1.80643429E+00  2.47666425E-01 -6.44805100E+00 -1.80643429E+00
  2.47666425E-01 -6.44805100E+00 -1.80643429E+00  2.47666425E-01 -6.44805100E+00
 -1.80643429E+00  2.47666425E-01 -6.54856634E+00  6.96791987E-01 -3.94276367E-01
 -6.54856634E+00  6.96791987E-01 -3.94276367E-01 -6.54856634E+00  6.96791987E-01
 -3.94276367E-01 -6.54856634E+00  6.96791987E-01 -3.94276367E-01  1.35495519E+00
 -3.47189445E+00 -4.22029071E-01  1.35495519E+00 -3.47189445E+00 -4.22029071E-01
  7.15235820E+00  2.20151138E+00  1.52273641E-01  7.15235820E+00  2.20151138E+00
  1.52273641E-01 -3.04435187E+00 -4.19344681E+00  1.10179853E+00 -3.04435187E+00
 -4.19344681E+00  1.10179853E+00  7.18875895E+00 -3.48456499E+00  1.61898298E+00
  7.18875895E+00 -3.48456499E+00  1.61898298E+00  5.78377325E+00 -4.66522199E+00
 -1.17466021E+00  5.78377325E+00 -4.66522199E+00 -1.17466021E+00  8.16249631E+00
 -2.31334322E+00 -1.35245569E+00  8.16249631E+00 -2.31334322E+00 -1.35245569E+00
  3.73339443E+00  5.41848430E+00  4.52413006E-01  3.73339443E+00  5.41848430E+00
  4.52413006E-01 -8.04409409E+00 -3.05934163E+00  4.92984455E-01 -8.04409409E+00
 -3.05934163E+00  4.92984455E-01 -8.07027319E+00  1.99076519E+00 -8.13733142E-01
 -8.07027319E+00  1.99076519E+00 -8.13733142E-01
Constraint Structure                       R   N=          63
 -4.17775863E+00  1.69670947E+00 -5.16522510E-01  7.89791192E-01  2.87295842E+00
  2.76216837E-01  1.65939786E-01  4.09015750E-01  5.12457805E-02  4.53509360E+00
 -9.36466416E-01 -1.17761706E-01 -2.52285972E+00 -2.03773855E-01  5.96113220E-02
  1.96696360E+00 -1.52427162E+00 -1.73549575E-01  5.18143613E+00  1.61719611E+00
  1.19305662E-01 -3.84414675E+00 -2.39502871E+00  5.47272299E-01  6.52533139E+00
 -2.96174976E+00 -2.70573927E-01  3.26827822E+00  3.42016538E+00  2.88241372E-01
 -6.44805100E+00 -1.80643429E+00  2.47666425E-01 -6.54856634E+00  6.96791987E-01
 -3.94276367E-01  1.35495519E+00 -3.47189445E+00 -4.22029071E-01  7.15235820E+00
  2.20151138E+00  1.52273641E-01 -3.04435187E+00 -4.19344681E+00  1.10179853E+00
  7.18875895E+00 -3.48456499E+00  1.61898298E+00  5.78377325E+00 -4.66522199E+00
 -1.17466021E+00  8.16249631E+00 -2.31334322E+00 -1.35245569E+00  3.73339443E+00
  5.41848430E+00  4.52413006E-01 -8.04409409E+00 -3.05934163E+00  4.92984455E-01
 -8.07027319E+00  1.99076519E+00 -8.13733142E-01
Num ILSW                                   I              100
ILSW                                       I   N=         100
           0           1           0           0           2           0
           0           0           0           0           0          -1
           0           0           0           0           0           0
           0           0           0           0           1           0
           1           0           0           0           0           0
           0           0      100000           0          -1           0
           0           0           0           0           0           0
           0           0           0           1           1           0
           0           0           1           0           0           0
           0           0           4          40           0           0
           0           0           0           0           0           0
           0           0           0           0           0           0
           0           0           0           0           0           0
           0           0           0           0           0           0
           0           0           0           0           0           0
           0           0           0           0           0           0
           0           0           0           0
Num RLSW                                   I               40
RLSW                                       R   N=          40
  1.00000000E+00  1.00000000E+00  1.00000000E+00  1.00000000E+00  1.00000000E+00
  0.00000000E+00  0.00000000E+00  1.00000000E+00  0.00000000E+00  0.00000000E+00
  0.00000000E+00  0.00000000E+00  1.00000000E+00  0.00000000E+00  0.00000000E+00
  0.00000000E+00  0.00000000E+00  1.00000000E+00  0.00000000E+00  0.00000000E+00
  0.00000000E+00  0.00000000E+00  1.00000000E+00  0.00000000E+00  0.00000000E+00
  0.00000000E+00  0.00000000E+00  1.00000000E+00  0.00000000E+00  0.00000000E+00
  0.00000000E+00  0.00000000E+00  0.00000000E+00  0.00000000E+00  0.00000000E+00
  0.00000000E+00  0.00000000E+00  0.00000000E+00  1.00000000E+00  1.00000000E+00
MxBond                                     I                4
NBond                                      I   N=          21
           2           2           3           3           3           3
           3           3           4           3           3           3
           1           1           1           1           1           1
           1           1           1
IBond                                      I   N=          84
           5          12           0           0           3          10
           0           0           2           5           6           0
           6           7           9           0           1           3
           8           0           3           4          13           0
           4          10          14           0           5          11
          15           0           4          16          17          18
           2           7          19           0           8          12
          20           0           1          11          21           0
           6           0           0           0           7           0
           0           0           8           0           0           0
           9           0           0           0           9           0
           0           0           9           0           0           0
          10           0           0           0          11           0
           0           0          12           0           0           0
RBond                                      R   N=          84
  1.50000000E+00  1.50000000E+00  0.00000000E+00  0.00000000E+00  1.50000000E+00
  1.50000000E+00  0.00000000E+00  0.00000000E+00  1.50000000E+00  1.00000000E+00
  1.50000000E+00  0.00000000E+00  1.50000000E+00  1.50000000E+00  1.00000000E+00
  0.00000000E+00  1.50000000E+00  1.00000000E+00  1.50000000E+00  0.00000000E+00
  1.50000000E+00  1.50000000E+00  1.00000000E+00  0.00000000E+00  1.50000000E+00
  1.50000000E+00  1.00000000E+00  0.00000000E+00  1.50000000E+00  1.50000000E+00
  1.00000000E+00  0.00000000E+00  1.00000000E+00  1.00000000E+00  1.00000000E+00
  1.00000000E+00  1.50000000E+00  1.50000000E+00  1.00000000E+00  0.00000000E+00
  1.50000000E+00  1.50000000E+00  1.00000000E+00  0.00000000E+00  1.50000000E+00
  1.50000000E+00  1.00000000E+00  0.00000000E+00  1.00000000E+00  0.00000000E+00
  0.00000000E+00  0.00000000E+00  1.00000000E+00  0.00000000E+00  0.00000000E+00
  0.00000000E+00  1.00000000E+00  0.00000000E+00  0.00000000E+00  0.00000000E+00
  1.00000000E+00  0.00000000E+00  0.00000000E+00  0.00000000E+00  1.00000000E+00
  0.00000000E+00  0.00000000E+00  0.00000000E+00  1.00000000E+00  0.00000000E+00
  0.00000000E+00  0.00000000E+00  1.00000000E+00  0.00000000E+00  0.00000000E+00
  0.00000000E+00  1.00000000E+00  0.00000000E+00  0.00000000E+00  0.00000000E+00
  1.00000000E+00  0.00000000E+00  0.00000000E+00  0.00000000E+00
Virial Ratio                               R      2.002404112163029E+00
SCF Energy                                 R     -5.132063310493978E+02
MP2 Energy                                 R     -5.148188924620775E+02
Total Energy                               R     -5.148188924620775E+02
Post-SCF wavefunction norm                 R      1.771339458928933E+00
RMS Force                                  R      9.971685511793536E-08
RMS Density                                R      1.748193019709990E-09
External E-field                           R   N=          35
  0.00000000E+00  0.00000000E+00  0.00000000E+00  0.00000000E+00  0.00000000E+00
  0.00000000E+00  0.00000000E+00  0.00000000E+00  0.00000000E+00  0.00000000E+00
  0.00000000E+00  0.00000000E+00  0.00000000E+00  0.00000000E+00  0.00000000E+00
  0.00000000E+00  0.00000000E+00  0.00000000E+00  0.00000000E+00  0.00000000E+00
  0.00000000E+00  0.00000000E+00  0.00000000E+00  0.00000000E+00  0.00000000E+00
  0.00000000E+00  0.00000000E+00  0.00000000E+00  0.00000000E+00  0.00000000E+00
  0.00000000E+00  0.00000000E+00  0.00000000E+00  0.00000000E+00  0.00000000E+00
IOpCl                                      I                0
IROHF                                      I                0
Alpha Orbital Energies                     R   N=         198
 -2.06243200E+01 -1.55618275E+01 -1.12909745E+01 -1.12892794E+01 -1.12875528E+01
 -1.12734989E+01 -1.12663163E+01 -1.12391709E+01 -1.12383309E+01 -1.12357575E+01
 -1.12344165E+01 -1.12301249E+01 -1.44992809E+00 -1.25101906E+00 -1.10617867E+00
 -1.08312211E+00 -1.05584969E+00 -9.81261580E-01 -9.67099308E-01 -8.62111386E-01
 -8.33619674E-01 -7.96099413E-01 -7.59397834E-01 -7.24740695E-01 -6.71925654E-01
 -6.69060105E-01 -6.35457520E-01 -6.25521146E-01 -5.95841621E-01 -5.89166828E-01
 -5.74106639E-01 -5.60808731E-01 -5.56839371E-01 -5.45715370E-01 -5.35612968E-01
 -5.24096088E-01 -5.06750190E-01 -4.12387403E-01 -3.94452956E-01 -3.71255153E-01
 -3.60231437E-01 -2.83471191E-01  9.69996805E-02  1.29816568E-01  1.98224059E-01
  2.33978025E-01  2.53249013E-01  2.59811185E-01  2.69370849E-01  2.82385000E-01
  2.97736630E-01  3.05398109E-01  3.14118585E-01  3.28607709E-01  3.48910413E-01
  3.55117289E-01  3.72596664E-01  3.89238914E-01  4.20822722E-01  4.49017775E-01
  4.62441411E-01  5.04408242E-01  5.15891364E-01  5.46965597E-01  5.78381667E-01
  6.25130982E-01  6.35368798E-01  6.46400182E-01  6.85337937E-01  7.21115830E-01
  7.27872465E-01  7.59141965E-01  7.59829279E-01  7.72435014E-01  7.76253125E-01