10129890                                                                
Freq      RMP2-FC                                                     6-31G(d)            
Number of atoms                            I               12
Info1-9                                    I   N=           9
          24          22        1002           0           0         100
           6           2           1
Charge                                     I                0
Multiplicity                               I                1
Number of electrons                        I               44
Number of alpha electrons                  I               22
Number of beta electrons                   I               22
Number of basis functions                  I              102
Number of independent functions            I              102
Number of point charges in /Mol/           I                0
Number of translation vectors              I                0
Atomic numbers                             I   N=          12
           7           7           6           6           6           6
           1           1           1           1           1           1
Nuclear charges                            R   N=          12
  7.00000000E+00  7.00000000E+00  6.00000000E+00  6.00000000E+00  6.00000000E+00
  6.00000000E+00  1.00000000E+00  1.00000000E+00  1.00000000E+00  1.00000000E+00
  1.00000000E+00  1.00000000E+00
Current cartesian coordinates              R   N=          36
 -2.67697843E+00 -1.23011614E+00  9.39280868E-03  4.01963851E+00  2.74813415E-02
 -1.94199816E-01  1.34641582E+00  4.39200443E-03 -4.93717910E-03 -2.19993930E-01
 -2.09576945E+00  1.59759463E-02 -2.26536237E-01  2.17838648E+00 -1.79825478E-02
 -2.70855939E+00  1.35728653E+00  8.78063242E-03  2.12696949E-01 -4.09293460E+00
  8.83405006E-03  3.96142381E-01  4.12660256E+00 -6.20279015E-02 -4.22449324E+00
 -2.34714944E+00  4.16061500E-02 -4.46518591E+00  2.40029746E+00  1.70176440E-02
  4.75931631E+00 -1.67827984E+00  2.92814031E-01  4.77494534E+00  1.34413401E+00
  9.84383964E-01
Force Field                                I                0
Int Atom Types                             I   N=          12
           0           0           0           0           0           0
           0           0           0           0           0           0
MM charges                                 R   N=          12
  0.00000000E+00  0.00000000E+00  0.00000000E+00  0.00000000E+00  0.00000000E+00
  0.00000000E+00  0.00000000E+00  0.00000000E+00  0.00000000E+00  0.00000000E+00
  0.00000000E+00  0.00000000E+00
Integer atomic weights                     I   N=          12
          14          14          12          12          12          12
           1           1           1           1           1           1
Real atomic weights                        R   N=          12
  1.40030740E+01  1.40030740E+01  1.20000000E+01  1.20000000E+01  1.20000000E+01
  1.20000000E+01  1.00782504E+00  1.00782504E+00  1.00782504E+00  1.00782504E+00
  1.00782504E+00  1.00782504E+00
Atom fragment info                         I   N=          12
           0           0           0           0           0           0
           0           0           0           0           0           0
Atom residue num                           I   N=          12
           0           0           0           0           0           0
           0           0           0           0           0           0
Nuclear spins                              I   N=          12
           2           2           0           0           0           0
           1           1           1           1           1           1
Nuclear ZEff                               R   N=          12
 -4.55000000E+00 -4.55000000E+00 -3.60000000E+00 -3.60000000E+00 -3.60000000E+00
 -3.60000000E+00 -1.00000000E+00 -1.00000000E+00 -1.00000000E+00 -1.00000000E+00
 -1.00000000E+00 -1.00000000E+00
Nuclear QMom                               R   N=          12
  2.04400000E+00  2.04400000E+00  0.00000000E+00  0.00000000E+00  0.00000000E+00
  0.00000000E+00  0.00000000E+00  0.00000000E+00  0.00000000E+00  0.00000000E+00
  0.00000000E+00  0.00000000E+00
Nuclear GFac                               R   N=          12
  4.03761000E-01  4.03761000E-01  0.00000000E+00  0.00000000E+00  0.00000000E+00
  0.00000000E+00  2.79284600E+00  2.79284600E+00  2.79284600E+00  2.79284600E+00
  2.79284600E+00  2.79284600E+00
MicOpt                                     I   N=          12
          -1          -1          -1          -1          -1          -1
          -1          -1          -1          -1          -1          -1
Number of contracted shells                I               36
Number of primitive shells                 I               90
Pure/Cartesian d shells                    I                1
Pure/Cartesian f shells                    I                0
Highest angular momentum                   I                2
Largest degree of contraction              I                6
Shell types                                I   N=          36
           0          -1          -1           2           0          -1
          -1           2           0          -1          -1           2
           0          -1          -1           2           0          -1
          -1           2           0          -1          -1           2
           0           0           0           0           0           0
           0           0           0           0           0           0
Number of primitives per shell             I   N=          36
           6           3           1           1           6           3
           1           1           6           3           1           1
           6           3           1           1           6           3
           1           1           6           3           1           1
           3           1           3           1           3           1
           3           1           3           1           3           1
Shell to atom map                          I   N=          36
           1           1           1           1           2           2
           2           2           3           3           3           3
           4           4           4           4           5           5
           5           5           6           6           6           6
           7           7           8           8           9           9
          10          10          11          11          12          12
Primitive exponents                        R   N=          90
  4.17351146E+03  6.27457911E+02  1.42902093E+02  4.02343293E+01  1.28202129E+01
  4.39043701E+00  1.16263619E+01  2.71627981E+00  7.72218397E-01  2.12031498E-01
  8.00000000E-01  4.17351146E+03  6.27457911E+02  1.42902093E+02  4.02343293E+01
  1.28202129E+01  4.39043701E+00  1.16263619E+01  2.71627981E+00  7.72218397E-01
  2.12031498E-01  8.00000000E-01  3.04752488E+03  4.57369518E+02  1.03948685E+02
  2.92101553E+01  9.28666296E+00  3.16392696E+00  7.86827235E+00  1.88128854E+00
  5.44249258E-01  1.68714478E-01  8.00000000E-01  3.04752488E+03  4.57369518E+02
  1.03948685E+02  2.92101553E+01  9.28666296E+00  3.16392696E+00  7.86827235E+00
  1.88128854E+00  5.44249258E-01  1.68714478E-01  8.00000000E-01  3.04752488E+03
  4.57369518E+02  1.03948685E+02  2.92101553E+01  9.28666296E+00  3.16392696E+00
  7.86827235E+00  1.88128854E+00  5.44249258E-01  1.68714478E-01  8.00000000E-01
  3.04752488E+03  4.57369518E+02  1.03948685E+02  2.92101553E+01  9.28666296E+00
  3.16392696E+00  7.86827235E+00  1.88128854E+00  5.44249258E-01  1.68714478E-01
  8.00000000E-01  1.87311370E+01  2.82539436E+00  6.40121692E-01  1.61277759E-01
  1.87311370E+01  2.82539436E+00  6.40121692E-01  1.61277759E-01  1.87311370E+01
  2.82539436E+00  6.40121692E-01  1.61277759E-01  1.87311370E+01  2.82539436E+00
  6.40121692E-01  1.61277759E-01  1.87311370E+01  2.82539436E+00  6.40121692E-01
  1.61277759E-01  1.87311370E+01  2.82539436E+00  6.40121692E-01  1.61277759E-01
Contraction coefficients                   R   N=          90
  1.83477216E-03  1.39946270E-02  6.85865518E-02  2.32240873E-01  4.69069948E-01
  3.60455199E-01 -1.14961182E-01 -1.69117479E-01  1.14585195E+00  1.00000000E+00
  1.00000000E+00  1.83477216E-03  1.39946270E-02  6.85865518E-02  2.32240873E-01
  4.69069948E-01  3.60455199E-01 -1.14961182E-01 -1.69117479E-01  1.14585195E+00
  1.00000000E+00  1.00000000E+00  1.83473713E-03  1.40373228E-02  6.88426223E-02
  2.32184443E-01  4.67941348E-01  3.62311985E-01 -1.19332420E-01 -1.60854152E-01
  1.14345644E+00  1.00000000E+00  1.00000000E+00  1.83473713E-03  1.40373228E-02
  6.88426223E-02  2.32184443E-01  4.67941348E-01  3.62311985E-01 -1.19332420E-01
 -1.60854152E-01  1.14345644E+00  1.00000000E+00  1.00000000E+00  1.83473713E-03
  1.40373228E-02  6.88426223E-02  2.32184443E-01  4.67941348E-01  3.62311985E-01
 -1.19332420E-01 -1.60854152E-01  1.14345644E+00  1.00000000E+00  1.00000000E+00
  1.83473713E-03  1.40373228E-02  6.88426223E-02  2.32184443E-01  4.67941348E-01
  3.62311985E-01 -1.19332420E-01 -1.60854152E-01  1.14345644E+00  1.00000000E+00
  1.00000000E+00  3.34946043E-02  2.34726953E-01  8.13757326E-01  1.00000000E+00
  3.34946043E-02  2.34726953E-01  8.13757326E-01  1.00000000E+00  3.34946043E-02
  2.34726953E-01  8.13757326E-01  1.00000000E+00  3.34946043E-02  2.34726953E-01
  8.13757326E-01  1.00000000E+00  3.34946043E-02  2.34726953E-01  8.13757326E-01
  1.00000000E+00  3.34946043E-02  2.34726953E-01  8.13757326E-01  1.00000000E+00
P(S=P) Contraction coefficients            R   N=          90
  0.00000000E+00  0.00000000E+00  0.00000000E+00  0.00000000E+00  0.00000000E+00
  0.00000000E+00  6.75797439E-02  3.23907296E-01  7.40895140E-01  1.00000000E+00
  0.00000000E+00  0.00000000E+00  0.00000000E+00  0.00000000E+00  0.00000000E+00
  0.00000000E+00  0.00000000E+00  6.75797439E-02  3.23907296E-01  7.40895140E-01
  1.00000000E+00  0.00000000E+00  0.00000000E+00  0.00000000E+00  0.00000000E+00
  0.00000000E+00  0.00000000E+00  0.00000000E+00  6.89990666E-02  3.16423961E-01
  7.44308291E-01  1.00000000E+00  0.00000000E+00  0.00000000E+00  0.00000000E+00
  0.00000000E+00  0.00000000E+00  0.00000000E+00  0.00000000E+00  6.89990666E-02
  3.16423961E-01  7.44308291E-01  1.00000000E+00  0.00000000E+00  0.00000000E+00
  0.00000000E+00  0.00000000E+00  0.00000000E+00  0.00000000E+00  0.00000000E+00
  6.89990666E-02  3.16423961E-01  7.44308291E-01  1.00000000E+00  0.00000000E+00
  0.00000000E+00  0.00000000E+00  0.00000000E+00  0.00000000E+00  0.00000000E+00
  0.00000000E+00  6.89990666E-02  3.16423961E-01  7.44308291E-01  1.00000000E+00
  0.00000000E+00  0.00000000E+00  0.00000000E+00  0.00000000E+00  0.00000000E+00
  0.00000000E+00  0.00000000E+00  0.00000000E+00  0.00000000E+00  0.00000000E+00
  0.00000000E+00  0.00000000E+00  0.00000000E+00  0.00000000E+00  0.00000000E+00
  0.00000000E+00  0.00000000E+00  0.00000000E+00  0.00000000E+00  0.00000000E+00
  0.00000000E+00  0.00000000E+00  0.00000000E+00  0.00000000E+00  0.00000000E+00
Coordinates of each shell                  R   N=         108
 -2.67697843E+00 -1.23011614E+00  9.39280868E-03 -2.67697843E+00 -1.23011614E+00
  9.39280868E-03 -2.67697843E+00 -1.23011614E+00  9.39280868E-03 -2.67697843E+00
 -1.23011614E+00  9.39280868E-03  4.01963851E+00  2.74813415E-02 -1.94199816E-01
  4.01963851E+00  2.74813415E-02 -1.94199816E-01  4.01963851E+00  2.74813415E-02
 -1.94199816E-01  4.01963851E+00  2.74813415E-02 -1.94199816E-01  1.34641582E+00
  4.39200443E-03 -4.93717910E-03  1.34641582E+00  4.39200443E-03 -4.93717910E-03
  1.34641582E+00  4.39200443E-03 -4.93717910E-03  1.34641582E+00  4.39200443E-03
 -4.93717910E-03 -2.19993930E-01 -2.09576945E+00  1.59759463E-02 -2.19993930E-01
 -2.09576945E+00  1.59759463E-02 -2.19993930E-01 -2.09576945E+00  1.59759463E-02
 -2.19993930E-01 -2.09576945E+00  1.59759463E-02 -2.26536237E-01  2.17838648E+00
 -1.79825478E-02 -2.26536237E-01  2.17838648E+00 -1.79825478E-02 -2.26536237E-01
  2.17838648E+00 -1.79825478E-02 -2.26536237E-01  2.17838648E+00 -1.79825478E-02
 -2.70855939E+00  1.35728653E+00  8.78063242E-03 -2.70855939E+00  1.35728653E+00
  8.78063242E-03 -2.70855939E+00  1.35728653E+00  8.78063242E-03 -2.70855939E+00
  1.35728653E+00  8.78063242E-03  2.12696949E-01 -4.09293460E+00  8.83405006E-03
  2.12696949E-01 -4.09293460E+00  8.83405006E-03  3.96142381E-01  4.12660256E+00
 -6.20279015E-02  3.96142381E-01  4.12660256E+00 -6.20279015E-02 -4.22449324E+00
 -2.34714944E+00  4.16061500E-02 -4.22449324E+00 -2.34714944E+00  4.16061500E-02
 -4.46518591E+00  2.40029746E+00  1.70176440E-02 -4.46518591E+00  2.40029746E+00
  1.70176440E-02  4.75931631E+00 -1.67827984E+00  2.92814031E-01  4.75931631E+00
 -1.67827984E+00  2.92814031E-01  4.77494534E+00  1.34413401E+00  9.84383964E-01
  4.77494534E+00  1.34413401E+00  9.84383964E-01
Constraint Structure                       R   N=          36
 -2.67697843E+00 -1.23011614E+00  9.39280868E-03  4.01963851E+00  2.74813415E-02
 -1.94199816E-01  1.34641582E+00  4.39200443E-03 -4.93717910E-03 -2.19993930E-01
 -2.09576945E+00  1.59759463E-02 -2.26536237E-01  2.17838648E+00 -1.79825478E-02
 -2.70855939E+00  1.35728653E+00  8.78063242E-03  2.12696949E-01 -4.09293460E+00
  8.83405006E-03  3.96142381E-01  4.12660256E+00 -6.20279015E-02 -4.22449324E+00
 -2.34714944E+00  4.16061500E-02 -4.46518591E+00  2.40029746E+00  1.70176440E-02
  4.75931631E+00 -1.67827984E+00  2.92814031E-01  4.77494534E+00  1.34413401E+00
  9.84383964E-01
Num ILSW                                   I              100
ILSW                                       I   N=         100
           0           1           0           0           2           0
           0           0           0           0           0          -1
           0           0           0           0           0           0
           0           0           0           0           1           0
           1           0           0           0           0           0
           0           0      100000           0          -1           0
           0           0           0           0           0           0
           0           0           0           1           1           0
           0           0           1           0           0           0
           0           0           4          40           0           0
           0           0           0           0           0           0
           0           0           0           0           0           0
           0           0           0           0           0           0
           0           0           0           0           0           0
           0           0           0           0           0           0
           0           0           0           0           0           0
           0           0           0           0
Num RLSW                                   I               40
RLSW                                       R   N=          40
  1.00000000E+00  1.00000000E+00  1.00000000E+00  1.00000000E+00  1.00000000E+00
  0.00000000E+00  0.00000000E+00  1.00000000E+00  0.00000000E+00  0.00000000E+00
  0.00000000E+00  0.00000000E+00  1.00000000E+00  0.00000000E+00  0.00000000E+00
  0.00000000E+00  0.00000000E+00  1.00000000E+00  0.00000000E+00  0.00000000E+00
  0.00000000E+00  0.00000000E+00  1.00000000E+00  0.00000000E+00  0.00000000E+00
  0.00000000E+00  0.00000000E+00  1.00000000E+00  0.00000000E+00  0.00000000E+00
  0.00000000E+00  0.00000000E+00  0.00000000E+00  0.00000000E+00  0.00000000E+00
  0.00000000E+00  0.00000000E+00  0.00000000E+00  1.00000000E+00  1.00000000E+00
MxBond                                     I                3
NBond                                      I   N=          12
           3           3           3           3           3           3
           1           1           1           1           1           1
IBond                                      I   N=          36
           4           6           9           3          11          12
           2           4           5           1           3           7
           3           6           8           1           5          10
           4           0           0           5           0           0
           1           0           0           6           0           0
           2           0           0           2           0           0
RBond                                      R   N=          36
  1.00000000E+00  1.00000000E+00  1.00000000E+00  1.50000000E+00  1.00000000E+00
  1.00000000E+00  1.50000000E+00  1.50000000E+00  1.50000000E+00  1.00000000E+00
  1.50000000E+00  1.00000000E+00  1.50000000E+00  1.50000000E+00  1.00000000E+00
  1.00000000E+00  1.50000000E+00  1.00000000E+00  1.00000000E+00  0.00000000E+00
  0.00000000E+00  1.00000000E+00  0.00000000E+00  0.00000000E+00  1.00000000E+00
  0.00000000E+00  0.00000000E+00  1.00000000E+00  0.00000000E+00  0.00000000E+00
  1.00000000E+00  0.00000000E+00  0.00000000E+00  1.00000000E+00  0.00000000E+00
  0.00000000E+00
Virial Ratio                               R      2.002566390291562E+00
SCF Energy                                 R     -2.638261847832933E+02
MP2 Energy                                 R     -2.646650583120741E+02
Total Energy                               R     -2.646650583120741E+02
Post-SCF wavefunction norm                 R      1.603232877125530E+00
RMS Force                                  R      1.176126361915778E-06
RMS Density                                R      1.801767088509961E-09
External E-field                           R   N=          35
  0.00000000E+00  0.00000000E+00  0.00000000E+00  0.00000000E+00  0.00000000E+00
  0.00000000E+00  0.00000000E+00  0.00000000E+00  0.00000000E+00  0.00000000E+00
  0.00000000E+00  0.00000000E+00  0.00000000E+00  0.00000000E+00  0.00000000E+00
  0.00000000E+00  0.00000000E+00  0.00000000E+00  0.00000000E+00  0.00000000E+00
  0.00000000E+00  0.00000000E+00  0.00000000E+00  0.00000000E+00  0.00000000E+00
  0.00000000E+00  0.00000000E+00  0.00000000E+00  0.00000000E+00  0.00000000E+00
  0.00000000E+00  0.00000000E+00  0.00000000E+00  0.00000000E+00  0.00000000E+00
IOpCl                                      I                0
IROHF                                      I                0
Alpha Orbital Energies                     R   N=         102
 -1.56009518E+01 -1.55497331E+01 -1.12509588E+01 -1.12417147E+01 -1.12338129E+01
 -1.11994213E+01 -1.27870135E+00 -1.17949237E+00 -1.01221406E+00 -9.57114607E-01
 -7.87047241E-01 -7.45741688E-01 -7.25376443E-01 -6.45663096E-01 -5.96888800E-01
 -5.73921772E-01 -5.59833945E-01 -5.51352527E-01 -5.10945155E-01 -4.57250455E-01
 -3.13263738E-01 -2.70319091E-01  2.02188577E-01  2.24937549E-01  2.35655496E-01
  2.77873274E-01  2.94265333E-01  3.02960147E-01  3.15099804E-01  3.36385616E-01
  4.26013867E-01  4.32914248E-01  4.97973583E-01  5.30805857E-01  5.65288095E-01
  6.94168037E-01  7.43282280E-01  7.88298671E-01  8.21792745E-01  8.33527511E-01
  8.48984825E-01  8.55607362E-01  8.74713347E-01  8.79337344E-01  8.84793327E-01
  9.64292737E-01  1.00106657E+00  1.03798173E+00  1.07220167E+00  1.08613135E+00
  1.11276501E+00  1.12460765E+00  1.15285541E+00  1.17419356E+00  1.18318338E+00
  1.20804826E+00  1.22194601E+00  1.25805626E+00  1.28002469E+00  1.31613106E+00
  1.43026152E+00  1.50339239E+00  1.53607970E+00  1.61002951E+00  1.63530048E+00
  1.66143602E+00  1.70209431E+00  1.76954395E+00  1.78806433E+00  1.84130687E+00
  1.87672572E+00  2.08091330E+00  2.12232468E+00  2.19447615E+00  2.26696097E+00
  2.33040448E+00  2.38619226E+00  2.40299665E+00  2.44666079E+00  2.46115266E+00
  2.53494421E+00  2.56681337E+00  2.58665908E+00  2.64472855E+00  2.67087843E+00
  2.78440059E+00  2.84627951E+00  2.87160560E+00  2.93827996E+00  2.98063323E+00
  3.04600207E+00  3.06921649E+00  3.13856944E+00  3.39450119E+00  3.43954288E+00
  3.46979534E+00  4.31195056E+00  4.36438139E+00  4.56567800E+00  4.57624568E+00
  4.78591974E+00  4.96972139E+00
Alpha MO coefficients                      R   N=       10404
  9.94977251E-01  2.51994391E-02  5.96030473E-05  5.73787929E-05  3.37172086E-05
 -3.50837570E-03 -9.85134052E-04 -7.44964996E-04 -2.01848406E-05 -3.40754786E-03
 -3.41824003E-03 -3.38590298E-03  4.42963330E-05 -2.60028868E-06 -2.28005101E-06
  2.66159913E-05  7.81956452E-06  1.16318242E-05  1.13968295E-05 -1.26225057E-06
 -1.74445769E-04  4.76872215E-05 -1.41063782E-04 -1.14812902E-05 -1.13809923E-05
  3.15538673E-06 -9.67704992E-06  1.53634149E-05  1.01909096E-06 -1.27908791E-05
  1.10773362E-05  1.73461827E-06  7.87203111E-06  5.35067887E-05  1.86779623E-07
 -6.87442211E-04  5.69297764E-04  5.11884839E-04 -1.43800774E-05  4.45733373E-05
  1.83827301E-05  5.62636013E-06 -2.20344981E-05 -5.52038283E-07 -4.96964087E-07
  1.25910066E-05  1.52763739E-04 -2.51699762E-04  5.48440953E-05 -1.50803551E-06
  2.22378589E-03 -5.16096042E-04  1.18444193E-03  1.55155890E-06 -8.26797458E-05
 -6.16521733E-05 -8.00905097E-05  1.75986540E-05 -1.47841713E-07 -4.05435185E-07
  1.53570319E-05  2.97116031E-05  7.17875174E-05 -1.08551860E-05  6.29343484E-07
 -1.01882563E-03  1.50962789E-04  5.65736168E-04 -8.95689944E-06  7.02916163E-06
  4.81542446E-05  1.58912629E-05  2.98110720E-06  1.53755007E-07 -1.57232613E-07
  1.90559037E-05  1.64717230E-04 -3.79641338E-05 -2.57090496E-04  7.97414997E-07
  2.02203822E-03  8.78951772E-04 -1.01540925E-03  4.78431759E-07 -5.77392868E-05
 -9.79238458E-05 -6.93732126E-05  2.15428279E-06 -4.11856558E-07 -6.72881752E-07
 -1.16978333E-06  2.87637451E-04 -2.51740719E-05 -1.22829581E-04  1.28456230E-04
  1.26598243E-04  7.46405419E-06  3.10465214E-04 -3.16316217E-05  1.28052758E-05
  2.44799434E-05 -9.53384684E-06 -3.84328890E-05 -4.07278290E-05 -2.82612943E-05
 -1.53285809E-05  1.71965875E-06 -6.72973627E-05  6.53406543E-05  2.93890578E-04
  1.37247968E-06 -1.47217862E-05  5.67618812E-06 -4.62785392E-05 -1.50009056E-06
  9.30712521E-07 -1.86842588E-06  9.95052948E-01  2.51248835E-02 -4.78547241E-04
 -3.10385132E-04  1.30147617E-03 -4.32192829E-03  1.39023808E-03  3.11025734E-04
 -1.00835628E-03 -3.38785035E-03 -3.32161112E-03 -3.13464576E-03 -2.29274243E-07
 -2.57207936E-05 -5.01338529E-05  2.67520419E-05  4.12169865E-04  1.15155585E-04
  7.66496928E-06 -2.49137414E-05  5.11481857E-04  3.26708399E-03 -2.63695724E-04
  1.26265428E-04 -1.97216153E-04 -5.76175483E-05 -4.84705582E-05  4.71211558E-06
  9.75803263E-06 -2.76045210E-06  5.20464002E-07 -5.34195024E-06  8.41461759E-06
  2.04525687E-05 -4.78990915E-06  8.28405919E-04 -4.63749280E-04  8.27153621E-04
 -4.75938727E-05 -6.54345604E-05  7.76830262E-05 -1.58743398E-05 -2.02611369E-05
 -6.22518145E-06 -1.03008498E-05 -8.81224730E-06 -5.81701400E-05  1.19516224E-05
 -2.33883202E-05  2.23654855E-06  1.51258814E-03 -5.23295480E-04 -1.14978043E-03
 -3.37253644E-05 -5.14451483E-05  7.45629449E-05 -3.09684283E-05  2.30246198E-05
 -4.33785037E-06  7.82174944E-06 -5.79110074E-06 -1.46608348E-05 -3.67812359E-05
  1.22547559E-05  1.86182450E-06 -8.92494686E-04 -2.97856375E-04  9.35227988E-05
  1.14138838E-05 -7.03450353E-06 -1.45764972E-05 -1.66416250E-05 -9.52207787E-07
  1.57347876E-06  1.25679529E-06  4.96911964E-05  2.91072622E-04  5.21979552E-05
  3.80341679E-04  4.29550333E-05  7.98667185E-05  7.96646665E-06 -1.44559535E-05
  3.53784231E-04  5.11035140E-04  3.37123423E-04  4.48122117E-04 -2.40548829E-04
  4.74100986E-04  1.76211711E-05  4.93183618E-05 -1.71417766E-07 -9.94924005E-04
 -1.71132936E-03 -1.39051220E-03  1.93800238E-06 -2.00849500E-04 -6.75581587E-04
  2.09724385E-04  5.36768229E-06 -2.43432502E-06 -1.90139041E-06  3.49033225E-07
  1.41592364E-05  1.35099337E-05  1.24397745E-05 -7.30035803E-07 -4.48247706E-04
  1.24799306E-04 -1.95124007E-04 -2.88632054E-05 -1.68041205E-05  8.80892617E-06
 -8.51895672E-06  1.18633564E-05  6.06379550E-06 -1.07931666E-05 -1.95100318E-04
  3.94384138E-05 -2.13749879E-05  7.33704879E-05  3.83153783E-07 -3.28021043E-03
  1.96588252E-03  1.18024256E-03 -3.64179795E-05  1.34885128E-04  4.11600381E-05
  5.74287073E-05 -1.24243961E-04 -8.21708336E-07 -2.15335540E-07 -1.22303668E-03
 -4.30103514E-04 -1.10272350E-04 -7.38008736E-06 -4.47992990E-06  3.79218813E-03
 -1.22413421E-04  3.46045638E-03 -3.99175620E-07  1.67055703E-04  1.48552681E-04
 -1.09593563E-04 -9.91187214E-05  3.50877767E-07 -2.07459731E-06  1.19692922E-02
  1.47420824E-04  2.02626491E-04  8.85358711E-05  7.27794218E-07  3.98924216E-03
 -1.88508470E-03 -7.32324482E-04  1.91374404E-05 -3.15560690E-04 -3.43606575E-04
 -1.12251277E-04 -6.02776800E-05  2.52182650E-06  2.37388690E-06  9.95577216E-01
  2.71299180E-02 -3.55711608E-05 -1.06487966E-03  6.39647793E-06 -9.57749341E-03
 -6.40741531E-04 -7.74610026E-04  1.21433329E-05 -1.58562157E-03 -1.48015059E-03
 -2.39680213E-03 -1.36522184E-04 -9.19862338E-06 -3.14267959E-06  1.33372214E-04
  1.21031837E-03 -3.78578730E-05  8.31606735E-05 -2.40599634E-04 -6.75544139E-04
 -2.74807995E-04  2.06455480E-03 -2.71299276E-05 -3.22127133E-05  1.18128189E-05
  1.66849041E-05  4.84824873E-05  2.02193247E-04  6.43454594E-05  5.98641247E-05
  1.29845658E-06 -2.48952163E-03 -1.27430302E-03 -3.02020123E-04 -1.59589042E-06
  1.49627241E-04  1.11599412E-04  1.40142912E-04  4.95981329E-05 -1.27287443E-06
 -2.88355546E-06 -1.46673221E-04  5.25551707E-04  1.17692654E-04  2.58816280E-05
  2.37587752E-05 -1.91641879E-03  1.09019858E-03 -1.61801930E-04 -3.27436203E-04
 -7.50367503E-04  5.83485605E-05  2.15063273E-04  1.03384359E-05  7.32006265E-05
 -3.14425791E-05  9.92471977E-01  2.72772159E-02  3.03355655E-04  4.86607161E-05
 -6.92074708E-05 -1.42137379E-02  5.88541559E-03  2.17132075E-04  3.05071039E-05
 -1.16217618E-03 -1.68165288E-03 -2.21688035E-03  3.82935932E-05 -4.71514663E-05
  4.93951842E-06  7.89885069E-02  1.88334824E-03 -1.14952439E-04 -1.24535807E-04
 -3.91481716E-06  6.93021058E-03  2.91427073E-05  4.03764375E-03 -4.14230253E-05
 -4.27684691E-04 -4.68807785E-04 -3.32364766E-04 -7.70256257E-05 -3.97025845E-07
 -6.68530542E-06  1.17886856E-02  1.79814078E-04  7.72005860E-05  1.23661899E-04
  1.06451577E-06  5.61866776E-03  3.65535013E-04 -2.92338308E-03 -9.02902831E-06
 -3.81276034E-04 -3.90500214E-04 -1.57848658E-04  8.28574866E-05 -2.27125792E-06
  1.18858640E-05  1.73891077E-04 -1.31482216E-04 -5.01354951E-05 -1.30826585E-04
  4.42231893E-07 -6.03653039E-04  1.09384013E-04 -1.95849319E-04  1.33947646E-05
  1.57570652E-04  7.29799473E-05 -1.62530840E-05 -4.90783876E-05  9.05655481E-07
 -6.87085064E-07  1.06744510E-05  1.01720191E-03  5.66150161E-06  5.39253907E-04
 -8.80117401E-05 -1.56731734E-04  5.21927459E-06  2.62513424E-04  6.49090419E-05
 -2.18953808E-05  1.03289465E-04  1.99813117E-04 -2.33754716E-04  4.55500581E-04
  4.02774986E-05 -6.79239813E-06 -1.18584421E-06 -6.97899048E-04 -1.71522263E-03
 -1.02826715E-03  4.10899480E-06 -6.71133998E-04 -2.52712401E-04  1.84401301E-04
  1.75047587E-04 -4.88907772E-06  4.16296939E-07  3.67025413E-05 -2.17281445E-05
 -3.28001825E-06  2.14186616E-05  8.92603117E-06 -5.79229440E-04  8.12434264E-05
  8.52008354E-05 -5.37959735E-05  1.85796922E-04  5.82765840E-05 -1.71097718E-05
  1.03118448E-05 -2.37220526E-05 -9.49705645E-06 -7.95309778E-02 -2.35456966E-03
  8.69490781E-05  1.60698350E-04  5.94958787E-06  5.52645815E-03 -1.12627204E-03
 -1.44607445E-03 -9.06331526E-06 -3.32486980E-04 -1.48066453E-04  7.42335485E-05
 -5.48250523E-05  9.83785780E-06  3.70628499E-06  9.92480443E-01  2.72585685E-02
 -9.75274935E-04  4.00119858E-04 -2.52132257E-05 -9.95382274E-03 -1.02424844E-03
 -6.44670377E-04  3.53039074E-05 -1.61715085E-03 -1.52431663E-03 -2.36178294E-03
 -1.38106940E-04  9.05152491E-07 -1.00209240E-06 -1.33010614E-03 -2.21233807E-05
  9.73860917E-05 -6.29104207E-05  2.30782495E-07 -3.20844936E-03  1.01597485E-03
  1.39030371E-03 -1.95645479E-05  2.02913208E-05  2.27152731E-04  5.91733480E-05
 -6.87360052E-05  2.13544496E-06 -1.30228170E-06  1.14493446E-03 -3.19609804E-04
 -5.96606600E-05 -1.00149532E-04 -1.60697389E-07  3.07281456E-03  2.89504135E-03
 -1.18736713E-03 -1.61489269E-05  7.20400287E-05  1.94159848E-04 -1.05859468E-04
 -7.58196392E-05 -1.89696408E-06 -7.90969075E-07 -2.67203720E-04  1.97716435E-03
 -4.71512323E-05 -2.77404594E-04 -2.16045053E-04 -6.46693157E-04  1.37078582E-04
  1.14563772E-03 -3.04224611E-05  1.63647991E-04  6.02902311E-05  1.02413139E-05
  7.59988787E-05  1.83766770E-04  7.40923652E-05  6.44915402E-05  1.69079892E-06
 -2.40401199E-03 -7.00265112E-04 -9.62952885E-04 -3.87227990E-06  1.46896249E-04
  1.97974008E-04  1.45909873E-04  5.55714886E-05 -3.02454103E-06 -2.05345308E-06
  1.59747205E-05 -3.47916539E-05  1.41255819E-05 -1.30174465E-05  1.44850877E-05
 -3.36812430E-04  2.44894362E-05 -2.33750462E-04 -5.58347695E-05  1.17615052E-04
  4.37763400E-05 -2.82530281E-05  2.35626737E-05 -1.71708848E-05 -1.63090469E-05
 -1.23306946E-02 -3.83293896E-04  1.20146933E-04 -6.27402003E-05  3.71621888E-06
  4.92192066E-03 -1.28857438E-03  2.05680071E-03 -1.21388461E-05 -4.43993175E-04
 -4.22791995E-04 -1.00942741E-04  1.15098383E-04  9.75894710E-06 -7.84265977E-08
  4.32082961E-04 -1.44555326E-04 -8.92857321E-05  4.00824100E-05 -1.83275056E-06
  4.81449219E-04  1.02739807E-05  4.92185940E-04 -6.82564566E-07  6.87688888E-05
  1.83592110E-04 -1.68444679E-05  1.21285575E-05 -8.52352784E-07 -2.37531734E-06
  9.95498500E-01  2.79373438E-02 -7.51892384E-05 -3.76950958E-04  4.46341014E-05
 -1.51592699E-02  7.16430046E-04  3.00564920E-03 -5.55586765E-05 -1.74655483E-03
 -1.64747895E-03 -2.32049629E-03  8.92335751E-05 -1.05843411E-05 -8.35487217E-06
 -1.25104103E-02 -5.50914826E-04 -2.22364540E-04 -1.46526989E-05 -4.76470964E-07
  6.46842690E-03  2.94291820E-03 -7.93648549E-04 -1.63936597E-05 -4.46409062E-04
 -2.42696609E-04 -1.03713902E-04 -4.34478992E-05  1.19316669E-06  2.37979053E-06
 -9.71761820E-06  2.46162875E-04 -2.96182762E-04  1.34215552E-03 -8.32292702E-05
 -1.41098397E-04  1.00567553E-05  4.80978733E-04  1.20111169E-06  9.14099418E-05