5641                                                                    
Freq      RMP2-FC                                                     6-31G(d)            
Number of atoms                            I               13
Info1-9                                    I   N=           9
          25          23        1002           0           0         100
           6           2           1
Charge                                     I                0
Multiplicity                               I                1
Number of electrons                        I               48
Number of alpha electrons                  I               24
Number of beta electrons                   I               24
Number of basis functions                  I              104
Number of independent functions            I              104
Number of point charges in /Mol/           I                0
Number of translation vectors              I                0
Atomic numbers                             I   N=          13
           8           8           7           6           6           6
           1           1           1           1           1           1
           1
Nuclear charges                            R   N=          13
  8.00000000E+00  8.00000000E+00  7.00000000E+00  6.00000000E+00  6.00000000E+00
  6.00000000E+00  1.00000000E+00  1.00000000E+00  1.00000000E+00  1.00000000E+00
  1.00000000E+00  1.00000000E+00  1.00000000E+00
Current cartesian coordinates              R   N=          39
 -3.38497108E-01 -9.03164778E-01  2.72502707E-03  2.39546487E+00  2.45461697E+00
  1.70287576E-02  3.81032021E+00 -1.66390282E+00 -1.24232582E-01 -2.39747962E+00
  8.92455536E-01 -4.24442310E-03 -4.80971941E+00 -6.38177978E-01  4.75972224E-03
  1.99531883E+00  1.82378928E-01 -1.82147897E-03 -2.23889512E+00  2.10810828E+00
  1.65858466E+00 -2.23988421E+00  2.08892666E+00 -1.68084625E+00 -6.44439313E+00
  6.26259566E-01 -1.65502118E-03 -4.90709598E+00 -1.84721119E+00 -1.66479198E+00
 -4.90743115E+00 -1.82906045E+00  1.68751884E+00  3.30652460E+00 -3.43304940E+00
  3.85576831E-01  5.57447270E+00 -1.09821024E+00  3.35047799E-01
Force Field                                I                0
Int Atom Types                             I   N=          13
           0           0           0           0           0           0
           0           0           0           0           0           0
           0
MM charges                                 R   N=          13
  0.00000000E+00  0.00000000E+00  0.00000000E+00  0.00000000E+00  0.00000000E+00
  0.00000000E+00  0.00000000E+00  0.00000000E+00  0.00000000E+00  0.00000000E+00
  0.00000000E+00  0.00000000E+00  0.00000000E+00
Integer atomic weights                     I   N=          13
          16          16          14          12          12          12
           1           1           1           1           1           1
           1
Real atomic weights                        R   N=          13
  1.59949146E+01  1.59949146E+01  1.40030740E+01  1.20000000E+01  1.20000000E+01
  1.20000000E+01  1.00782504E+00  1.00782504E+00  1.00782504E+00  1.00782504E+00
  1.00782504E+00  1.00782504E+00  1.00782504E+00
Atom fragment info                         I   N=          13
           0           0           0           0           0           0
           0           0           0           0           0           0
           0
Atom residue num                           I   N=          13
           0           0           0           0           0           0
           0           0           0           0           0           0
           0
Nuclear spins                              I   N=          13
           0           0           2           0           0           0
           1           1           1           1           1           1
           1
Nuclear ZEff                               R   N=          13
 -5.60000000E+00 -5.60000000E+00 -4.55000000E+00 -3.60000000E+00 -3.60000000E+00
 -3.60000000E+00 -1.00000000E+00 -1.00000000E+00 -1.00000000E+00 -1.00000000E+00
 -1.00000000E+00 -1.00000000E+00 -1.00000000E+00
Nuclear QMom                               R   N=          13
  0.00000000E+00  0.00000000E+00  2.04400000E+00  0.00000000E+00  0.00000000E+00
  0.00000000E+00  0.00000000E+00  0.00000000E+00  0.00000000E+00  0.00000000E+00
  0.00000000E+00  0.00000000E+00  0.00000000E+00
Nuclear GFac                               R   N=          13
  0.00000000E+00  0.00000000E+00  4.03761000E-01  0.00000000E+00  0.00000000E+00
  0.00000000E+00  2.79284600E+00  2.79284600E+00  2.79284600E+00  2.79284600E+00
  2.79284600E+00  2.79284600E+00  2.79284600E+00
MicOpt                                     I   N=          13
          -1          -1          -1          -1          -1          -1
          -1          -1          -1          -1          -1          -1
          -1
Number of contracted shells                I               38
Number of primitive shells                 I               94
Pure/Cartesian d shells                    I                1
Pure/Cartesian f shells                    I                0
Highest angular momentum                   I                2
Largest degree of contraction              I                6
Shell types                                I   N=          38
           0          -1          -1           2           0          -1
          -1           2           0          -1          -1           2
           0          -1          -1           2           0          -1
          -1           2           0          -1          -1           2
           0           0           0           0           0           0
           0           0           0           0           0           0
           0           0
Number of primitives per shell             I   N=          38
           6           3           1           1           6           3
           1           1           6           3           1           1
           6           3           1           1           6           3
           1           1           6           3           1           1
           3           1           3           1           3           1
           3           1           3           1           3           1
           3           1
Shell to atom map                          I   N=          38
           1           1           1           1           2           2
           2           2           3           3           3           3
           4           4           4           4           5           5
           5           5           6           6           6           6
           7           7           8           8           9           9
          10          10          11          11          12          12
          13          13
Primitive exponents                        R   N=          94
  5.48467166E+03  8.25234946E+02  1.88046958E+02  5.29645000E+01  1.68975704E+01
  5.79963534E+00  1.55396162E+01  3.59993359E+00  1.01376175E+00  2.70005823E-01
  8.00000000E-01  5.48467166E+03  8.25234946E+02  1.88046958E+02  5.29645000E+01
  1.68975704E+01  5.79963534E+00  1.55396162E+01  3.59993359E+00  1.01376175E+00
  2.70005823E-01  8.00000000E-01  4.17351146E+03  6.27457911E+02  1.42902093E+02
  4.02343293E+01  1.28202129E+01  4.39043701E+00  1.16263619E+01  2.71627981E+00
  7.72218397E-01  2.12031498E-01  8.00000000E-01  3.04752488E+03  4.57369518E+02
  1.03948685E+02  2.92101553E+01  9.28666296E+00  3.16392696E+00  7.86827235E+00
  1.88128854E+00  5.44249258E-01  1.68714478E-01  8.00000000E-01  3.04752488E+03
  4.57369518E+02  1.03948685E+02  2.92101553E+01  9.28666296E+00  3.16392696E+00
  7.86827235E+00  1.88128854E+00  5.44249258E-01  1.68714478E-01  8.00000000E-01
  3.04752488E+03  4.57369518E+02  1.03948685E+02  2.92101553E+01  9.28666296E+00
  3.16392696E+00  7.86827235E+00  1.88128854E+00  5.44249258E-01  1.68714478E-01
  8.00000000E-01  1.87311370E+01  2.82539436E+00  6.40121692E-01  1.61277759E-01
  1.87311370E+01  2.82539436E+00  6.40121692E-01  1.61277759E-01  1.87311370E+01
  2.82539436E+00  6.40121692E-01  1.61277759E-01  1.87311370E+01  2.82539436E+00
  6.40121692E-01  1.61277759E-01  1.87311370E+01  2.82539436E+00  6.40121692E-01
  1.61277759E-01  1.87311370E+01  2.82539436E+00  6.40121692E-01  1.61277759E-01
  1.87311370E+01  2.82539436E+00  6.40121692E-01  1.61277759E-01
Contraction coefficients                   R   N=          94
  1.83107443E-03  1.39501722E-02  6.84450781E-02  2.32714336E-01  4.70192898E-01
  3.58520853E-01 -1.10777550E-01 -1.48026263E-01  1.13076702E+00  1.00000000E+00
  1.00000000E+00  1.83107443E-03  1.39501722E-02  6.84450781E-02  2.32714336E-01
  4.70192898E-01  3.58520853E-01 -1.10777550E-01 -1.48026263E-01  1.13076702E+00
  1.00000000E+00  1.00000000E+00  1.83477216E-03  1.39946270E-02  6.85865518E-02
  2.32240873E-01  4.69069948E-01  3.60455199E-01 -1.14961182E-01 -1.69117479E-01
  1.14585195E+00  1.00000000E+00  1.00000000E+00  1.83473713E-03  1.40373228E-02
  6.88426223E-02  2.32184443E-01  4.67941348E-01  3.62311985E-01 -1.19332420E-01
 -1.60854152E-01  1.14345644E+00  1.00000000E+00  1.00000000E+00  1.83473713E-03
  1.40373228E-02  6.88426223E-02  2.32184443E-01  4.67941348E-01  3.62311985E-01
 -1.19332420E-01 -1.60854152E-01  1.14345644E+00  1.00000000E+00  1.00000000E+00
  1.83473713E-03  1.40373228E-02  6.88426223E-02  2.32184443E-01  4.67941348E-01
  3.62311985E-01 -1.19332420E-01 -1.60854152E-01  1.14345644E+00  1.00000000E+00
  1.00000000E+00  3.34946043E-02  2.34726953E-01  8.13757326E-01  1.00000000E+00
  3.34946043E-02  2.34726953E-01  8.13757326E-01  1.00000000E+00  3.34946043E-02
  2.34726953E-01  8.13757326E-01  1.00000000E+00  3.34946043E-02  2.34726953E-01
  8.13757326E-01  1.00000000E+00  3.34946043E-02  2.34726953E-01  8.13757326E-01
  1.00000000E+00  3.34946043E-02  2.34726953E-01  8.13757326E-01  1.00000000E+00
  3.34946043E-02  2.34726953E-01  8.13757326E-01  1.00000000E+00
P(S=P) Contraction coefficients            R   N=          94
  0.00000000E+00  0.00000000E+00  0.00000000E+00  0.00000000E+00  0.00000000E+00
  0.00000000E+00  7.08742682E-02  3.39752839E-01  7.27158577E-01  1.00000000E+00
  0.00000000E+00  0.00000000E+00  0.00000000E+00  0.00000000E+00  0.00000000E+00
  0.00000000E+00  0.00000000E+00  7.08742682E-02  3.39752839E-01  7.27158577E-01
  1.00000000E+00  0.00000000E+00  0.00000000E+00  0.00000000E+00  0.00000000E+00
  0.00000000E+00  0.00000000E+00  0.00000000E+00  6.75797439E-02  3.23907296E-01
  7.40895140E-01  1.00000000E+00  0.00000000E+00  0.00000000E+00  0.00000000E+00
  0.00000000E+00  0.00000000E+00  0.00000000E+00  0.00000000E+00  6.89990666E-02
  3.16423961E-01  7.44308291E-01  1.00000000E+00  0.00000000E+00  0.00000000E+00
  0.00000000E+00  0.00000000E+00  0.00000000E+00  0.00000000E+00  0.00000000E+00
  6.89990666E-02  3.16423961E-01  7.44308291E-01  1.00000000E+00  0.00000000E+00
  0.00000000E+00  0.00000000E+00  0.00000000E+00  0.00000000E+00  0.00000000E+00
  0.00000000E+00  6.89990666E-02  3.16423961E-01  7.44308291E-01  1.00000000E+00
  0.00000000E+00  0.00000000E+00  0.00000000E+00  0.00000000E+00  0.00000000E+00
  0.00000000E+00  0.00000000E+00  0.00000000E+00  0.00000000E+00  0.00000000E+00
  0.00000000E+00  0.00000000E+00  0.00000000E+00  0.00000000E+00  0.00000000E+00
  0.00000000E+00  0.00000000E+00  0.00000000E+00  0.00000000E+00  0.00000000E+00
  0.00000000E+00  0.00000000E+00  0.00000000E+00  0.00000000E+00  0.00000000E+00
  0.00000000E+00  0.00000000E+00  0.00000000E+00  0.00000000E+00
Coordinates of each shell                  R   N=         114
 -3.38497108E-01 -9.03164778E-01  2.72502707E-03 -3.38497108E-01 -9.03164778E-01
  2.72502707E-03 -3.38497108E-01 -9.03164778E-01  2.72502707E-03 -3.38497108E-01
 -9.03164778E-01  2.72502707E-03  2.39546487E+00  2.45461697E+00  1.70287576E-02
  2.39546487E+00  2.45461697E+00  1.70287576E-02  2.39546487E+00  2.45461697E+00
  1.70287576E-02  2.39546487E+00  2.45461697E+00  1.70287576E-02  3.81032021E+00
 -1.66390282E+00 -1.24232582E-01  3.81032021E+00 -1.66390282E+00 -1.24232582E-01
  3.81032021E+00 -1.66390282E+00 -1.24232582E-01  3.81032021E+00 -1.66390282E+00
 -1.24232582E-01 -2.39747962E+00  8.92455536E-01 -4.24442310E-03 -2.39747962E+00
  8.92455536E-01 -4.24442310E-03 -2.39747962E+00  8.92455536E-01 -4.24442310E-03
 -2.39747962E+00  8.92455536E-01 -4.24442310E-03 -4.80971941E+00 -6.38177978E-01
  4.75972224E-03 -4.80971941E+00 -6.38177978E-01  4.75972224E-03 -4.80971941E+00
 -6.38177978E-01  4.75972224E-03 -4.80971941E+00 -6.38177978E-01  4.75972224E-03
  1.99531883E+00  1.82378928E-01 -1.82147897E-03  1.99531883E+00  1.82378928E-01
 -1.82147897E-03  1.99531883E+00  1.82378928E-01 -1.82147897E-03  1.99531883E+00
  1.82378928E-01 -1.82147897E-03 -2.23889512E+00  2.10810828E+00  1.65858466E+00
 -2.23889512E+00  2.10810828E+00  1.65858466E+00 -2.23988421E+00  2.08892666E+00
 -1.68084625E+00 -2.23988421E+00  2.08892666E+00 -1.68084625E+00 -6.44439313E+00
  6.26259566E-01 -1.65502118E-03 -6.44439313E+00  6.26259566E-01 -1.65502118E-03
 -4.90709598E+00 -1.84721119E+00 -1.66479198E+00 -4.90709598E+00 -1.84721119E+00
 -1.66479198E+00 -4.90743115E+00 -1.82906045E+00  1.68751884E+00 -4.90743115E+00
 -1.82906045E+00  1.68751884E+00  3.30652460E+00 -3.43304940E+00  3.85576831E-01
  3.30652460E+00 -3.43304940E+00  3.85576831E-01  5.57447270E+00 -1.09821024E+00
  3.35047799E-01  5.57447270E+00 -1.09821024E+00  3.35047799E-01
Constraint Structure                       R   N=          39
 -3.38497108E-01 -9.03164778E-01  2.72502707E-03  2.39546487E+00  2.45461697E+00
  1.70287576E-02  3.81032021E+00 -1.66390282E+00 -1.24232582E-01 -2.39747962E+00
  8.92455536E-01 -4.24442310E-03 -4.80971941E+00 -6.38177978E-01  4.75972224E-03
  1.99531883E+00  1.82378928E-01 -1.82147897E-03 -2.23889512E+00  2.10810828E+00
  1.65858466E+00 -2.23988421E+00  2.08892666E+00 -1.68084625E+00 -6.44439313E+00
  6.26259566E-01 -1.65502118E-03 -4.90709598E+00 -1.84721119E+00 -1.66479198E+00
 -4.90743115E+00 -1.82906045E+00  1.68751884E+00  3.30652460E+00 -3.43304940E+00
  3.85576831E-01  5.57447270E+00 -1.09821024E+00  3.35047799E-01
Num ILSW                                   I              100
ILSW                                       I   N=         100
           0           1           0           0           2           0
           0           0           0           0           0          -1
           0           0           0           0           0           0
           0           0           0           0           1           0
           1           0           0           0           0           0
           0           0      100000           0          -1           0
           0           0           0           0           0           0
           0           0           0           1           1           0
           0           0           1           0           0           0
           0           0           4          40           0           0
           0           0           0           0           0           0
           0           0           0           0           0           0
           0           0           0           0           0           0
           0           0           0           0           0           0
           0           0           0           0           0           0
           0           0           0           0           0           0
           0           0           0           0
Num RLSW                                   I               40
RLSW                                       R   N=          40
  1.00000000E+00  1.00000000E+00  1.00000000E+00  1.00000000E+00  1.00000000E+00
  0.00000000E+00  0.00000000E+00  1.00000000E+00  0.00000000E+00  0.00000000E+00
  0.00000000E+00  0.00000000E+00  1.00000000E+00  0.00000000E+00  0.00000000E+00
  0.00000000E+00  0.00000000E+00  1.00000000E+00  0.00000000E+00  0.00000000E+00
  0.00000000E+00  0.00000000E+00  1.00000000E+00  0.00000000E+00  0.00000000E+00
  0.00000000E+00  0.00000000E+00  1.00000000E+00  0.00000000E+00  0.00000000E+00
  0.00000000E+00  0.00000000E+00  0.00000000E+00  0.00000000E+00  0.00000000E+00
  0.00000000E+00  0.00000000E+00  0.00000000E+00  1.00000000E+00  1.00000000E+00
MxBond                                     I                4
NBond                                      I   N=          13
           2           1           3           4           4           3
           1           1           1           1           1           1
           1
IBond                                      I   N=          52
           4           6           0           0           6           0
           0           0           6          12          13           0
           1           5           7           8           4           9
          10          11           1           2           3           0
           4           0           0           0           4           0
           0           0           5           0           0           0
           5           0           0           0           5           0
           0           0           3           0           0           0
           3           0           0           0
RBond                                      R   N=          52
  1.00000000E+00  1.50000000E+00  0.00000000E+00  0.00000000E+00  2.00000000E+00
  0.00000000E+00  0.00000000E+00  0.00000000E+00  1.41000000E+00  1.00000000E+00
  1.00000000E+00  0.00000000E+00  1.00000000E+00  1.00000000E+00  1.00000000E+00
  1.00000000E+00  1.00000000E+00  1.00000000E+00  1.00000000E+00  1.00000000E+00
  1.50000000E+00  2.00000000E+00  1.41000000E+00  0.00000000E+00  1.00000000E+00
  0.00000000E+00  0.00000000E+00  0.00000000E+00  1.00000000E+00  0.00000000E+00
  0.00000000E+00  0.00000000E+00  1.00000000E+00  0.00000000E+00  0.00000000E+00
  0.00000000E+00  1.00000000E+00  0.00000000E+00  0.00000000E+00  0.00000000E+00
  1.00000000E+00  0.00000000E+00  0.00000000E+00  0.00000000E+00  1.00000000E+00
  0.00000000E+00  0.00000000E+00  0.00000000E+00  1.00000000E+00  0.00000000E+00
  0.00000000E+00  0.00000000E+00
Virial Ratio                               R      2.002971624328193E+00
SCF Energy                                 R     -3.218814191973410E+02
MP2 Energy                                 R     -3.227817243910559E+02
Total Energy                               R     -3.227817243910559E+02
Post-SCF wavefunction norm                 R      1.594262717890903E+00
RMS Force                                  R      1.825120422100254E-07
RMS Density                                R      2.252088761254617E-09
External E-field                           R   N=          35
  0.00000000E+00  0.00000000E+00  0.00000000E+00  0.00000000E+00  0.00000000E+00
  0.00000000E+00  0.00000000E+00  0.00000000E+00  0.00000000E+00  0.00000000E+00
  0.00000000E+00  0.00000000E+00  0.00000000E+00  0.00000000E+00  0.00000000E+00
  0.00000000E+00  0.00000000E+00  0.00000000E+00  0.00000000E+00  0.00000000E+00
  0.00000000E+00  0.00000000E+00  0.00000000E+00  0.00000000E+00  0.00000000E+00
  0.00000000E+00  0.00000000E+00  0.00000000E+00  0.00000000E+00  0.00000000E+00
  0.00000000E+00  0.00000000E+00  0.00000000E+00  0.00000000E+00  0.00000000E+00
IOpCl                                      I                0
IROHF                                      I                0
Alpha Orbital Energies                     R   N=         104
 -2.06048875E+01 -2.05334780E+01 -1.55905681E+01 -1.14069508E+01 -1.12879597E+01
 -1.12251178E+01 -1.45318565E+00 -1.34580683E+00 -1.21275325E+00 -1.03460383E+00
 -8.73477140E-01 -7.96677529E-01 -7.40677938E-01 -6.96459963E-01 -6.79542635E-01
 -6.36886665E-01 -5.95303140E-01 -5.76510331E-01 -5.45020878E-01 -5.19424426E-01
 -5.11856187E-01 -4.57503550E-01 -4.48945845E-01 -4.23445606E-01  2.16467814E-01
  2.39410616E-01  2.44153521E-01  2.81472123E-01  2.96431389E-01  3.04152086E-01
  3.12095606E-01  3.48199936E-01  3.50587367E-01  4.10600009E-01  4.51380405E-01
  5.35678540E-01  5.78321336E-01  7.36387111E-01  7.40961432E-01  7.46461662E-01
  7.61673929E-01  7.83145287E-01  8.21338481E-01  9.08920305E-01  9.15993911E-01
  9.27117890E-01  9.42941619E-01  9.97782215E-01  1.00720827E+00  1.07379713E+00
  1.11528073E+00  1.14684411E+00  1.15494836E+00  1.17965001E+00  1.18196674E+00
  1.18866184E+00  1.20540843E+00  1.23613352E+00  1.26338041E+00  1.33311593E+00
  1.35146116E+00  1.40659349E+00  1.42079812E+00  1.51948479E+00  1.61197810E+00
  1.62245265E+00  1.64718804E+00  1.69640737E+00  1.76456683E+00  1.81109528E+00
  1.93730070E+00  2.02079767E+00  2.06212202E+00  2.06782804E+00  2.11819023E+00
  2.16282939E+00  2.17182989E+00  2.20005384E+00  2.27910136E+00  2.32690498E+00
  2.37184646E+00  2.42047254E+00  2.46670760E+00  2.49213267E+00  2.58498638E+00
  2.59658186E+00  2.66635567E+00  2.67191247E+00  2.69834655E+00  2.83740340E+00
  2.90973222E+00  2.96133233E+00  3.01098580E+00  3.05481359E+00  3.12631385E+00
  3.31218877E+00  3.46473807E+00  3.51193383E+00  4.23068568E+00  4.42641651E+00
  4.58445799E+00  4.60903285E+00  4.73274526E+00  4.86762666E+00
Alpha MO coefficients                      R   N=       10816
  9.94649596E-01  2.12591159E-02  3.19793600E-04  1.19113859E-03  4.79890368E-06
  3.74587459E-03 -6.56528456E-05 -8.14838055E-04 -1.10228899E-07 -4.17870255E-03
 -4.08879103E-03 -3.88949682E-03  4.85965521E-05 -1.25971530E-07  1.20986273E-06
 -1.98941310E-04  7.87135798E-05  2.63119023E-05  2.31720778E-05 -5.92831675E-07
 -5.62522988E-04  1.50650025E-04  1.34653642E-04  2.20178800E-06  1.75485469E-05
  2.33682881E-05  3.48746359E-05 -8.59971023E-05 -2.95039362E-07  5.02838481E-07
 -1.69785797E-05 -3.67680841E-05  2.68096321E-05 -1.12040708E-05 -1.01900946E-05
  6.01176409E-04  1.79829823E-05  5.83928422E-05  5.28692091E-05 -1.15733343E-04
 -3.56778618E-05 -4.06382312E-05  2.90154124E-05  7.51562380E-06  2.91750053E-06
 -2.01679997E-05  1.43471992E-04  2.86585801E-04 -2.60561524E-04  9.57075423E-07
  3.72491699E-04 -7.55956534E-05  1.67440324E-05  1.51940678E-06  8.88768931E-05
  3.78732259E-05 -4.58371530E-05 -9.88824958E-05  4.84321827E-07 -3.91545394E-07
  1.19440293E-05  1.03024281E-04  1.38574498E-05 -2.50221491E-05  2.77897118E-07
 -2.54100698E-04 -3.33606247E-04  9.42453951E-05 -1.54462585E-06 -5.61839516E-05
  1.53069714E-05 -4.90338150E-07 -9.84404599E-06  7.44620737E-08 -1.51634043E-07
  7.91313890E-06  4.02208638E-04 -3.23017482E-04 -1.45441271E-04 -1.93915262E-06
 -5.04800862E-05 -2.14960450E-04  6.19230475E-04  1.70614675E-06 -2.22771949E-05
  3.84844956E-05 -3.62686226E-05 -3.97285878E-05 -2.35393251E-06  4.09440381E-06
 -3.61510587E-05 -1.03405174E-04 -3.54544898E-05 -1.03271810E-04 -8.52101809E-06
 -1.52251529E-04  5.19989055E-05 -3.83557886E-06  5.17750708E-05 -1.99239685E-06
  2.28316314E-05 -1.56711433E-04 -2.47913988E-05 -7.82291701E-05  2.10501635E-04
 -4.48720002E-05 -1.76908124E-05 -2.91074686E-05 -7.65971039E-07  1.77714864E-04
  1.22905648E-04  1.53746838E-05 -1.27642257E-07  8.36278513E-05 -9.19903813E-05
 -5.82926496E-05 -5.89682866E-05 -1.59008013E-06 -7.41840185E-07  9.94697413E-01
  2.10659808E-02 -2.84087388E-04 -1.59815669E-03 -7.19487507E-06  4.15785684E-03
  2.20967416E-05  1.17529708E-04 -3.57413017E-07 -3.88494282E-03 -3.58441840E-03
 -4.06520336E-03  5.85073476E-05  1.75211983E-07  3.76551002E-06 -1.02282290E-05
 -4.70327943E-05 -2.30375525E-05 -2.14432861E-05 -2.42989968E-06  3.15374534E-04
 -8.74130196E-05  6.31437300E-05  2.32904256E-05  9.09966971E-05 -9.76163292E-05
 -4.73598653E-05 -2.57553953E-05 -4.96217613E-06  1.92719960E-06 -3.38945971E-06
  1.69616280E-05  9.45877493E-06  1.94310272E-05 -2.38252575E-07  1.63393787E-04
 -1.87043622E-04 -7.54018409E-05  8.61355649E-07 -2.78766505E-05 -3.02376648E-05
 -1.54457377E-05  1.58446537E-05 -3.83395651E-07  1.77367008E-07  2.81588804E-06
  1.29984839E-05 -8.89921676E-06 -2.14987515E-06 -9.40564563E-08 -1.98403126E-04
 -4.76630883E-05 -6.68708755E-05  8.25347889E-07  3.91186919E-06 -1.04049548E-06
  5.09712852E-06 -3.59176355E-06  3.29503049E-09  5.26612028E-09 -5.70576261E-07
  5.43996896E-04  1.72551081E-05 -5.12728381E-05 -7.80279310E-07 -5.50993711E-04
 -1.50010250E-04 -8.73423367E-05  4.93218754E-07 -8.15881618E-05 -8.36919773E-04
 -2.99987097E-05 -1.59122823E-04 -2.78284509E-06 -9.36961506E-06  2.41934943E-05
 -5.41243240E-05  2.38313483E-05 -5.12091183E-05  8.66034966E-06  2.15459027E-05
  3.10980201E-06  2.49839533E-06  3.01740513E-06  2.05049287E-06  1.39412023E-05
 -5.32947308E-05 -2.55983234E-05 -1.95450209E-05 -4.11065971E-07 -6.58628337E-05
 -3.41221035E-05 -2.06773158E-05  1.39715846E-06  5.50954030E-05 -3.10654096E-05
  2.31671233E-04 -1.97950253E-05 -2.04041752E-05  2.63996102E-05 -7.11683752E-05
  2.14343447E-05 -3.08023006E-06 -3.65957231E-06 -1.96415291E-05 -1.28956042E-04
  1.66854293E-06  2.03825906E-05  2.00256376E-06  7.75076747E-04 -3.66470762E-04
 -1.42919138E-04 -3.35004972E-05 -4.14048160E-05 -6.01687701E-05 -1.03999435E-04
  9.43188679E-05  3.13596473E-06  7.78777881E-06  9.94929865E-01  2.52772657E-02
 -1.99581906E-04  2.07192549E-04  7.32040239E-04 -2.95585537E-03  6.98275316E-04
 -6.78891735E-04 -4.99755278E-04 -3.52531965E-03 -3.52322433E-03 -3.38769889E-03
  6.61698666E-06 -1.94118367E-06  6.46252282E-06 -1.36920162E-05 -5.42782968E-05
 -4.36152117E-05  7.88263374E-06  2.05420046E-06  9.01444150E-05  3.51122047E-04
  1.14475179E-04 -3.70497528E-06 -1.29315207E-05 -2.81329343E-05 -1.95033472E-05
  2.92772266E-07  2.34762689E-07 -1.77613471E-06 -5.02855804E-06 -2.58159563E-05
  4.79975661E-06  3.94823117E-06 -1.31870115E-06  2.67418366E-04  8.16484549E-05
  8.59472181E-05  6.59804646E-06 -3.40937761E-06  1.25516252E-06 -1.09218881E-05
  7.37103406E-06  4.42643605E-07 -5.68871000E-07  9.86518387E-06  2.31522543E-04
  1.25397471E-04 -1.52226515E-04 -5.84858787E-06  1.32827301E-03  1.22572584E-03
 -1.46066673E-03  7.79054541E-05 -1.34076369E-04 -1.69556947E-04 -7.05889415E-05
  6.54323751E-05  6.21031524E-06 -2.43519572E-06 -1.45572195E-05 -2.28684844E-05
 -2.08932254E-05 -9.67754526E-06 -1.29633995E-05 -6.85188270E-06 -5.19071509E-06
 -3.12360973E-07 -7.39070052E-06 -4.67461697E-06  2.87194683E-04  3.15951915E-04
  2.89759628E-04  3.06508723E-04 -8.45828398E-05  6.65992176E-04  1.44402620E-04
  1.95846885E-04  1.00991305E-06 -1.76926341E-03 -9.28992360E-04 -1.44639523E-03
 -8.92367456E-06 -5.32418623E-04  1.41266992E-05  4.68361069E-04 -2.81119741E-04
  3.52112833E-06 -2.20505451E-06 -2.98310207E-04  4.70852216E-04 -1.01726669E-04
 -3.24441269E-04  2.30387390E-06 -2.01636010E-03  5.32622151E-04  1.25327497E-03
 -1.73253559E-05  5.51752862E-05  1.51955350E-04  2.93214204E-04 -5.14479744E-05
  2.26786650E-06  2.12236644E-06 -2.79770526E-04  1.58077079E-04  1.53201735E-04
 -7.87189658E-05  1.18177453E-05  9.66912091E-04 -3.06454298E-04 -2.60366998E-04
 -9.49330216E-05 -4.45415874E-04 -3.34971060E-04  1.98647519E-05  3.06327603E-04
 -1.56963095E-06 -3.10000374E-05 -8.10986504E-05 -3.19401781E-04  3.32911317E-05
 -8.66118691E-05  3.12839590E-06  1.16194721E-03  1.11275133E-03 -1.30790732E-04
 -7.65841013E-06  2.37866745E-04 -4.58973092E-06  6.52787470E-07 -1.23857784E-04
  7.17464588E-07 -2.24971896E-06  3.78630840E-05  1.16176681E-04  8.44150048E-05
 -5.44741132E-05 -1.18876089E-06 -1.12433884E-04 -4.37665021E-04  5.18535135E-04
  6.69491741E-06 -4.50393355E-06  8.22897253E-05  1.30659717E-05 -1.93564623E-05
  9.00207532E-07 -9.49464524E-07  9.95844091E-01  2.53464416E-02 -6.75936756E-04
 -4.24735037E-04 -5.64528991E-05 -3.85371451E-03 -2.07268991E-04  1.46449953E-03
  9.70426054E-05 -1.00986775E-03 -6.20673241E-04 -2.37467841E-03  1.16558031E-04
 -1.90566811E-05  3.17237186E-05 -1.48549283E-04 -2.67451119E-05 -1.56013218E-04
 -1.66272297E-05 -6.50027895E-05 -2.56288388E-04  7.53878071E-05  1.33395379E-04
  7.26172075E-05  1.27862563E-04 -5.84002720E-05  1.05650708E-04  1.01506781E-04
  3.10811217E-04 -1.35475053E-04  2.06871548E-04 -1.44655845E-04  1.76745417E-04
  2.37871108E-06  1.31959963E-03 -1.40676800E-05 -5.80356896E-04 -1.24718203E-05
 -4.96129018E-04 -4.42087111E-04  1.32069873E-04  4.34442964E-04 -3.58181481E-06
  8.81173786E-07  6.41631162E-06  7.37672083E-06  2.60934828E-05  3.47483646E-05
  1.63178334E-06 -6.33013266E-04  2.47455351E-04  1.90643440E-05 -9.12715969E-06
  5.94180368E-05  2.47237263E-05 -6.95722581E-05 -3.67666713E-05  1.86947504E-06
  1.24911410E-06 -3.75725274E-05 -1.37512914E-04 -3.17647903E-05 -3.06402493E-05
 -2.87935147E-06  1.73674809E-03 -2.07813749E-04  6.57217307E-04  5.68669931E-05
 -7.89125857E-05 -6.65611888E-05 -6.46357330E-05 -4.40997444E-06  1.69826993E-05
  1.67519399E-05  9.95890142E-01  2.75583541E-02  8.66707627E-04 -7.38567724E-04
  6.96748512E-06 -1.40295441E-02 -2.02912591E-04  1.38079862E-04  6.67763046E-07
 -1.42980501E-03 -1.43166064E-03 -1.46833115E-03 -3.38741354E-05  5.56950663E-08
 -1.21869469E-06  4.96707236E-03  2.37378983E-04 -3.12595085E-05  2.70436956E-06
 -5.13974571E-07  2.95732577E-03  1.44274336E-03  6.91378887E-04 -2.01337861E-06
 -3.89019515E-04 -2.18712070E-04 -1.01285789E-04 -1.91330044E-04  1.19027531E-06
  4.22197272E-07  3.51501542E-05 -2.72938517E-04  5.82568157E-05 -4.52842167E-05
 -3.33013161E-07  9.17858386E-05 -1.79321924E-03  1.41589727E-03  4.88027630E-05
  1.53873627E-04  4.50252694E-05 -6.17044988E-05 -1.43379406E-05  3.84217087E-06
 -2.44553867E-06  2.25275942E-04  2.52573163E-03  2.24446070E-04  2.53350215E-03
 -7.78408895E-05  1.27612009E-04 -1.43332213E-04  1.16423049E-04 -1.44759783E-04
  1.16293584E-04  5.27582109E-05  3.83616030E-05 -1.13734088E-04 -2.09672153E-05
 -9.11394493E-06 -1.19049335E-04  1.03799630E-04  2.38971118E-05 -4.88722750E-07
  9.46377876E-05 -4.42032549E-04 -1.42674262E-04  6.61100707E-07  7.53026490E-05
 -5.18875685E-05 -1.14756489E-04 -1.34194357E-05 -4.34169095E-08 -1.12930429E-06