174                                                                     
Freq      RMP2-FC                                                     6-31G(d)            
Number of atoms                            I               10
Info1-9                                    I   N=           9
          22          20        1002           0           0         100
           6           2           1
Charge                                     I                0
Multiplicity                               I                1
Number of electrons                        I               34
Number of alpha electrons                  I               17
Number of beta electrons                   I               17
Number of basis functions                  I               72
Number of independent functions            I               72
Number of point charges in /Mol/           I                0
Number of translation vectors              I                0
Atomic numbers                             I   N=          10
           8           8           6           6           1           1
           1           1           1           1
Nuclear charges                            R   N=          10
  8.00000000E+00  8.00000000E+00  6.00000000E+00  6.00000000E+00  1.00000000E+00
  1.00000000E+00  1.00000000E+00  1.00000000E+00  1.00000000E+00  1.00000000E+00
Current cartesian coordinates              R   N=          30
  2.57554596E+00 -1.13524987E+00  1.02064541E-01 -2.66507217E+00 -1.10282365E+00
 -3.09098902E-01  1.27616882E+00  1.15632119E+00 -5.44483887E-01 -1.37909549E+00
  1.09450467E+00  5.34945617E-01  2.32353591E+00  2.83151645E+00  9.12340091E-02
  1.19081445E+00  1.16964057E+00 -2.60573960E+00 -2.47481200E+00  2.73023923E+00
 -9.55899483E-02 -1.28306648E+00  1.15882823E+00  2.61641889E+00  2.99077394E+00
 -1.04019501E+00  1.89065632E+00 -1.41347616E+00 -2.45039644E+00 -1.83475167E-01
Force Field                                I                0
Int Atom Types                             I   N=          10
           0           0           0           0           0           0
           0           0           0           0
MM charges                                 R   N=          10
  0.00000000E+00  0.00000000E+00  0.00000000E+00  0.00000000E+00  0.00000000E+00
  0.00000000E+00  0.00000000E+00  0.00000000E+00  0.00000000E+00  0.00000000E+00
Integer atomic weights                     I   N=          10
          16          16          12          12           1           1
           1           1           1           1
Real atomic weights                        R   N=          10
  1.59949146E+01  1.59949146E+01  1.20000000E+01  1.20000000E+01  1.00782504E+00
  1.00782504E+00  1.00782504E+00  1.00782504E+00  1.00782504E+00  1.00782504E+00
Atom fragment info                         I   N=          10
           0           0           0           0           0           0
           0           0           0           0
Atom residue num                           I   N=          10
           0           0           0           0           0           0
           0           0           0           0
Nuclear spins                              I   N=          10
           0           0           0           0           1           1
           1           1           1           1
Nuclear ZEff                               R   N=          10
 -5.60000000E+00 -5.60000000E+00 -3.60000000E+00 -3.60000000E+00 -1.00000000E+00
 -1.00000000E+00 -1.00000000E+00 -1.00000000E+00 -1.00000000E+00 -1.00000000E+00
Nuclear QMom                               R   N=          10
  0.00000000E+00  0.00000000E+00  0.00000000E+00  0.00000000E+00  0.00000000E+00
  0.00000000E+00  0.00000000E+00  0.00000000E+00  0.00000000E+00  0.00000000E+00
Nuclear GFac                               R   N=          10
  0.00000000E+00  0.00000000E+00  0.00000000E+00  0.00000000E+00  2.79284600E+00
  2.79284600E+00  2.79284600E+00  2.79284600E+00  2.79284600E+00  2.79284600E+00
MicOpt                                     I   N=          10
          -1          -1          -1          -1          -1          -1
          -1          -1          -1          -1
Number of contracted shells                I               28
Number of primitive shells                 I               68
Pure/Cartesian d shells                    I                1
Pure/Cartesian f shells                    I                0
Highest angular momentum                   I                2
Largest degree of contraction              I                6
Shell types                                I   N=          28
           0          -1          -1           2           0          -1
          -1           2           0          -1          -1           2
           0          -1          -1           2           0           0
           0           0           0           0           0           0
           0           0           0           0
Number of primitives per shell             I   N=          28
           6           3           1           1           6           3
           1           1           6           3           1           1
           6           3           1           1           3           1
           3           1           3           1           3           1
           3           1           3           1
Shell to atom map                          I   N=          28
           1           1           1           1           2           2
           2           2           3           3           3           3
           4           4           4           4           5           5
           6           6           7           7           8           8
           9           9          10          10
Primitive exponents                        R   N=          68
  5.48467166E+03  8.25234946E+02  1.88046958E+02  5.29645000E+01  1.68975704E+01
  5.79963534E+00  1.55396162E+01  3.59993359E+00  1.01376175E+00  2.70005823E-01
  8.00000000E-01  5.48467166E+03  8.25234946E+02  1.88046958E+02  5.29645000E+01
  1.68975704E+01  5.79963534E+00  1.55396162E+01  3.59993359E+00  1.01376175E+00
  2.70005823E-01  8.00000000E-01  3.04752488E+03  4.57369518E+02  1.03948685E+02
  2.92101553E+01  9.28666296E+00  3.16392696E+00  7.86827235E+00  1.88128854E+00
  5.44249258E-01  1.68714478E-01  8.00000000E-01  3.04752488E+03  4.57369518E+02
  1.03948685E+02  2.92101553E+01  9.28666296E+00  3.16392696E+00  7.86827235E+00
  1.88128854E+00  5.44249258E-01  1.68714478E-01  8.00000000E-01  1.87311370E+01
  2.82539436E+00  6.40121692E-01  1.61277759E-01  1.87311370E+01  2.82539436E+00
  6.40121692E-01  1.61277759E-01  1.87311370E+01  2.82539436E+00  6.40121692E-01
  1.61277759E-01  1.87311370E+01  2.82539436E+00  6.40121692E-01  1.61277759E-01
  1.87311370E+01  2.82539436E+00  6.40121692E-01  1.61277759E-01  1.87311370E+01
  2.82539436E+00  6.40121692E-01  1.61277759E-01
Contraction coefficients                   R   N=          68
  1.83107443E-03  1.39501722E-02  6.84450781E-02  2.32714336E-01  4.70192898E-01
  3.58520853E-01 -1.10777550E-01 -1.48026263E-01  1.13076702E+00  1.00000000E+00
  1.00000000E+00  1.83107443E-03  1.39501722E-02  6.84450781E-02  2.32714336E-01
  4.70192898E-01  3.58520853E-01 -1.10777550E-01 -1.48026263E-01  1.13076702E+00
  1.00000000E+00  1.00000000E+00  1.83473713E-03  1.40373228E-02  6.88426223E-02
  2.32184443E-01  4.67941348E-01  3.62311985E-01 -1.19332420E-01 -1.60854152E-01
  1.14345644E+00  1.00000000E+00  1.00000000E+00  1.83473713E-03  1.40373228E-02
  6.88426223E-02  2.32184443E-01  4.67941348E-01  3.62311985E-01 -1.19332420E-01
 -1.60854152E-01  1.14345644E+00  1.00000000E+00  1.00000000E+00  3.34946043E-02
  2.34726953E-01  8.13757326E-01  1.00000000E+00  3.34946043E-02  2.34726953E-01
  8.13757326E-01  1.00000000E+00  3.34946043E-02  2.34726953E-01  8.13757326E-01
  1.00000000E+00  3.34946043E-02  2.34726953E-01  8.13757326E-01  1.00000000E+00
  3.34946043E-02  2.34726953E-01  8.13757326E-01  1.00000000E+00  3.34946043E-02
  2.34726953E-01  8.13757326E-01  1.00000000E+00
P(S=P) Contraction coefficients            R   N=          68
  0.00000000E+00  0.00000000E+00  0.00000000E+00  0.00000000E+00  0.00000000E+00
  0.00000000E+00  7.08742682E-02  3.39752839E-01  7.27158577E-01  1.00000000E+00
  0.00000000E+00  0.00000000E+00  0.00000000E+00  0.00000000E+00  0.00000000E+00
  0.00000000E+00  0.00000000E+00  7.08742682E-02  3.39752839E-01  7.27158577E-01
  1.00000000E+00  0.00000000E+00  0.00000000E+00  0.00000000E+00  0.00000000E+00
  0.00000000E+00  0.00000000E+00  0.00000000E+00  6.89990666E-02  3.16423961E-01
  7.44308291E-01  1.00000000E+00  0.00000000E+00  0.00000000E+00  0.00000000E+00
  0.00000000E+00  0.00000000E+00  0.00000000E+00  0.00000000E+00  6.89990666E-02
  3.16423961E-01  7.44308291E-01  1.00000000E+00  0.00000000E+00  0.00000000E+00
  0.00000000E+00  0.00000000E+00  0.00000000E+00  0.00000000E+00  0.00000000E+00
  0.00000000E+00  0.00000000E+00  0.00000000E+00  0.00000000E+00  0.00000000E+00
  0.00000000E+00  0.00000000E+00  0.00000000E+00  0.00000000E+00  0.00000000E+00
  0.00000000E+00  0.00000000E+00  0.00000000E+00  0.00000000E+00  0.00000000E+00
  0.00000000E+00  0.00000000E+00  0.00000000E+00
Coordinates of each shell                  R   N=          84
  2.57554596E+00 -1.13524987E+00  1.02064541E-01  2.57554596E+00 -1.13524987E+00
  1.02064541E-01  2.57554596E+00 -1.13524987E+00  1.02064541E-01  2.57554596E+00
 -1.13524987E+00  1.02064541E-01 -2.66507217E+00 -1.10282365E+00 -3.09098902E-01
 -2.66507217E+00 -1.10282365E+00 -3.09098902E-01 -2.66507217E+00 -1.10282365E+00
 -3.09098902E-01 -2.66507217E+00 -1.10282365E+00 -3.09098902E-01  1.27616882E+00
  1.15632119E+00 -5.44483887E-01  1.27616882E+00  1.15632119E+00 -5.44483887E-01
  1.27616882E+00  1.15632119E+00 -5.44483887E-01  1.27616882E+00  1.15632119E+00
 -5.44483887E-01 -1.37909549E+00  1.09450467E+00  5.34945617E-01 -1.37909549E+00
  1.09450467E+00  5.34945617E-01 -1.37909549E+00  1.09450467E+00  5.34945617E-01
 -1.37909549E+00  1.09450467E+00  5.34945617E-01  2.32353591E+00  2.83151645E+00
  9.12340091E-02  2.32353591E+00  2.83151645E+00  9.12340091E-02  1.19081445E+00
  1.16964057E+00 -2.60573960E+00  1.19081445E+00  1.16964057E+00 -2.60573960E+00
 -2.47481200E+00  2.73023923E+00 -9.55899483E-02 -2.47481200E+00  2.73023923E+00
 -9.55899483E-02 -1.28306648E+00  1.15882823E+00  2.61641889E+00 -1.28306648E+00
  1.15882823E+00  2.61641889E+00  2.99077394E+00 -1.04019501E+00  1.89065632E+00
  2.99077394E+00 -1.04019501E+00  1.89065632E+00 -1.41347616E+00 -2.45039644E+00
 -1.83475167E-01 -1.41347616E+00 -2.45039644E+00 -1.83475167E-01
Constraint Structure                       R   N=          30
  2.57554596E+00 -1.13524987E+00  1.02064541E-01 -2.66507217E+00 -1.10282365E+00
 -3.09098902E-01  1.27616882E+00  1.15632119E+00 -5.44483887E-01 -1.37909549E+00
  1.09450467E+00  5.34945617E-01  2.32353591E+00  2.83151645E+00  9.12340091E-02
  1.19081445E+00  1.16964057E+00 -2.60573960E+00 -2.47481200E+00  2.73023923E+00
 -9.55899483E-02 -1.28306648E+00  1.15882823E+00  2.61641889E+00  2.99077394E+00
 -1.04019501E+00  1.89065632E+00 -1.41347616E+00 -2.45039644E+00 -1.83475167E-01
Num ILSW                                   I              100
ILSW                                       I   N=         100
           0           1           0           0           2           0
           0           0           0           0           0          -1
           0           0           0           0           0           0
           0           0           0           0           1           0
           1           0           0           0           0           0
           0           0      100000           0          -1           0
           0           0           0           0           0           0
           0           0           0           1           1           0
           0           0           1           0           0           0
           0           0           4          40           0           0
           0           0           0           0           0           0
           0           0           0           0           0           0
           0           0           0           0           0           0
           0           0           0           0           0           0
           0           0           0           0           0           0
           0           0           0           0           0           0
           0           0           0           0
Num RLSW                                   I               40
RLSW                                       R   N=          40
  1.00000000E+00  1.00000000E+00  1.00000000E+00  1.00000000E+00  1.00000000E+00
  0.00000000E+00  0.00000000E+00  1.00000000E+00  0.00000000E+00  0.00000000E+00
  0.00000000E+00  0.00000000E+00  1.00000000E+00  0.00000000E+00  0.00000000E+00
  0.00000000E+00  0.00000000E+00  1.00000000E+00  0.00000000E+00  0.00000000E+00
  0.00000000E+00  0.00000000E+00  1.00000000E+00  0.00000000E+00  0.00000000E+00
  0.00000000E+00  0.00000000E+00  1.00000000E+00  0.00000000E+00  0.00000000E+00
  0.00000000E+00  0.00000000E+00  0.00000000E+00  0.00000000E+00  0.00000000E+00
  0.00000000E+00  0.00000000E+00  0.00000000E+00  1.00000000E+00  1.00000000E+00
MxBond                                     I                4
NBond                                      I   N=          10
           2           2           4           4           1           1
           1           1           1           1
IBond                                      I   N=          40
           3           9           0           0           4          10
           0           0           1           4           5           6
           2           3           7           8           3           0
           0           0           3           0           0           0
           4           0           0           0           4           0
           0           0           1           0           0           0
           2           0           0           0
RBond                                      R   N=          40
  1.00000000E+00  1.00000000E+00  0.00000000E+00  0.00000000E+00  1.00000000E+00
  1.00000000E+00  0.00000000E+00  0.00000000E+00  1.00000000E+00  1.00000000E+00
  1.00000000E+00  1.00000000E+00  1.00000000E+00  1.00000000E+00  1.00000000E+00
  1.00000000E+00  1.00000000E+00  0.00000000E+00  0.00000000E+00  0.00000000E+00
  1.00000000E+00  0.00000000E+00  0.00000000E+00  0.00000000E+00  1.00000000E+00
  0.00000000E+00  0.00000000E+00  0.00000000E+00  1.00000000E+00  0.00000000E+00
  0.00000000E+00  0.00000000E+00  1.00000000E+00  0.00000000E+00  0.00000000E+00
  0.00000000E+00  1.00000000E+00  0.00000000E+00  0.00000000E+00  0.00000000E+00
Virial Ratio                               R      2.002633150393252E+00
SCF Energy                                 R     -2.289217124729384E+02
MP2 Energy                                 R     -2.295429352245137E+02
Total Energy                               R     -2.295429352245137E+02
Post-SCF wavefunction norm                 R      1.536938871455012E+00
RMS Force                                  R      6.614953723094295E-07
RMS Density                                R      4.147589055083015E-10
External E-field                           R   N=          35
  0.00000000E+00  0.00000000E+00  0.00000000E+00  0.00000000E+00  0.00000000E+00
  0.00000000E+00  0.00000000E+00  0.00000000E+00  0.00000000E+00  0.00000000E+00
  0.00000000E+00  0.00000000E+00  0.00000000E+00  0.00000000E+00  0.00000000E+00
  0.00000000E+00  0.00000000E+00  0.00000000E+00  0.00000000E+00  0.00000000E+00
  0.00000000E+00  0.00000000E+00  0.00000000E+00  0.00000000E+00  0.00000000E+00
  0.00000000E+00  0.00000000E+00  0.00000000E+00  0.00000000E+00  0.00000000E+00
  0.00000000E+00  0.00000000E+00  0.00000000E+00  0.00000000E+00  0.00000000E+00
IOpCl                                      I                0
IROHF                                      I                0
Alpha Orbital Energies                     R   N=          72
 -2.05805640E+01 -2.05549937E+01 -1.12861083E+01 -1.12790229E+01 -1.37660363E+00
 -1.34142157E+00 -1.00074833E+00 -8.48806416E-01 -7.02509599E-01 -6.87050878E-01
 -6.41889242E-01 -6.12304154E-01 -5.67711368E-01 -5.19999470E-01 -5.07171009E-01
 -4.68590919E-01 -4.32447982E-01  2.04395389E-01  2.65282538E-01  2.84857404E-01
  2.88332453E-01  3.03830992E-01  3.23646896E-01  3.76603855E-01  4.11562094E-01
  4.26173007E-01  7.46742653E-01  7.83849403E-01  8.05353826E-01  8.09425213E-01
  8.91584105E-01  9.12775841E-01  1.05591204E+00  1.07590073E+00  1.11343685E+00
  1.12265588E+00  1.14745165E+00  1.16895810E+00  1.18996582E+00  1.22220661E+00
  1.26277506E+00  1.27393236E+00  1.33760479E+00  1.40203185E+00  1.48380398E+00
  1.59808278E+00  1.68157144E+00  1.72200616E+00  1.74585059E+00  1.91104219E+00
  1.97180055E+00  1.99758850E+00  2.08746333E+00  2.14218183E+00  2.23796333E+00
  2.35795858E+00  2.39634798E+00  2.44035129E+00  2.46256096E+00  2.60526903E+00
  2.67217774E+00  2.72038832E+00  2.74952949E+00  2.83227684E+00  2.85678915E+00
  3.01647289E+00  3.15438656E+00  3.21435031E+00  4.12777159E+00  4.19461334E+00
  4.63438055E+00  4.84021437E+00
Alpha MO coefficients                      R   N=        5184
  9.94659339E-01  2.11235943E-02 -2.74409375E-04  9.24335845E-04  8.51805054E-04
  3.98022879E-03  1.03782981E-04 -4.61309083E-04 -4.18917170E-04 -3.93408945E-03
 -4.10257384E-03 -4.10487235E-03  1.48381633E-04 -8.81981662E-05  3.52170052E-05
 -9.02820907E-05  2.35649969E-05  1.19059187E-06  2.09520221E-05  3.52486938E-06
 -1.31141382E-04 -2.37884808E-05 -1.64627447E-04 -4.21258595E-05  2.31050287E-06
  1.26923278E-05  1.85844864E-05 -1.99701532E-05 -8.24839734E-06 -9.40521122E-06
 -2.38099846E-05  2.02500505E-04  1.73993648E-04 -3.07250077E-04  6.01055978E-05
  1.09080631E-04 -5.23678001E-05  2.46673335E-04  2.97304180E-04 -8.58519566E-06
  3.08952165E-05 -5.87353365E-05 -5.67132096E-05  1.92840921E-05 -4.65969213E-05
 -4.30624853E-06  1.31837473E-05 -4.98899494E-05  1.22539866E-05 -8.95474652E-07
  4.17585313E-05 -1.33832403E-04 -2.08340805E-04 -8.65460806E-05 -5.59406659E-05
 -6.87608049E-06 -1.61934503E-05  2.95468787E-05 -1.16065281E-06  1.57949959E-05
 -6.42267479E-05 -1.36674370E-04  2.62609891E-05  3.90461430E-05  9.73167722E-06
  1.89312183E-05 -1.45653727E-06  2.73522649E-05  3.98041582E-04 -2.25292804E-04
 -4.72872982E-06 -1.96316123E-04  9.68496717E-05  1.26777617E-05  2.97163278E-06
  5.36125267E-06 -2.32621600E-06 -4.43017184E-05  1.91957237E-05 -2.31751211E-05
  3.42670551E-05 -1.01822280E-05  9.85527799E-06 -2.35100696E-06  9.66586748E-06
  7.70686168E-07  9.25973321E-06  9.94661902E-01  2.11605210E-02  1.23402841E-03
  9.45789418E-05  4.21779305E-04  3.90802215E-03 -6.06386901E-04 -4.01290327E-05
 -2.03411922E-04 -4.03993731E-03 -4.16207567E-03 -3.87098136E-03 -1.44250657E-05
 -7.92384743E-05 -8.59180155E-05 -5.53514301E-06  2.01654840E-05  5.50709234E-05
  2.87361474E-05  1.39320562E-05 -1.07477485E-04  4.55120058E-05 -1.16398634E-04
 -2.33090812E-04 -5.56699691E-05 -2.59535473E-05 -2.91635145E-05 -2.68205117E-05
  1.36815679E-05 -8.34106723E-08 -2.37878951E-05  2.39721521E-04 -1.99433788E-04
 -2.92305566E-04 -1.29105353E-04  2.06346245E-04  3.87268636E-04 -1.46307679E-05
  1.59929101E-04 -3.16119544E-05  1.79830199E-06 -5.26553679E-05  4.08902467E-05
 -7.51861010E-06  3.50926840E-05  2.80877266E-05  7.56595716E-05 -1.27604582E-05
 -1.39660298E-04  1.31030542E-05  3.92650937E-05 -5.43147212E-05 -1.30754220E-04
 -2.75730340E-08 -1.99502498E-06  4.05161710E-04 -2.47929745E-04 -1.61543691E-04
  3.22940041E-05 -5.32142093E-05  1.00902999E-04  2.44640413E-05  2.06965584E-03
 -2.02939137E-04  1.25045093E-04 -2.10803645E-04 -1.87504339E-04 -6.09643056E-04
 -9.49365841E-05  3.68939928E-04 -1.08390033E-04  2.23683630E-04 -3.99590474E-05
 -1.94681911E-04 -7.51125731E-05 -4.41455286E-05  1.34751656E-05  4.52570163E-04
  1.92179726E-04  1.28974046E-04 -6.36768814E-06  9.56183200E-06 -1.46934813E-04
 -1.86212072E-04  3.70356631E-05 -6.45749218E-05  3.36582437E-05  9.94848092E-01
  2.76519548E-02  3.14420893E-04 -6.74113649E-04  2.77152980E-04 -1.44754354E-02
  9.97831113E-04  3.14133014E-04 -1.60100508E-04 -1.57977102E-03 -1.48954149E-03
 -1.53078938E-03 -1.98616144E-05  5.85291488E-05  1.76555034E-05  4.49570265E-02
  1.24796808E-03  8.79990856E-05  2.84213333E-05 -1.88022516E-05  3.39766167E-03
  1.79711216E-03  4.81361520E-05 -6.94016264E-04 -4.54742379E-04 -2.61421742E-04
 -2.52823037E-04 -2.09025547E-05  1.08320964E-04 -3.81045165E-05  1.06308243E-04
  2.35477661E-03  2.06566929E-04  2.68239292E-03 -1.28791434E-04  1.18716467E-04
 -1.55198319E-04  1.72312679E-04  1.61977066E-05  3.77066550E-04 -6.05093506E-05
  1.63330459E-04 -4.12072607E-05 -2.66247019E-04  7.90584764E-05 -4.93435372E-05
 -3.18214488E-05  6.32175506E-04 -1.41564751E-04  1.35825660E-04  1.61498650E-04
 -5.52463843E-05 -1.53266699E-04 -1.84230360E-04 -7.12282089E-05 -4.94605505E-05
 -3.51090707E-05 -1.76565890E-04  6.09315951E-06  8.66943440E-05  7.80372289E-05
  3.42509988E-05  2.13755363E-03  3.10655267E-05  1.60256233E-04  1.13971255E-05
 -2.46064796E-04 -6.23203002E-04 -9.64238096E-05 -3.11844334E-04 -1.12011159E-04
 -2.62278762E-04 -4.52864936E-02 -1.23002336E-03 -9.56190212E-05  8.72919897E-05
 -8.87638951E-07  4.58826274E-03 -1.92590941E-03 -3.91742551E-06  6.17738687E-04
 -3.24119157E-04 -1.22950566E-04 -1.09689027E-04 -2.94111276E-06  1.13165152E-04
  5.30237590E-05  9.94856109E-01  2.76393176E-02 -1.92090422E-04 -5.98706358E-04
 -2.16466049E-04 -1.47294227E-02 -1.11639339E-03 -6.51033733E-05  3.53744455E-04
 -1.53448044E-03 -1.44742519E-03 -1.56392409E-03  4.03244559E-05  6.61731198E-05
  2.45035099E-05 -1.31574759E-04 -6.00186025E-05 -1.89570128E-04 -5.05184155E-05
  1.62340827E-04  2.51035040E-03  1.71472245E-04  2.60744789E-03 -1.17361280E-04
 -1.01997650E-04  6.04693339E-05  1.94013664E-04 -1.73440087E-01  3.88370873E-01
 -2.32078600E-02  5.54486079E-02  4.15206897E-02  3.74700614E-01 -1.75224753E-02
  3.25554019E-02  2.53173321E-02  3.39288020E-03  8.64801213E-03  1.70066125E-02
 -6.29847039E-03  5.27274977E-03  7.37249578E-04 -9.48820671E-02  2.12737129E-01
  4.45573685E-02  8.62141557E-03  1.36981412E-02  1.99170597E-01  2.61521428E-02
  4.47236916E-03  7.83237799E-03  8.92638736E-03  8.58714506E-03 -2.12146052E-04
 -1.97815464E-03  2.80578034E-03  1.55173136E-03 -6.62369841E-02  1.22099749E-01
  2.26427400E-02 -6.75245772E-02  2.51659634E-02  4.62878249E-02 -4.41956325E-04
  2.18126869E-03  4.27118891E-03  2.98539019E-03  1.23205001E-02 -1.90731728E-03
 -1.04154639E-02  3.04516752E-03 -6.75425433E-03 -4.61131748E-02  8.59683928E-02
  2.02654741E-03 -4.15517467E-02 -1.88872595E-02  3.47268182E-02  4.05287810E-03
 -1.03157180E-03 -1.01567737E-03  4.11999071E-03  6.86965127E-03 -1.03809958E-03
  5.04572595E-03  5.32910762E-04  4.50683162E-03  2.20482824E-02  3.42008268E-04
  2.44414167E-02  5.71799588E-03  1.46340324E-02  5.98713046E-04  1.63470655E-02
  4.08794396E-03  1.00138980E-01 -2.55655300E-03  5.73662681E-02 -1.03604383E-03
  1.05726150E-01 -2.39812816E-01  2.94419673E-03 -3.06310588E-02 -2.85047626E-02
 -2.28627721E-01  1.56380857E-03 -2.02543565E-02 -1.74479313E-02 -9.52983600E-04
 -6.02416949E-03 -1.23636318E-02  3.33031185E-03 -3.35721169E-03 -6.49602567E-04
 -1.77733631E-01  3.98630243E-01  6.95118660E-02  1.06665728E-02  2.39802057E-02
  3.87273738E-01  4.36823553E-02  3.32772632E-03  1.42309843E-02  1.33939669E-02
  1.60963341E-02 -3.14659199E-04 -5.00397906E-03  4.60835097E-03  2.35043088E-03
  2.19598583E-02 -3.95984325E-02 -4.47442810E-02  3.49726270E-02 -9.16778467E-03
 -8.97854704E-03 -4.70070880E-03 -1.13306225E-03 -1.08363082E-03  4.07302569E-03
 -8.52922320E-03  1.47579373E-03  7.84268430E-03 -4.57924549E-03  3.79100141E-03
 -5.75508916E-02  1.05966529E-01 -4.64717032E-02 -7.05712557E-02 -2.55935623E-02
  3.91483722E-02 -2.59707764E-03  6.78199207E-04  2.48623478E-03 -2.34044743E-03
  1.48747603E-02 -2.51552008E-03  1.11944118E-02  5.67950343E-03  8.02784536E-03
 -9.46640718E-03 -2.99138751E-03 -7.08338534E-03 -1.14397918E-03  2.10201647E-02
  3.68024872E-03  1.92007667E-02 -1.83261976E-04 -6.50796116E-02  2.12604725E-03
  1.00987846E-01 -9.47478345E-03  5.40137846E-02 -1.21312426E-01 -6.13940898E-02
  7.17282086E-02 -6.32901833E-02 -1.61897768E-01 -2.87422166E-02  3.49490829E-02
 -3.53977096E-02  1.94649608E-03  9.25179359E-03 -1.19438811E-02 -7.33884287E-03
 -2.81326496E-03 -1.73649119E-03  5.66824038E-02 -1.28531513E-01  1.55152004E-02
  9.38004544E-02  1.13521520E-02 -1.61630982E-01  4.06670237E-03  4.62693957E-02
  4.52990769E-03 -1.22794594E-03 -1.02415438E-03 -8.70358982E-05  1.27084057E-02
  1.37135368E-03  3.54550949E-03 -1.36986287E-01  2.66472829E-01 -8.55477233E-02
  4.52922132E-02  9.95609986E-03  2.31915947E-01 -1.87623418E-02  2.33151388E-02
  2.76257151E-03  9.24459120E-03 -2.85116285E-03  6.98748735E-03  6.75870524E-03
 -6.06648374E-03  4.72687036E-03 -1.26671787E-01  2.47079097E-01  9.01842680E-02
  5.66037939E-02 -1.53348894E-02  2.08376185E-01  2.23936383E-02  2.08265878E-02
  4.45406902E-03  1.16903434E-02 -4.79118239E-03  6.00197187E-03 -6.35670717E-03
 -5.78204152E-03 -4.42776320E-03  9.15777281E-02  1.60489218E-02  8.93497466E-02
  1.79043684E-02  8.64522755E-02  1.74050133E-02  8.02224324E-02  1.49593713E-02
 -6.58473287E-02 -1.24110069E-02 -6.00193055E-02 -1.44191777E-02 -2.57433097E-02
  5.89909737E-02  6.72643006E-02 -1.17691248E-01  1.48211704E-01  8.43436540E-02
  3.94994027E-02 -6.35802155E-02  8.48205827E-02 -2.18043554E-03 -1.35481367E-02
  1.76716843E-02  7.03241368E-03  1.20113748E-03  5.20918960E-03  3.00308061E-02
 -6.56610387E-02 -1.82051301E-02  1.71846434E-01  5.86432967E-02 -1.04658510E-01
 -1.41596912E-02  9.66412849E-02  3.18655084E-02 -4.96349583E-03  3.11745111E-03
  3.62973127E-03  1.68460684E-02  3.77129684E-03  6.90281738E-03  1.06397027E-01
 -2.05950028E-01 -9.51720971E-02 -8.71402340E-03  8.83912982E-02 -2.37269023E-01
 -1.07402136E-02 -2.00827423E-02  2.11026617E-02  9.03547479E-03 -8.73214606E-03
 -8.49651632E-03 -2.99477884E-03 -7.08214634E-03 -4.01237069E-03 -1.16707185E-01
  2.26272369E-01 -9.76868981E-02  4.22893908E-02  6.72724580E-02  2.53956320E-01
 -1.74155876E-03  2.86764711E-02  2.66359861E-02 -5.52588290E-03  5.03944212E-03
  8.81989309E-03 -4.54121929E-03  9.53152498E-03 -3.21076130E-03 -9.53109921E-02
 -3.66697969E-02 -1.20344238E-01 -4.67331270E-02  1.18712669E-01  4.87170295E-02
  1.19064220E-01  4.65435464E-02  9.68402928E-02  3.34767765E-02 -8.64169180E-02
 -2.04015098E-02  3.94424547E-02 -9.07093890E-02  6.30080704E-02  1.53285653E-02
  3.20555701E-01 -1.55452322E-01  3.54285399E-02  9.49398945E-03  1.96021321E-01
 -6.31376177E-03 -4.89534608E-03  2.30970081E-02  4.01628060E-03 -6.24445249E-04
  1.50129158E-02  1.64083769E-03 -5.73112585E-03  5.90221457E-02 -2.41022185E-01
  1.85681742E-02 -2.02843655E-03  3.69662425E-02 -1.48345224E-01  1.33252464E-02
  6.77458791E-03 -1.87383001E-03 -1.57965455E-03 -1.95458288E-02  2.73296389E-03
 -5.62639805E-03 -2.15645577E-02  3.70865753E-02 -1.37577618E-02  1.78802532E-01
  1.68845361E-01  7.39465595E-02  5.08197026E-04  6.82786269E-02  9.55896572E-02
  3.62874611E-03 -3.12236993E-03 -2.20783214E-03  1.61479065E-02  5.61863984E-04
  3.03893088E-03  9.47095800E-03 -1.91002781E-02  1.55195132E-01  3.94839452E-02
  1.02521046E-01 -2.22743220E-02  4.61594180E-02  2.44654692E-04  3.53636175E-02
  1.22631246E-03 -8.72371486E-03  5.46291282E-03 -2.09084602E-03 -5.66880394E-03
 -4.55029325E-03  1.24078026E-01  7.23484755E-02 -6.87678229E-02 -3.31550978E-02
 -5.12695532E-02 -3.03039055E-02  5.42586543E-02  4.16376841E-02  1.57691401E-01
  7.59555179E-02  1.14457751E-01  4.17441185E-02  8.58217305E-03 -1.41409369E-02
  2.35406594E-01  3.67075900E-02  1.21574096E-01 -5.13434878E-02  1.59814197E-01
  2.57841771E-02  7.61699787E-02 -8.70783089E-03  3.35623377E-03  1.65234341E-02
  1.00623630E-02  8.10365055E-03  5.29681969E-03 -4.31127901E-02  9.99847054E-02
 -2.20405265E-01  1.61640899E-01 -6.20512163E-02  1.63063869E-01 -1.39397467E-01
  9.65951158E-02 -3.72916214E-02 -1.94431301E-02  5.09371703E-03  3.71265880E-03
  1.15221719E-02 -7.53128770E-03  2.58555280E-03 -2.02482409E-02  3.41589479E-02
  1.36835862E-01  1.97699979E-01 -6.73274025E-02  9.19678144E-02  4.99809212E-02
  7.57082588E-02 -1.31088183E-02  1.58768516E-04 -2.25410887E-03  7.02178385E-03
  9.99754031E-03  1.15698860E-02  8.57935588E-03  2.51268096E-02 -4.47039935E-02
 -1.63316103E-01  7.14116081E-02 -1.03419153E-01 -8.69069974E-02 -8.50940329E-02
  4.48182581E-02 -5.26227206E-02  3.61438193E-03  5.94436551E-03 -8.15212322E-03
  6.84957851E-03  8.19858768E-03 -2.44232085E-03  1.34790892E-01  8.80416538E-02
  5.47097513E-02  3.57594823E-02  7.21314447E-02  4.05928229E-02 -8.14254673E-02
 -4.23396557E-02  9.43755619E-02  4.66097127E-02 -1.26889362E-01 -5.54927673E-02
  2.63167182E-03 -4.42109869E-03 -5.86936366E-03  2.43288984E-01 -1.62318241E-01
 -9.47518235E-03 -2.26082886E-04  1.61966557E-01 -1.10115353E-01 -1.95529585E-03
  2.07302000E-02 -1.82315449E-02 -5.03592991E-03 -1.46916287E-03  1.13309064E-03
 -1.52096512E-02  3.49431665E-02 -1.42816995E-01  6.77490987E-03  1.91252560E-01
  5.82485140E-02 -9.50811636E-02  6.95876992E-04  1.22510592E-01 -1.26806043E-02
 -5.37726988E-04  8.96926489E-03  1.66847281E-04  7.92855082E-03  3.81997402E-03
  3.20963808E-03 -6.88386104E-03  2.50787171E-01 -4.41664181E-02  1.22508317E-01
 -3.74683298E-02  1.05572639E-01  5.87035373E-03  7.20411118E-02 -4.62682149E-03
  2.01112944E-02 -1.17044546E-02 -8.39020609E-03  5.57673434E-03 -1.83142531E-04
  3.94813773E-03 -1.10734901E-02 -9.57132033E-02 -4.96627724E-02  2.62989258E-01
  3.58715388E-03 -3.74802985E-02 -2.70894896E-02  1.10528693E-01 -5.68776141E-03