12314                                                                   
Freq      RMP2-FC                                                     Gen                 
Number of atoms                            I               11
Info1-9                                    I   N=           9
         127         126        1002           0           0         100
           6           2           1
Charge                                     I                0
Multiplicity                               I                1
Number of electrons                        I               74
Number of alpha electrons                  I               37
Number of beta electrons                   I               37
Number of basis functions                  I              124
Number of independent functions            I              124
Number of point charges in /Mol/           I                0
Number of translation vectors              I                0
Atomic numbers                             I   N=          11
          53          53           6           6           6           1
           1           1           1           1           1
Nuclear charges                            R   N=          11
  2.50000000E+01  2.50000000E+01  6.00000000E+00  6.00000000E+00  6.00000000E+00
  1.00000000E+00  1.00000000E+00  1.00000000E+00  1.00000000E+00  1.00000000E+00
  1.00000000E+00
Current cartesian coordinates              R   N=          33
  5.76386680E+00 -3.26593550E-01 -1.67674820E-07 -5.76386680E+00 -3.26593553E-01
 -1.91971290E-07  2.29180660E-08  2.36697602E-01  2.45855645E-06  2.34750943E+00
  1.90208180E+00 -3.55147641E-07 -2.34750947E+00  1.90208180E+00 -1.04083409E-17
  1.28797062E-07 -9.86908937E-01  1.66404097E+00 -3.37581499E-08 -9.86913176E-01
 -1.66403249E+00  2.45376684E+00  3.08689237E+00 -1.68272390E+00  2.45376791E+00
  3.08689331E+00  1.68272230E+00 -2.45376694E+00  3.08689275E+00 -1.68272331E+00
 -2.45376791E+00  3.08689295E+00  1.68272289E+00
Force Field                                I                0
Int Atom Types                             I   N=          11
           0           0           0           0           0           0
           0           0           0           0           0
MM charges                                 R   N=          11
  0.00000000E+00  0.00000000E+00  0.00000000E+00  0.00000000E+00  0.00000000E+00
  0.00000000E+00  0.00000000E+00  0.00000000E+00  0.00000000E+00  0.00000000E+00
  0.00000000E+00
Integer atomic weights                     I   N=          11
         127         127          12          12          12           1
           1           1           1           1           1
Real atomic weights                        R   N=          11
  1.26900400E+02  1.26900400E+02  1.20000000E+01  1.20000000E+01  1.20000000E+01
  1.00782504E+00  1.00782504E+00  1.00782504E+00  1.00782504E+00  1.00782504E+00
  1.00782504E+00
Atom fragment info                         I   N=          11
           0           0           0           0           0           0
           0           0           0           0           0
Atom residue num                           I   N=          11
           0           0           0           0           0           0
           0           0           0           0           0
Nuclear spins                              I   N=          11
           5           5           0           0           0           1
           1           1           1           1           1
Nuclear ZEff                               R   N=          11
 -5.83000000E+03 -5.83000000E+03 -3.60000000E+00 -3.60000000E+00 -3.60000000E+00
 -1.00000000E+00 -1.00000000E+00 -1.00000000E+00 -1.00000000E+00 -1.00000000E+00
 -1.00000000E+00
Nuclear QMom                               R   N=          11
 -7.10000000E+01 -7.10000000E+01  0.00000000E+00  0.00000000E+00  0.00000000E+00
  0.00000000E+00  0.00000000E+00  0.00000000E+00  0.00000000E+00  0.00000000E+00
  0.00000000E+00
Nuclear GFac                               R   N=          11
  2.81328000E+00  2.81328000E+00  0.00000000E+00  0.00000000E+00  0.00000000E+00
  2.79284600E+00  2.79284600E+00  2.79284600E+00  2.79284600E+00  2.79284600E+00
  2.79284600E+00
MicOpt                                     I   N=          11
          -1          -1          -1          -1          -1          -1
          -1          -1          -1          -1          -1
Number of contracted shells                I               53
Number of primitive shells                 I              112
Pure/Cartesian d shells                    I                0
Pure/Cartesian f shells                    I                0
Highest angular momentum                   I                2
Largest degree of contraction              I                6
Shell types                                I   N=          53
           0           0           0           0           1           1
           1           1          -2          -2           0           0
           0           0           1           1           1           1
          -2          -2           0          -1          -1          -1
          -2           0          -1          -1          -1          -2
           0          -1          -1          -1          -2           0
           0           0           0           0           0           0
           0           0           0           0           0           0
           0           0           0           0           0
Number of primitives per shell             I   N=          53
           6           2           1           1           4           1
           1           1           5           1           6           2
           1           1           4           1           1           1
           5           1           6           3           1           1
           1           6           3           1           1           1
           6           3           1           1           1           3
           1           1           3           1           1           3
           1           1           3           1           1           3
           1           1           3           1           1
Shell to atom map                          I   N=          53
           1           1           1           1           1           1
           1           1           1           1           2           2
           2           2           2           2           2           2
           2           2           3           3           3           3
           3           4           4           4           4           4
           5           5           5           5           5           6
           6           6           7           7           7           8
           8           8           9           9           9          10
          10          10          11          11          11
Primitive exponents                        R   N=         112
  4.45904892E+02  2.33368424E+01  1.95834461E+01  8.51120892E+00  2.19961619E+00
  1.06689705E+00  1.17205476E+01  1.76259864E+00  2.86974763E-01  1.12276096E-01
  2.04990273E+01  1.05587546E+01  1.50158955E+00  6.45971731E-01  3.02886568E+00
  3.45065918E-01  1.11345138E-01  5.12353549E+01  1.56162395E+01  4.52660021E+00
  2.05298088E+00  8.76402816E-01  3.09000000E-01  4.45904892E+02  2.33368424E+01
  1.95834461E+01  8.51120892E+00  2.19961619E+00  1.06689705E+00  1.17205476E+01
  1.76259864E+00  2.86974763E-01  1.12276096E-01  2.04990273E+01  1.05587546E+01
  1.50158955E+00  6.45971731E-01  3.02886568E+00  3.45065918E-01  1.11345138E-01
  5.12353549E+01  1.56162395E+01  4.52660021E+00  2.05298088E+00  8.76402816E-01
  3.09000000E-01  4.56324000E+03  6.82024000E+02  1.54973000E+02  4.44553000E+01
  1.30290000E+01  1.82773000E+00  2.09642000E+01  4.80331000E+00  1.45933000E+00
  4.83456000E-01  1.45585000E-01  6.26000000E-01  4.56324000E+03  6.82024000E+02
  1.54973000E+02  4.44553000E+01  1.30290000E+01  1.82773000E+00  2.09642000E+01
  4.80331000E+00  1.45933000E+00  4.83456000E-01  1.45585000E-01  6.26000000E-01
  4.56324000E+03  6.82024000E+02  1.54973000E+02  4.44553000E+01  1.30290000E+01
  1.82773000E+00  2.09642000E+01  4.80331000E+00  1.45933000E+00  4.83456000E-01
  1.45585000E-01  6.26000000E-01  3.38650000E+01  5.09479000E+00  1.15879000E+00
  3.25840000E-01  1.02741000E-01  3.38650000E+01  5.09479000E+00  1.15879000E+00
  3.25840000E-01  1.02741000E-01  3.38650000E+01  5.09479000E+00  1.15879000E+00
  3.25840000E-01  1.02741000E-01  3.38650000E+01  5.09479000E+00  1.15879000E+00
  3.25840000E-01  1.02741000E-01  3.38650000E+01  5.09479000E+00  1.15879000E+00
  3.25840000E-01  1.02741000E-01  3.38650000E+01  5.09479000E+00  1.15879000E+00
  3.25840000E-01  1.02741000E-01
Contraction coefficients                   R   N=         112
  2.20257546E-03 -1.64769178E-01  4.00523643E-01 -8.30344053E-01  9.10349039E-01
  4.63450337E-01 -4.69729845E-02  1.02523810E+00  1.00000000E+00  1.00000000E+00
  8.45621086E-02 -4.20516792E-01  9.15704773E-01  1.83978523E-01  1.00000000E+00
  1.00000000E+00  1.00000000E+00  4.10151694E-03 -5.16112495E-03  2.96351970E-01
  5.19951965E-01  3.17507168E-01  1.00000000E+00  2.20257546E-03 -1.64769178E-01
  4.00523643E-01 -8.30344053E-01  9.10349039E-01  4.63450337E-01 -4.69729845E-02
  1.02523810E+00  1.00000000E+00  1.00000000E+00  8.45621086E-02 -4.20516792E-01
  9.15704773E-01  1.83978523E-01  1.00000000E+00  1.00000000E+00  1.00000000E+00
  4.10151694E-03 -5.16112495E-03  2.96351970E-01  5.19951965E-01  3.17507168E-01
  1.00000000E+00  1.96665025E-03  1.52306019E-02  7.61269097E-02  2.60801033E-01
  6.16462078E-01  2.21006028E-01  1.14660081E-01  9.19999648E-01 -3.03068213E-03
  1.00000000E+00  1.00000000E+00  1.00000000E+00  1.96665025E-03  1.52306019E-02
  7.61269097E-02  2.60801033E-01  6.16462078E-01  2.21006028E-01  1.14660081E-01
  9.19999648E-01 -3.03068213E-03  1.00000000E+00  1.00000000E+00  1.00000000E+00
  1.96665025E-03  1.52306019E-02  7.61269097E-02  2.60801033E-01  6.16462078E-01
  2.21006028E-01  1.14660081E-01  9.19999648E-01 -3.03068213E-03  1.00000000E+00
  1.00000000E+00  1.00000000E+00  2.54938145E-02  1.90373109E-01  8.52161486E-01
  1.00000000E+00  1.00000000E+00  2.54938145E-02  1.90373109E-01  8.52161486E-01
  1.00000000E+00  1.00000000E+00  2.54938145E-02  1.90373109E-01  8.52161486E-01
  1.00000000E+00  1.00000000E+00  2.54938145E-02  1.90373109E-01  8.52161486E-01
  1.00000000E+00  1.00000000E+00  2.54938145E-02  1.90373109E-01  8.52161486E-01
  1.00000000E+00  1.00000000E+00  2.54938145E-02  1.90373109E-01  8.52161486E-01
  1.00000000E+00  1.00000000E+00
P(S=P) Contraction coefficients            R   N=         112
  0.00000000E+00  0.00000000E+00  0.00000000E+00  0.00000000E+00  0.00000000E+00
  0.00000000E+00  0.00000000E+00  0.00000000E+00  0.00000000E+00  0.00000000E+00
  0.00000000E+00  0.00000000E+00  0.00000000E+00  0.00000000E+00  0.00000000E+00
  0.00000000E+00  0.00000000E+00  0.00000000E+00  0.00000000E+00  0.00000000E+00
  0.00000000E+00  0.00000000E+00  0.00000000E+00  0.00000000E+00  0.00000000E+00
  0.00000000E+00  0.00000000E+00  0.00000000E+00  0.00000000E+00  0.00000000E+00
  0.00000000E+00  0.00000000E+00  0.00000000E+00  0.00000000E+00  0.00000000E+00
  0.00000000E+00  0.00000000E+00  0.00000000E+00  0.00000000E+00  0.00000000E+00
  0.00000000E+00  0.00000000E+00  0.00000000E+00  0.00000000E+00  0.00000000E+00
  0.00000000E+00  0.00000000E+00  0.00000000E+00  0.00000000E+00  0.00000000E+00
  0.00000000E+00  0.00000000E+00  4.02486927E-02  2.37593957E-01  8.15853851E-01
  1.00000000E+00  1.00000000E+00  0.00000000E+00  0.00000000E+00  0.00000000E+00
  0.00000000E+00  0.00000000E+00  0.00000000E+00  0.00000000E+00  4.02486927E-02
  2.37593957E-01  8.15853851E-01  1.00000000E+00  1.00000000E+00  0.00000000E+00
  0.00000000E+00  0.00000000E+00  0.00000000E+00  0.00000000E+00  0.00000000E+00
  0.00000000E+00  4.02486927E-02  2.37593957E-01  8.15853851E-01  1.00000000E+00
  1.00000000E+00  0.00000000E+00  0.00000000E+00  0.00000000E+00  0.00000000E+00
  0.00000000E+00  0.00000000E+00  0.00000000E+00  0.00000000E+00  0.00000000E+00
  0.00000000E+00  0.00000000E+00  0.00000000E+00  0.00000000E+00  0.00000000E+00
  0.00000000E+00  0.00000000E+00  0.00000000E+00  0.00000000E+00  0.00000000E+00
  0.00000000E+00  0.00000000E+00  0.00000000E+00  0.00000000E+00  0.00000000E+00
  0.00000000E+00  0.00000000E+00  0.00000000E+00  0.00000000E+00  0.00000000E+00
  0.00000000E+00  0.00000000E+00
Coordinates of each shell                  R   N=         159
  5.76386680E+00 -3.26593550E-01 -1.67674820E-07  5.76386680E+00 -3.26593550E-01
 -1.67674820E-07  5.76386680E+00 -3.26593550E-01 -1.67674820E-07  5.76386680E+00
 -3.26593550E-01 -1.67674820E-07  5.76386680E+00 -3.26593550E-01 -1.67674820E-07
  5.76386680E+00 -3.26593550E-01 -1.67674820E-07  5.76386680E+00 -3.26593550E-01
 -1.67674820E-07  5.76386680E+00 -3.26593550E-01 -1.67674820E-07  5.76386680E+00
 -3.26593550E-01 -1.67674820E-07  5.76386680E+00 -3.26593550E-01 -1.67674820E-07
 -5.76386680E+00 -3.26593553E-01 -1.91971290E-07 -5.76386680E+00 -3.26593553E-01
 -1.91971290E-07 -5.76386680E+00 -3.26593553E-01 -1.91971290E-07 -5.76386680E+00
 -3.26593553E-01 -1.91971290E-07 -5.76386680E+00 -3.26593553E-01 -1.91971290E-07
 -5.76386680E+00 -3.26593553E-01 -1.91971290E-07 -5.76386680E+00 -3.26593553E-01
 -1.91971290E-07 -5.76386680E+00 -3.26593553E-01 -1.91971290E-07 -5.76386680E+00
 -3.26593553E-01 -1.91971290E-07 -5.76386680E+00 -3.26593553E-01 -1.91971290E-07
  2.29180660E-08  2.36697602E-01  2.45855645E-06  2.29180660E-08  2.36697602E-01
  2.45855645E-06  2.29180660E-08  2.36697602E-01  2.45855645E-06  2.29180660E-08
  2.36697602E-01  2.45855645E-06  2.29180660E-08  2.36697602E-01  2.45855645E-06
  2.34750943E+00  1.90208180E+00 -3.55147641E-07  2.34750943E+00  1.90208180E+00
 -3.55147641E-07  2.34750943E+00  1.90208180E+00 -3.55147641E-07  2.34750943E+00
  1.90208180E+00 -3.55147641E-07  2.34750943E+00  1.90208180E+00 -3.55147641E-07
 -2.34750947E+00  1.90208180E+00 -6.93889390E-18 -2.34750947E+00  1.90208180E+00
 -6.93889390E-18 -2.34750947E+00  1.90208180E+00 -6.93889390E-18 -2.34750947E+00
  1.90208180E+00 -6.93889390E-18 -2.34750947E+00  1.90208180E+00 -6.93889390E-18
  1.28797062E-07 -9.86908937E-01  1.66404097E+00  1.28797062E-07 -9.86908937E-01
  1.66404097E+00  1.28797062E-07 -9.86908937E-01  1.66404097E+00 -3.37581499E-08
 -9.86913176E-01 -1.66403249E+00 -3.37581499E-08 -9.86913176E-01 -1.66403249E+00
 -3.37581499E-08 -9.86913176E-01 -1.66403249E+00  2.45376684E+00  3.08689237E+00
 -1.68272390E+00  2.45376684E+00  3.08689237E+00 -1.68272390E+00  2.45376684E+00
  3.08689237E+00 -1.68272390E+00  2.45376791E+00  3.08689331E+00  1.68272230E+00
  2.45376791E+00  3.08689331E+00  1.68272230E+00  2.45376791E+00  3.08689331E+00
  1.68272230E+00 -2.45376694E+00  3.08689275E+00 -1.68272331E+00 -2.45376694E+00
  3.08689275E+00 -1.68272331E+00 -2.45376694E+00  3.08689275E+00 -1.68272331E+00
 -2.45376791E+00  3.08689295E+00  1.68272289E+00 -2.45376791E+00  3.08689295E+00
  1.68272289E+00 -2.45376791E+00  3.08689295E+00  1.68272289E+00
Constraint Structure                       R   N=          33
  5.76386680E+00 -3.26593550E-01 -1.67674820E-07 -5.76386680E+00 -3.26593553E-01
 -1.91971290E-07  2.29180660E-08  2.36697602E-01  2.45855645E-06  2.34750943E+00
  1.90208180E+00 -3.55147641E-07 -2.34750947E+00  1.90208180E+00 -6.93889390E-18
  1.28797062E-07 -9.86908937E-01  1.66404097E+00 -3.37581499E-08 -9.86913176E-01
 -1.66403249E+00  2.45376684E+00  3.08689237E+00 -1.68272390E+00  2.45376791E+00
  3.08689331E+00  1.68272230E+00 -2.45376694E+00  3.08689275E+00 -1.68272331E+00
 -2.45376791E+00  3.08689295E+00  1.68272289E+00
Num ILSW                                   I              100
ILSW                                       I   N=         100
           0           0           0           0           2           0
           0           0           0           0           0          -1
           0           0           0           0           0           0
           0           0           0           0           1           0
           1           0           0           0           0           0
           0           0      100000           0          -1           0
           0           0           0           0           0           0
           0           0           0           1           1           0
           0           0           1           0           0           0
           0           0           4          40           0           0
           0           0           0           0           0           0
           0           0           0           0           0           0
           0           0           0           0           0           0
           0           0           0           0           0           0
           0           0           0           0           0           0
           0           0           0           0           0           0
           0           0           0           0
Num RLSW                                   I               40
RLSW                                       R   N=          40
  1.00000000E+00  1.00000000E+00  1.00000000E+00  1.00000000E+00  1.00000000E+00
  0.00000000E+00  0.00000000E+00  1.00000000E+00  0.00000000E+00  0.00000000E+00
  0.00000000E+00  0.00000000E+00  1.00000000E+00  0.00000000E+00  0.00000000E+00
  0.00000000E+00  0.00000000E+00  1.00000000E+00  0.00000000E+00  0.00000000E+00
  0.00000000E+00  0.00000000E+00  1.00000000E+00  0.00000000E+00  0.00000000E+00
  0.00000000E+00  0.00000000E+00  1.00000000E+00  0.00000000E+00  0.00000000E+00
  0.00000000E+00  0.00000000E+00  0.00000000E+00  0.00000000E+00  0.00000000E+00
  0.00000000E+00  0.00000000E+00  0.00000000E+00  1.00000000E+00  1.00000000E+00
ECP-MxAtEC                                 I           250000
ECP-MaxLECP                                I               10
ECP-MaxAtL                                 I          2250000
ECP-MxTECP                                 I         11250000
ECP-LenNCZ                                 I               29
ECP-KFirst                                 I   N=         110
           1           1           0           0           0           0
           0           0           0           0           0           5
           5           0           0           0           0           0
           0           0           0           0          12          12
           0           0           0           0           0           0
           0           0           0          20          20           0
           0           0           0           0           0           0
           0           0           0           0           0           0
           0           0           0           0           0           0
           0           0           0           0           0           0
           0           0           0           0           0           0
           0           0           0           0           0           0
           0           0           0           0           0           0
           0           0           0           0           0           0
           0           0           0           0           0           0
           0           0           0           0           0           0
           0           0           0           0           0           0
           0           0           0           0           0           0
           0           0
ECP-KLast                                  I   N=         110
           4           4           0           0           0           0
           0           0           0           0           0          11
          11           0           0           0           0           0
           0           0           0           0          19          19
           0           0           0           0           0           0
           0           0           0          29          29           0
           0           0           0           0           0           0
           0           0           0           0           0           0
           0           0           0           0           0           0
           0           0           0           0           0           0
           0           0           0           0           0           0
           0           0           0           0           0           0
           0           0           0           0           0           0
           0           0           0           0           0           0
           0           0           0           0           0           0
           0           0           0           0           0           0
           0           0           0           0           0           0
           0           0           0           0           0           0
           0           0
ECP-LMax                                   I   N=          11
           3           3           0           0           0           0
           0           0           0           0           0
ECP-LPSkip                                 I   N=          11
           0           0           1           1           1           1
           1           1           1           1           1
ECP-RNFroz                                 R   N=          11
  2.80000000E+01  2.80000000E+01  0.00000000E+00  0.00000000E+00  0.00000000E+00
  0.00000000E+00  0.00000000E+00  0.00000000E+00  0.00000000E+00  0.00000000E+00
  0.00000000E+00
ECP-NLP                                    I   N=          29
           2           2           2           2           2           2
           2           2           2           2           2           2
           2           2           2           2           2           2
           2           2           2           2           2           2
           2           2           2           2           2
ECP-CLP1                                   R   N=          29
 -2.18420400E+01 -2.84681910E+01 -2.43713000E-01 -3.20804000E-01  4.99942930E+01
  2.81025317E+02  6.15733260E+01  2.18420400E+01  2.84681910E+01  2.43713000E-01
  3.20804000E-01  6.74428410E+01  1.34881137E+02  1.46750510E+01  2.93756660E+01
  2.18420400E+01  2.84681910E+01  2.43713000E-01  3.20804000E-01  3.54395290E+01
  5.31760570E+01  9.06719500E+00  1.32069370E+01  8.93350000E-02  5.23800000E-02
  2.18420400E+01  2.84681910E+01  2.43713000E-01  3.20804000E-01
ECP-CLP2                                   R   N=          29
  0.00000000E+00  0.00000000E+00  0.00000000E+00  0.00000000E+00  0.00000000E+00
  0.00000000E+00  0.00000000E+00  0.00000000E+00  0.00000000E+00  0.00000000E+00
  0.00000000E+00  0.00000000E+00  0.00000000E+00  0.00000000E+00  0.00000000E+00
  0.00000000E+00  0.00000000E+00  0.00000000E+00  0.00000000E+00  0.00000000E+00
  0.00000000E+00  0.00000000E+00  0.00000000E+00  0.00000000E+00  0.00000000E+00
  0.00000000E+00  0.00000000E+00  0.00000000E+00  0.00000000E+00
ECP-ZLP                                    R   N=          29
  1.94586090E+01  1.93492600E+01  4.82376700E+00  4.88431500E+00  4.00158350E+01
  1.74297470E+01  9.00548400E+00  1.94586090E+01  1.93492600E+01  4.82376700E+00
  4.88431500E+00  1.53554660E+01  1.49718330E+01  8.96016400E+00  8.25909600E+00
  1.94586090E+01  1.93492600E+01  4.82376700E+00  4.88431500E+00  1.50689080E+01
  1.45553220E+01  6.71864700E+00  6.45639300E+00  1.19177900E+00  1.29115700E+00
  1.94586090E+01  1.93492600E+01  4.82376700E+00  4.88431500E+00
MxBond                                     I                4
NBond                                      I   N=          11
           1           1           4           4           4           1
           1           1           1           1           1
IBond                                      I   N=          44
           4           0           0           0           5           0
           0           0           4           5           6           7
           1           3           8           9           2           3
          10          11           3           0           0           0
           3           0           0           0           4           0
           0           0           4           0           0           0
           5           0           0           0           5           0
           0           0
RBond                                      R   N=          44
  1.00000000E+00  0.00000000E+00  0.00000000E+00  0.00000000E+00  1.00000000E+00
  0.00000000E+00  0.00000000E+00  0.00000000E+00  1.00000000E+00  1.00000000E+00
  1.00000000E+00  1.00000000E+00  1.00000000E+00  1.00000000E+00  1.00000000E+00
  1.00000000E+00  1.00000000E+00  1.00000000E+00  1.00000000E+00  1.00000000E+00
  1.00000000E+00  0.00000000E+00  0.00000000E+00  0.00000000E+00  1.00000000E+00
  0.00000000E+00  0.00000000E+00  0.00000000E+00  1.00000000E+00  0.00000000E+00
  0.00000000E+00  0.00000000E+00  1.00000000E+00  0.00000000E+00  0.00000000E+00
  0.00000000E+00  1.00000000E+00  0.00000000E+00  0.00000000E+00  0.00000000E+00
  1.00000000E+00  0.00000000E+00  0.00000000E+00  0.00000000E+00
Virial Ratio                               R      3.062951209746316E+00
SCF Energy                                 R     -7.104185994720103E+02
MP2 Energy                                 R     -7.111103649776072E+02
Total Energy                               R     -7.111103649776072E+02
Post-SCF wavefunction norm                 R      1.590262289701022E+00
RMS Force                                  R      9.863017144604734E-08
RMS Density                                R      2.132271359290410E-09
External E-field                           R   N=          35
  0.00000000E+00  0.00000000E+00  0.00000000E+00  0.00000000E+00  0.00000000E+00
  0.00000000E+00  0.00000000E+00  0.00000000E+00  0.00000000E+00  0.00000000E+00
  0.00000000E+00  0.00000000E+00  0.00000000E+00  0.00000000E+00  0.00000000E+00
  0.00000000E+00  0.00000000E+00  0.00000000E+00  0.00000000E+00  0.00000000E+00
  0.00000000E+00  0.00000000E+00  0.00000000E+00  0.00000000E+00  0.00000000E+00
  0.00000000E+00  0.00000000E+00  0.00000000E+00  0.00000000E+00  0.00000000E+00
  0.00000000E+00  0.00000000E+00  0.00000000E+00  0.00000000E+00  0.00000000E+00
IOpCl                                      I                0
IROHF                                      I                0
Alpha Orbital Energies                     R   N=         124
 -1.12992926E+01 -1.12992921E+01 -1.12621518E+01 -7.72989667E+00 -7.72989654E+00
 -5.58612007E+00 -5.58611995E+00 -5.57430951E+00 -5.57430950E+00 -5.57420289E+00
 -5.57420288E+00 -2.28149579E+00 -2.28149107E+00 -2.27635707E+00 -2.27635442E+00
 -2.27624389E+00 -2.27624163E+00 -2.26403674E+00 -2.26403645E+00 -2.26403253E+00
 -2.26403221E+00 -1.11068068E+00 -9.94592238E-01 -8.95053793E-01 -8.30889714E-01
 -8.23387145E-01 -6.86046290E-01 -6.04545896E-01 -5.97855042E-01 -5.70580932E-01
 -5.22108277E-01 -4.75207259E-01 -4.33772752E-01 -3.69806472E-01 -3.65773214E-01
 -3.63052619E-01 -3.59689137E-01  7.37073021E-02  1.36225670E-01  1.53563283E-01
  1.72082783E-01  1.91442081E-01  2.01837955E-01  2.30510009E-01  2.37946082E-01
  3.15269298E-01  3.40016005E-01  4.02331894E-01  4.05021294E-01  4.33241363E-01
  4.38335930E-01  4.43655052E-01  4.83333421E-01  5.04196171E-01  5.05685431E-01
  5.64490632E-01  5.80105810E-01  5.84952119E-01  5.91586947E-01  5.97334838E-01
  6.23985870E-01  6.24934132E-01  6.42412071E-01  6.54963349E-01  6.62820449E-01
  6.70367430E-01  7.35348439E-01  7.40064542E-01  7.62486726E-01  7.78439590E-01
  7.83829305E-01  7.92048778E-01  7.92050021E-01  8.37181897E-01  8.60033533E-01
  8.60176315E-01  8.98040730E-01  9.08531516E-01  9.99678145E-01  1.04851231E+00
  1.08725706E+00  1.18264825E+00  1.23519781E+00  1.37909619E+00  1.42249118E+00
  1.63453338E+00  1.65656779E+00  1.70905828E+00  1.75401059E+00  1.77604244E+00
  1.82876737E+00  1.90612823E+00  1.94480953E+00  1.97987045E+00  2.03400670E+00
  2.11138992E+00  2.31003746E+00  2.42358667E+00  2.69377690E+00  2.70781605E+00
  2.76507196E+00  2.79717500E+00  2.80629951E+00  2.81091623E+00  3.19546040E+00
  3.22456425E+00  3.29206650E+00  3.38559777E+00  3.45130900E+00  3.55273261E+00
  3.60844016E+00  4.07615204E+00  4.29621418E+00  1.91840753E+01  1.91945859E+01
  1.91953029E+01  1.92201287E+01  1.95678462E+01  1.95701587E+01  2.44720811E+01
  2.46942033E+01  2.48355509E+01  5.64945182E+01  5.65110468E+01
Alpha MO coefficients                      R   N=       15376
 -3.67468420E-05 -3.05072316E-05  3.42864353E-05  1.61835717E-04  5.32966157E-05
 -3.50498827E-05  2.68528071E-12  3.79697432E-05 -2.48315419E-05  2.35140467E-12
 -1.66547225E-04  1.13710809E-04 -1.37523853E-11 -1.14173496E-04  5.02821066E-05
  5.08063613E-11  1.41666261E-05  5.19736902E-12 -3.25315278E-12 -1.19818660E-05
  2.02265941E-05 -8.82225207E-05 -2.41469945E-11  1.28494636E-11  7.07221237E-05
 -1.29090848E-04 -3.68595721E-05 -3.06018902E-05  3.44677965E-05  1.62006511E-04
 -5.34512971E-05 -3.51548224E-05 -3.30892014E-12 -3.80791754E-05 -2.49059847E-05
 -1.96366128E-12  1.67022734E-04  1.14044571E-04  5.51791736E-12  1.14356315E-04
  5.03244436E-05  5.99419167E-11  1.42037671E-05 -8.90054815E-12 -5.43142298E-12
 -1.20187706E-05 -2.02832945E-05 -8.84554903E-05  4.69613942E-11  2.70154618E-11
  7.09297915E-05  1.29449630E-04  6.60221388E-03  5.38244328E-03 -1.95392402E-07
  1.24753208E-04 -1.35844721E-10  4.55084330E-04 -5.87978083E-07  1.73422011E-04
 -3.82924139E-10  4.63039741E-05 -2.22230645E-07  4.38016764E-05  2.84311745E-10
 -7.41946814E-05 -6.28905355E-12 -1.23451501E-10  7.77371456E-05 -2.18068911E-07
  3.97804443E-01  3.29390547E-01  4.64696517E-04 -3.30010557E-04 -3.27735063E-11
  2.73641080E-03 -2.90366379E-04  2.51296718E-04  1.60385213E-10 -5.69249834E-04