6374                                                                    
Freq      RMP2-FC                                                     Gen                 
Number of atoms                            I                5
Info1-9                                    I   N=           9
          84          82        1002           0           0         100
           6           2           1
Charge                                     I                0
Multiplicity                               I                1
Number of electrons                        I              166
Number of alpha electrons                  I               83
Number of beta electrons                   I               83
Number of basis functions                  I              210
Number of independent functions            I              210
Number of point charges in /Mol/           I                0
Number of translation vectors              I                0
Atomic numbers                             I   N=           5
          53          53          53           6           1
Nuclear charges                            R   N=           5
  5.30000000E+01  5.30000000E+01  5.30000000E+01  6.00000000E+00  1.00000000E+00
Current cartesian coordinates              R   N=          15
 -3.40131942E+00 -1.96719934E+00 -5.96075104E-02  3.40432430E+00 -1.96200414E+00
 -5.92973145E-02 -2.99679809E-03  3.92922582E+00 -5.85278776E-02 -4.79096262E-05
 -1.15008064E-04  1.05037437E+00 -1.40782088E-04 -4.94142361E-04  3.10168704E+00
Force Field                                I                0
Int Atom Types                             I   N=           5
           0           0           0           0           0
MM charges                                 R   N=           5
  0.00000000E+00  0.00000000E+00  0.00000000E+00  0.00000000E+00  0.00000000E+00
Integer atomic weights                     I   N=           5
         127         127         127          12           1
Real atomic weights                        R   N=           5
  1.26900400E+02  1.26900400E+02  1.26900400E+02  1.20000000E+01  1.00782504E+00
Atom fragment info                         I   N=           5
           0           0           0           0           0
Atom residue num                           I   N=           5
           0           0           0           0           0
Nuclear spins                              I   N=           5
           5           5           5           0           1
Nuclear ZEff                               R   N=           5
 -6.57200000E+01 -6.57200000E+01 -6.57200000E+01 -3.60000000E+00 -1.00000000E+00
Nuclear QMom                               R   N=           5
 -7.10000000E+01 -7.10000000E+01 -7.10000000E+01  0.00000000E+00  0.00000000E+00
Nuclear GFac                               R   N=           5
  2.81328000E+00  2.81328000E+00  2.81328000E+00  0.00000000E+00  2.79284600E+00
MicOpt                                     I   N=           5
          -1          -1          -1          -1          -1
Number of contracted shells                I               81
Number of primitive shells                 I              120
Pure/Cartesian d shells                    I                0
Pure/Cartesian f shells                    I                0
Highest angular momentum                   I                2
Largest degree of contraction              I                6
Shell types                                I   N=          81
           0           0           0           0           0           0
           0           0           0           0           1           1
           1           1           1           1           1           1
           1          -2          -2          -2          -2          -2
           0           0           0           0           0           0
           0           0           0           0           1           1
           1           1           1           1           1           1
           1          -2          -2          -2          -2          -2
           0           0           0           0           0           0
           0           0           0           0           1           1
           1           1           1           1           1           1
           1          -2          -2          -2          -2          -2
           0          -1          -1          -1          -2           0
           0           0           1
Number of primitives per shell             I   N=          81
           5           2           1           1           1           1
           1           1           1           1           4           1
           1           1           1           1           1           1
           1           3           1           1           1           1
           5           2           1           1           1           1
           1           1           1           1           4           1
           1           1           1           1           1           1
           1           3           1           1           1           1
           5           2           1           1           1           1
           1           1           1           1           4           1
           1           1           1           1           1           1
           1           3           1           1           1           1
           6           3           1           1           1           3
           1           1           1
Shell to atom map                          I   N=          81
           1           1           1           1           1           1
           1           1           1           1           1           1
           1           1           1           1           1           1
           1           1           1           1           1           1
           2           2           2           2           2           2
           2           2           2           2           2           2
           2           2           2           2           2           2
           2           2           2           2           2           2
           3           3           3           3           3           3
           3           3           3           3           3           3
           3           3           3           3           3           3
           3           3           3           3           3           3
           4           4           4           4           4           5
           5           5           5
Primitive exponents                        R   N=         120
  4.44750000E+05  6.61270000E+04  1.48150000E+04  4.14490000E+03  1.36120000E+03
  5.08440000E+02  2.09590000E+02  8.19590000E+01  3.68050000E+01  1.34950000E+01
  6.88590000E+00  2.55200000E+00  1.20880000E+00  2.73400000E-01  1.00900000E-01
  2.95360000E+03  7.12610000E+02  2.36710000E+02  9.26310000E+01  3.97320000E+01
  1.72730000E+01  7.95700000E+00  3.15290000E+00  1.33280000E+00  4.94700000E-01
  2.16000000E-01  8.29300000E-02  2.61950000E+02  7.67340000E+01  2.75510000E+01
  1.06060000E+01  3.42170000E+00  1.13700000E+00  3.02000000E-01  4.44750000E+05
  6.61270000E+04  1.48150000E+04  4.14490000E+03  1.36120000E+03  5.08440000E+02
  2.09590000E+02  8.19590000E+01  3.68050000E+01  1.34950000E+01  6.88590000E+00
  2.55200000E+00  1.20880000E+00  2.73400000E-01  1.00900000E-01  2.95360000E+03
  7.12610000E+02  2.36710000E+02  9.26310000E+01  3.97320000E+01  1.72730000E+01
  7.95700000E+00  3.15290000E+00  1.33280000E+00  4.94700000E-01  2.16000000E-01
  8.29300000E-02  2.61950000E+02  7.67340000E+01  2.75510000E+01  1.06060000E+01
  3.42170000E+00  1.13700000E+00  3.02000000E-01  4.44750000E+05  6.61270000E+04
  1.48150000E+04  4.14490000E+03  1.36120000E+03  5.08440000E+02  2.09590000E+02
  8.19590000E+01  3.68050000E+01  1.34950000E+01  6.88590000E+00  2.55200000E+00
  1.20880000E+00  2.73400000E-01  1.00900000E-01  2.95360000E+03  7.12610000E+02
  2.36710000E+02  9.26310000E+01  3.97320000E+01  1.72730000E+01  7.95700000E+00
  3.15290000E+00  1.33280000E+00  4.94700000E-01  2.16000000E-01  8.29300000E-02
  2.61950000E+02  7.67340000E+01  2.75510000E+01  1.06060000E+01  3.42170000E+00
  1.13700000E+00  3.02000000E-01  4.56324000E+03  6.82024000E+02  1.54973000E+02
  4.44553000E+01  1.30290000E+01  1.82773000E+00  2.09642000E+01  4.80331000E+00
  1.45933000E+00  4.83456000E-01  1.45585000E-01  6.26000000E-01  3.38650000E+01
  5.09479000E+00  1.15879000E+00  3.25840000E-01  1.02741000E-01  7.50000000E-01
Contraction coefficients                   R   N=         120
  1.86636799E-03  1.45534763E-02  7.56822706E-02  2.84526752E-01  7.10436122E-01
  7.24149751E-01  3.04776831E-01  1.00000000E+00  1.00000000E+00  1.00000000E+00
  1.00000000E+00  1.00000000E+00  1.00000000E+00  1.00000000E+00  1.00000000E+00
  1.56939495E-02  1.10371781E-01  3.79084072E-01  6.15020301E-01  1.00000000E+00
  1.00000000E+00  1.00000000E+00  1.00000000E+00  1.00000000E+00  1.00000000E+00
  1.00000000E+00  1.00000000E+00  5.05248223E-02  3.05784452E-01  7.59270445E-01
  1.00000000E+00  1.00000000E+00  1.00000000E+00  1.00000000E+00  1.86636799E-03
  1.45534763E-02  7.56822706E-02  2.84526752E-01  7.10436122E-01  7.24149751E-01
  3.04776831E-01  1.00000000E+00  1.00000000E+00  1.00000000E+00  1.00000000E+00
  1.00000000E+00  1.00000000E+00  1.00000000E+00  1.00000000E+00  1.56939495E-02
  1.10371781E-01  3.79084072E-01  6.15020301E-01  1.00000000E+00  1.00000000E+00
  1.00000000E+00  1.00000000E+00  1.00000000E+00  1.00000000E+00  1.00000000E+00
  1.00000000E+00  5.05248223E-02  3.05784452E-01  7.59270445E-01  1.00000000E+00
  1.00000000E+00  1.00000000E+00  1.00000000E+00  1.86636799E-03  1.45534763E-02
  7.56822706E-02  2.84526752E-01  7.10436122E-01  7.24149751E-01  3.04776831E-01
  1.00000000E+00  1.00000000E+00  1.00000000E+00  1.00000000E+00  1.00000000E+00
  1.00000000E+00  1.00000000E+00  1.00000000E+00  1.56939495E-02  1.10371781E-01
  3.79084072E-01  6.15020301E-01  1.00000000E+00  1.00000000E+00  1.00000000E+00
  1.00000000E+00  1.00000000E+00  1.00000000E+00  1.00000000E+00  1.00000000E+00
  5.05248223E-02  3.05784452E-01  7.59270445E-01  1.00000000E+00  1.00000000E+00
  1.00000000E+00  1.00000000E+00  1.96665025E-03  1.52306019E-02  7.61269097E-02
  2.60801033E-01  6.16462078E-01  2.21006028E-01  1.14660081E-01  9.19999648E-01
 -3.03068213E-03  1.00000000E+00  1.00000000E+00  1.00000000E+00  2.54938145E-02
  1.90373109E-01  8.52161486E-01  1.00000000E+00  1.00000000E+00  1.00000000E+00
P(S=P) Contraction coefficients            R   N=         120
  0.00000000E+00  0.00000000E+00  0.00000000E+00  0.00000000E+00  0.00000000E+00
  0.00000000E+00  0.00000000E+00  0.00000000E+00  0.00000000E+00  0.00000000E+00
  0.00000000E+00  0.00000000E+00  0.00000000E+00  0.00000000E+00  0.00000000E+00
  0.00000000E+00  0.00000000E+00  0.00000000E+00  0.00000000E+00  0.00000000E+00
  0.00000000E+00  0.00000000E+00  0.00000000E+00  0.00000000E+00  0.00000000E+00
  0.00000000E+00  0.00000000E+00  0.00000000E+00  0.00000000E+00  0.00000000E+00
  0.00000000E+00  0.00000000E+00  0.00000000E+00  0.00000000E+00  0.00000000E+00
  0.00000000E+00  0.00000000E+00  0.00000000E+00  0.00000000E+00  0.00000000E+00
  0.00000000E+00  0.00000000E+00  0.00000000E+00  0.00000000E+00  0.00000000E+00
  0.00000000E+00  0.00000000E+00  0.00000000E+00  0.00000000E+00  0.00000000E+00
  0.00000000E+00  0.00000000E+00  0.00000000E+00  0.00000000E+00  0.00000000E+00
  0.00000000E+00  0.00000000E+00  0.00000000E+00  0.00000000E+00  0.00000000E+00
  0.00000000E+00  0.00000000E+00  0.00000000E+00  0.00000000E+00  0.00000000E+00
  0.00000000E+00  0.00000000E+00  0.00000000E+00  0.00000000E+00  0.00000000E+00
  0.00000000E+00  0.00000000E+00  0.00000000E+00  0.00000000E+00  0.00000000E+00
  0.00000000E+00  0.00000000E+00  0.00000000E+00  0.00000000E+00  0.00000000E+00
  0.00000000E+00  0.00000000E+00  0.00000000E+00  0.00000000E+00  0.00000000E+00
  0.00000000E+00  0.00000000E+00  0.00000000E+00  0.00000000E+00  0.00000000E+00
  0.00000000E+00  0.00000000E+00  0.00000000E+00  0.00000000E+00  0.00000000E+00
  0.00000000E+00  0.00000000E+00  0.00000000E+00  0.00000000E+00  0.00000000E+00
  0.00000000E+00  0.00000000E+00  0.00000000E+00  0.00000000E+00  0.00000000E+00
  0.00000000E+00  0.00000000E+00  0.00000000E+00  4.02486927E-02  2.37593957E-01
  8.15853851E-01  1.00000000E+00  1.00000000E+00  0.00000000E+00  0.00000000E+00
  0.00000000E+00  0.00000000E+00  0.00000000E+00  0.00000000E+00  0.00000000E+00
Coordinates of each shell                  R   N=         243
 -3.40131942E+00 -1.96719934E+00 -5.96075104E-02 -3.40131942E+00 -1.96719934E+00
 -5.96075104E-02 -3.40131942E+00 -1.96719934E+00 -5.96075104E-02 -3.40131942E+00
 -1.96719934E+00 -5.96075104E-02 -3.40131942E+00 -1.96719934E+00 -5.96075104E-02
 -3.40131942E+00 -1.96719934E+00 -5.96075104E-02 -3.40131942E+00 -1.96719934E+00
 -5.96075104E-02 -3.40131942E+00 -1.96719934E+00 -5.96075104E-02 -3.40131942E+00
 -1.96719934E+00 -5.96075104E-02 -3.40131942E+00 -1.96719934E+00 -5.96075104E-02
 -3.40131942E+00 -1.96719934E+00 -5.96075104E-02 -3.40131942E+00 -1.96719934E+00
 -5.96075104E-02 -3.40131942E+00 -1.96719934E+00 -5.96075104E-02 -3.40131942E+00
 -1.96719934E+00 -5.96075104E-02 -3.40131942E+00 -1.96719934E+00 -5.96075104E-02
 -3.40131942E+00 -1.96719934E+00 -5.96075104E-02 -3.40131942E+00 -1.96719934E+00
 -5.96075104E-02 -3.40131942E+00 -1.96719934E+00 -5.96075104E-02 -3.40131942E+00
 -1.96719934E+00 -5.96075104E-02 -3.40131942E+00 -1.96719934E+00 -5.96075104E-02
 -3.40131942E+00 -1.96719934E+00 -5.96075104E-02 -3.40131942E+00 -1.96719934E+00
 -5.96075104E-02 -3.40131942E+00 -1.96719934E+00 -5.96075104E-02 -3.40131942E+00
 -1.96719934E+00 -5.96075104E-02  3.40432430E+00 -1.96200414E+00 -5.92973145E-02
  3.40432430E+00 -1.96200414E+00 -5.92973145E-02  3.40432430E+00 -1.96200414E+00
 -5.92973145E-02  3.40432430E+00 -1.96200414E+00 -5.92973145E-02  3.40432430E+00
 -1.96200414E+00 -5.92973145E-02  3.40432430E+00 -1.96200414E+00 -5.92973145E-02
  3.40432430E+00 -1.96200414E+00 -5.92973145E-02  3.40432430E+00 -1.96200414E+00
 -5.92973145E-02  3.40432430E+00 -1.96200414E+00 -5.92973145E-02  3.40432430E+00
 -1.96200414E+00 -5.92973145E-02  3.40432430E+00 -1.96200414E+00 -5.92973145E-02
  3.40432430E+00 -1.96200414E+00 -5.92973145E-02  3.40432430E+00 -1.96200414E+00
 -5.92973145E-02  3.40432430E+00 -1.96200414E+00 -5.92973145E-02  3.40432430E+00
 -1.96200414E+00 -5.92973145E-02  3.40432430E+00 -1.96200414E+00 -5.92973145E-02
  3.40432430E+00 -1.96200414E+00 -5.92973145E-02  3.40432430E+00 -1.96200414E+00
 -5.92973145E-02  3.40432430E+00 -1.96200414E+00 -5.92973145E-02  3.40432430E+00
 -1.96200414E+00 -5.92973145E-02  3.40432430E+00 -1.96200414E+00 -5.92973145E-02
  3.40432430E+00 -1.96200414E+00 -5.92973145E-02  3.40432430E+00 -1.96200414E+00
 -5.92973145E-02  3.40432430E+00 -1.96200414E+00 -5.92973145E-02 -2.99679809E-03
  3.92922582E+00 -5.85278776E-02 -2.99679809E-03  3.92922582E+00 -5.85278776E-02
 -2.99679809E-03  3.92922582E+00 -5.85278776E-02 -2.99679809E-03  3.92922582E+00
 -5.85278776E-02 -2.99679809E-03  3.92922582E+00 -5.85278776E-02 -2.99679809E-03
  3.92922582E+00 -5.85278776E-02 -2.99679809E-03  3.92922582E+00 -5.85278776E-02
 -2.99679809E-03  3.92922582E+00 -5.85278776E-02 -2.99679809E-03  3.92922582E+00
 -5.85278776E-02 -2.99679809E-03  3.92922582E+00 -5.85278776E-02 -2.99679809E-03
  3.92922582E+00 -5.85278776E-02 -2.99679809E-03  3.92922582E+00 -5.85278776E-02
 -2.99679809E-03  3.92922582E+00 -5.85278776E-02 -2.99679809E-03  3.92922582E+00
 -5.85278776E-02 -2.99679809E-03  3.92922582E+00 -5.85278776E-02 -2.99679809E-03
  3.92922582E+00 -5.85278776E-02 -2.99679809E-03  3.92922582E+00 -5.85278776E-02
 -2.99679809E-03  3.92922582E+00 -5.85278776E-02 -2.99679809E-03  3.92922582E+00
 -5.85278776E-02 -2.99679809E-03  3.92922582E+00 -5.85278776E-02 -2.99679809E-03
  3.92922582E+00 -5.85278776E-02 -2.99679809E-03  3.92922582E+00 -5.85278776E-02
 -2.99679809E-03  3.92922582E+00 -5.85278776E-02 -2.99679809E-03  3.92922582E+00
 -5.85278776E-02 -4.79096262E-05 -1.15008064E-04  1.05037437E+00 -4.79096262E-05
 -1.15008064E-04  1.05037437E+00 -4.79096262E-05 -1.15008064E-04  1.05037437E+00
 -4.79096262E-05 -1.15008064E-04  1.05037437E+00 -4.79096262E-05 -1.15008064E-04
  1.05037437E+00 -1.40782088E-04 -4.94142361E-04  3.10168704E+00 -1.40782088E-04
 -4.94142361E-04  3.10168704E+00 -1.40782088E-04 -4.94142361E-04  3.10168704E+00
 -1.40782088E-04 -4.94142361E-04  3.10168704E+00
Constraint Structure                       R   N=          15
 -3.40131942E+00 -1.96719934E+00 -5.96075104E-02  3.40432430E+00 -1.96200414E+00
 -5.92973145E-02 -2.99679809E-03  3.92922582E+00 -5.85278776E-02 -4.79096262E-05
 -1.15008064E-04  1.05037437E+00 -1.40782088E-04 -4.94142361E-04  3.10168704E+00
Num ILSW                                   I              100
ILSW                                       I   N=         100
           0           0           0           0           2           0
           0           0           0           0           0          -1
           0           0           0           0           0           0
           0           0           0           0           1           0
           1           0           0           0           0           0
           0           0      100000           0          -1           0
           0           0           0           0           0           0
           0           0           0           1           1           0
           0           0           1           0           0           0
           0           0           4          40           0           0
           0           0           0           0           0           0
           0           0           0           0           0           0
           0           0           0           0           0           0
           0           0           0           0           0           0
           0           0           0           0           0           0
           0           0           0           0           0           0
           0           0           0           0
Num RLSW                                   I               40
RLSW                                       R   N=          40
  1.00000000E+00  1.00000000E+00  1.00000000E+00  1.00000000E+00  1.00000000E+00
  0.00000000E+00  0.00000000E+00  1.00000000E+00  0.00000000E+00  0.00000000E+00
  0.00000000E+00  0.00000000E+00  1.00000000E+00  0.00000000E+00  0.00000000E+00
  0.00000000E+00  0.00000000E+00  1.00000000E+00  0.00000000E+00  0.00000000E+00
  0.00000000E+00  0.00000000E+00  1.00000000E+00  0.00000000E+00  0.00000000E+00
  0.00000000E+00  0.00000000E+00  1.00000000E+00  0.00000000E+00  0.00000000E+00
  0.00000000E+00  0.00000000E+00  0.00000000E+00  0.00000000E+00  0.00000000E+00
  0.00000000E+00  0.00000000E+00  0.00000000E+00  1.00000000E+00  1.00000000E+00
MxBond                                     I                4
NBond                                      I   N=           5
           1           1           1           4           1
IBond                                      I   N=          20
           4           0           0           0           4           0
           0           0           4           0           0           0
           1           2           3           5           4           0
           0           0
RBond                                      R   N=          20
  1.00000000E+00  0.00000000E+00  0.00000000E+00  0.00000000E+00  1.00000000E+00
  0.00000000E+00  0.00000000E+00  0.00000000E+00  1.00000000E+00  0.00000000E+00
  0.00000000E+00  0.00000000E+00  1.00000000E+00  1.00000000E+00  1.00000000E+00
  1.00000000E+00  1.00000000E+00  0.00000000E+00  0.00000000E+00  0.00000000E+00
Virial Ratio                               R      1.999524710778498E+00
SCF Energy                                 R     -2.078886697681939E+04
MP2 Energy                                 R     -2.078964164915252E+04
Total Energy                               R     -2.078964164915252E+04
Post-SCF wavefunction norm                 R      1.587540805926707E+00
RMS Force                                  R      3.257989288773357E-06
RMS Density                                R      2.729958317356076E-09
External E-field                           R   N=          35
  0.00000000E+00  0.00000000E+00  0.00000000E+00  0.00000000E+00  0.00000000E+00
  0.00000000E+00  0.00000000E+00  0.00000000E+00  0.00000000E+00  0.00000000E+00
  0.00000000E+00  0.00000000E+00  0.00000000E+00  0.00000000E+00  0.00000000E+00
  0.00000000E+00  0.00000000E+00  0.00000000E+00  0.00000000E+00  0.00000000E+00
  0.00000000E+00  0.00000000E+00  0.00000000E+00  0.00000000E+00  0.00000000E+00
  0.00000000E+00  0.00000000E+00  0.00000000E+00  0.00000000E+00  0.00000000E+00
  0.00000000E+00  0.00000000E+00  0.00000000E+00  0.00000000E+00  0.00000000E+00
IOpCl                                      I                0
IROHF                                      I                0
Alpha Orbital Energies                     R   N=         210
 -1.17717657E+03 -1.17717657E+03 -1.17717657E+03 -1.80883844E+02 -1.80883842E+02
 -1.80883841E+02 -1.69690502E+02 -1.69690500E+02 -1.69690500E+02 -1.69689429E+02
 -1.69689427E+02 -1.69689427E+02 -1.69689422E+02 -1.69689420E+02 -1.69689420E+02
 -3.79377390E+01 -3.79377367E+01 -3.79377361E+01 -3.31262685E+01 -3.31262660E+01
 -3.31262660E+01 -3.31213314E+01 -3.31213289E+01 -3.31213289E+01 -3.31213028E+01
 -3.31213003E+01 -3.31212994E+01 -2.43103693E+01 -2.43103653E+01 -2.43103641E+01
 -2.43087037E+01 -2.43086863E+01 -2.43086850E+01 -2.43086582E+01 -2.43086564E+01
 -2.43086547E+01 -2.43040573E+01 -2.43040571E+01 -2.43040552E+01 -2.43040544E+01
 -2.43040544E+01 -2.43040540E+01 -1.13892193E+01 -7.25468682E+00 -7.25468478E+00
 -7.25467866E+00 -5.48880732E+00 -5.48880510E+00 -5.48880100E+00 -5.47641736E+00
 -5.47641527E+00 -5.47641088E+00 -5.47640834E+00 -5.47640263E+00 -5.47640111E+00
 -2.41256037E+00 -2.41243897E+00 -2.41243691E+00 -2.40665488E+00 -2.40665181E+00
 -2.40665015E+00 -2.40664663E+00 -2.40664529E+00 -2.40662195E+00 -2.39254423E+00
 -2.39254326E+00 -2.39254215E+00 -2.39253857E+00 -2.39253751E+00 -2.39253714E+00
 -1.04198165E+00 -8.56347150E-01 -8.56342503E-01 -7.73094579E-01 -5.92814079E-01
 -5.12399145E-01 -5.12396651E-01 -4.02912534E-01 -4.02910944E-01 -3.87087239E-01
 -3.75887432E-01 -3.75885364E-01 -3.60841883E-01  9.96677988E-03  9.34716529E-02
  9.34789019E-02  1.66237161E-01  2.72612665E-01  2.72613760E-01  2.86012270E-01
  3.15290182E-01  3.15290189E-01  3.27844961E-01  3.31504867E-01  3.31505320E-01
  3.38965333E-01  3.45906283E-01  4.09579081E-01  4.09583134E-01  4.32795608E-01
  5.03850702E-01  5.03850729E-01  5.27295246E-01  5.27295261E-01  5.70999219E-01
  5.81769092E-01  5.92947781E-01  5.92948438E-01  6.51387609E-01  6.51387675E-01
  7.03336775E-01  7.19751758E-01  8.09839141E-01  8.53487215E-01  8.53489810E-01
  8.68848033E-01  8.68853445E-01  9.65429086E-01  1.16163223E+00  1.39142900E+00
  1.39143254E+00  1.53345462E+00  1.53345498E+00  1.54847730E+00  1.57317828E+00
  1.59679328E+00  1.59679381E+00  1.62064697E+00  1.62065157E+00  1.62238148E+00
  1.79817760E+00  1.90013528E+00  1.90013679E+00  2.14534195E+00  2.14534830E+00
  2.68942798E+00  2.87973017E+00  3.07010963E+00  3.07011733E+00  3.49166764E+00
  4.45948684E+00  4.45948811E+00  4.46625316E+00  4.48052102E+00  4.48052254E+00
  4.48069728E+00  4.49895338E+00  4.49895394E+00  4.53918968E+00  4.53919009E+00
  4.55399415E+00  4.58447683E+00  4.65817898E+00  4.74202514E+00  4.74202701E+00
  4.75956888E+00  4.75957590E+00  4.80952896E+00  6.50657001E+00  6.50657083E+00
  6.52012343E+00  6.52541904E+00  6.52541905E+00  6.56200924E+00  6.57690862E+00
  6.58819733E+00  6.58819964E+00  2.46455691E+01  2.87607825E+01  2.88161563E+01
  2.88161594E+01  2.95087402E+01  2.95087412E+01  2.95132777E+01  2.95202467E+01
  2.95202472E+01  2.95473526E+01  2.95611011E+01  2.95636037E+01  2.95636041E+01
  2.98632587E+01  2.98632594E+01  2.98678484E+01  2.98706493E+01  2.98715323E+01
  2.98715336E+01  2.98766712E+01  2.98766714E+01  2.99002735E+01  2.99202802E+01
  2.99202803E+01  2.99473867E+01  3.00020460E+01  3.00020469E+01  3.00168736E+01
  1.30573227E+02  1.30573228E+02  1.30578967E+02  1.30581953E+02  1.30581953E+02
  1.30600337E+02  1.30620218E+02  1.30621872E+02  1.30621872E+02  1.54178715E+02
  1.54221392E+02  1.54221394E+02  1.91209144E+03  1.91213697E+03  1.91213698E+03
Alpha MO coefficients                      R   N=       44100
 -6.55732093E-05 -8.29093284E-05 -1.25342583E-06  8.50559041E-09  4.06864509E-08
 -4.17719501E-08  5.32914421E-08 -5.93043105E-08  1.35196466E-07 -2.59132824E-07
  3.92583696E-10  2.03043109E-10  2.32080579E-10 -3.29683674E-09 -2.04062051E-09
 -1.52790113E-09  9.46068867E-09  5.93622980E-09  4.27941832E-09 -1.59702360E-08
 -9.77498284E-09 -7.31727656E-09  2.57386104E-08  1.57364339E-08  1.17422578E-08
 -4.06176525E-08 -2.56221782E-08 -1.79229556E-08  7.45581259E-08  4.50834867E-08
  3.21687195E-08 -1.05807010E-07 -3.87053947E-08 -5.20169474E-08 -4.67973233E-08
 -1.43310800E-07  3.19810037E-08  1.54146712E-09  2.12801670E-11  5.70664684E-11
  1.13268172E-09 -2.23596924E-09 -4.78932119E-09 -3.53378673E-11 -1.78826730E-10
 -3.48946337E-09  6.93424156E-09  1.12392718E-08  3.71643869E-11  3.96343824E-10
  8.11227610E-09 -1.62823671E-08 -2.19210321E-08  8.56371701E-11 -5.89804093E-10
 -1.54549670E-08  3.19077529E-08  4.96508067E-08 -5.14656715E-09 -2.40488992E-09
  2.52645719E-08 -7.46958177E-08 -6.53100720E-05 -8.25766258E-05 -1.24838171E-06
  8.43401110E-09  4.06181808E-08 -4.17473180E-08  5.32816372E-08 -5.92980584E-08
  1.35194764E-07 -2.59132072E-07 -3.93877174E-10  2.02998201E-10  2.32371412E-10
  3.30102198E-09 -2.03612356E-09 -1.52791753E-09 -9.47102495E-09  5.92229552E-09
  4.27885767E-09  1.59864114E-08 -9.75093989E-09 -7.31602211E-09 -2.57640092E-08
  1.56973173E-08  1.17400189E-08  4.06585690E-08 -2.55602661E-08 -1.79193158E-08
 -7.46300014E-08  4.49697322E-08  3.21619743E-08  1.05870981E-07 -3.85439660E-08
 -5.20073595E-08  4.70128957E-08 -1.43239093E-07  3.19853003E-08  1.54141437E-09
 -2.15506982E-11  5.72624242E-11  1.12590183E-09  2.23932699E-09 -4.78930228E-09
  3.60588931E-11 -1.79409522E-10 -3.46829178E-09 -6.94483059E-09  1.12392735E-08
 -3.87932885E-11  3.97762273E-10  8.06251936E-09  1.63070536E-08 -2.19210435E-08
 -8.26913889E-11 -5.92834477E-10 -1.53574657E-08 -3.19547663E-08  4.96516030E-08
  5.14469765E-09 -2.39023349E-09  2.50359323E-08  7.47728587E-08  4.76852250E-01
  6.02917171E-01  9.14085531E-03 -1.29719004E-04 -1.23700207E-04  4.46084768E-05
 -1.77230361E-05  1.12765841E-05 -2.96314350E-06  1.16211233E-06  1.50927500E-09
 -2.01430259E-06  5.91752936E-07 -1.46707044E-09  1.95774362E-06 -5.75256602E-07
  1.40909637E-09 -1.88027246E-06  5.49898921E-07 -9.59425690E-10  1.27998118E-06
 -3.70377497E-07  5.45750198E-10 -7.27609033E-07  2.03661434E-07 -3.68000456E-10
  4.89977827E-07 -1.27565833E-07  3.75697068E-10 -4.99236473E-07  1.15970451E-07
 -4.70385623E-10  6.24166961E-07 -1.31931108E-07  2.99996167E-10 -3.96658426E-07
  5.98202456E-08 -8.83308613E-08  6.72843604E-11 -8.97176078E-08 -1.79012401E-07
 -2.69256117E-10  2.02758068E-08 -1.37848988E-11  1.82121971E-08  3.76401895E-08
  5.66448333E-11  2.27643600E-08 -2.18894376E-11  2.96352994E-08  5.53947773E-08
  8.32399826E-11 -1.38025546E-08  1.92846841E-11 -2.65406862E-08 -4.52420092E-08
 -6.78859873E-11  8.50257339E-09 -2.29457221E-11  3.20213738E-08  4.76107560E-08
  7.12635591E-11 -4.61522734E-09  1.34287615E-08  3.62827665E-11 -4.86368882E-08
  1.80938449E-08 -1.67642256E-07 -6.07870084E-11  8.08416981E-08 -1.98186329E-08
  4.82924635E-07 -1.40858526E-11  1.92239133E-08 -1.12851530E-08 -5.23374373E-08
  2.46703862E-11 -3.12439301E-08 -7.24595333E-08 -1.09233756E-10  3.28816426E-08
 -9.14288893E-08 -1.52150246E-07  3.54010405E-11 -4.69237945E-08  8.54334418E-09
  4.76414995E-01  6.02364319E-01  9.13247331E-03 -1.29599632E-04 -1.23587791E-04
  4.45690827E-05 -1.77089290E-05  1.12686761E-05 -2.96613591E-06  1.17205503E-06
  1.74187759E-06  1.00739166E-06  5.91715056E-07 -1.69282911E-06 -9.79033320E-07
 -5.75161284E-07  1.62556438E-06  9.40145726E-07  5.49691483E-07 -1.10618053E-06
 -6.39769497E-07 -3.70054172E-07  6.28088024E-07  3.63283898E-07  2.03163903E-07
 -4.21918386E-07 -2.44103136E-07 -1.26816816E-07  4.28487889E-07  2.47895450E-07
  1.14630176E-07 -5.36092398E-07 -3.09078163E-07 -1.29764118E-07  3.49322594E-07
  1.97039582E-07  5.85165703E-08 -8.82736415E-08  7.76679091E-08  4.49202025E-08
  8.92893218E-08  1.55005106E-07  2.04524324E-08 -1.57607936E-08 -9.12224644E-09
 -1.90840907E-08 -3.26105107E-08  2.22516651E-08 -2.56673768E-08 -1.48272632E-08
 -2.68188902E-08 -4.79151334E-08 -1.28448602E-08  2.29887720E-08  1.32658201E-08
  2.10233284E-08  3.90604913E-08  6.36508709E-09 -2.75062599E-08 -1.58797191E-08
 -2.04060789E-08 -4.05548838E-08 -2.04163137E-02 -2.58137534E-02 -3.91359952E-04
  5.54456002E-06  5.31985597E-06 -1.94551636E-06  8.09629217E-07 -5.40520678E-07
  2.61568769E-07 -3.08562452E-07  7.41039247E-08 -4.26811143E-08 -2.50378424E-08
 -6.89705462E-08  3.98806444E-08  2.30384657E-08  5.96542974E-08 -3.48423233E-08
 -1.92063898E-08 -3.08839291E-08  1.83366724E-08  8.50483342E-09  4.19558911E-10
 -1.09243915E-09  3.03587065E-09  2.43578680E-08 -1.19078792E-08 -1.24608251E-08
 -5.78207177E-08  3.13585314E-08  2.71907901E-08  6.33044890E-08 -5.89161461E-08
 -4.63492935E-08  1.62046691E-07  2.26018865E-08  2.94379260E-08  5.30892799E-09
  3.25887775E-09 -1.92334655E-09 -6.33020653E-09  6.74712639E-09 -5.65119288E-09
 -4.98709025E-10  4.47464448E-10  8.54720517E-09 -1.83647327E-09  1.02606628E-08
 -1.46463981E-09  4.65280127E-10 -1.69529485E-08 -9.25983110E-10 -2.13177707E-08
  1.46222689E-09 -1.95617270E-10  3.43556844E-08 -9.05736819E-10  4.92561304E-08