10541                                                                   
Freq      RMP2-FC                                                     6-31G(d)            
Number of atoms                            I               17
Info1-9                                    I   N=           9
          29          27        1002           0           0         100
           6           2           1
Charge                                     I                0
Multiplicity                               I                1
Number of electrons                        I               74
Number of alpha electrons                  I               37
Number of beta electrons                   I               37
Number of basis functions                  I              142
Number of independent functions            I              142
Number of point charges in /Mol/           I                0
Number of translation vectors              I                0
Atomic numbers                             I   N=          17
          15           8           8           8           8           6
           6           6           1           1           1           1
           1           1           1           1           1
Nuclear charges                            R   N=          17
  1.50000000E+01  8.00000000E+00  8.00000000E+00  8.00000000E+00  8.00000000E+00
  6.00000000E+00  6.00000000E+00  6.00000000E+00  1.00000000E+00  1.00000000E+00
  1.00000000E+00  1.00000000E+00  1.00000000E+00  1.00000000E+00  1.00000000E+00
  1.00000000E+00  1.00000000E+00
Current cartesian coordinates              R   N=          51
 -1.08562802E-01 -8.91136660E-02  7.92719505E-01 -2.44937918E+00  1.38424444E+00
 -4.69173016E-01  8.92356825E-01 -1.68923518E+00 -1.62583183E+00  1.87142949E+00
  2.17082442E+00  1.18465611E+00 -5.59656462E-01 -1.60492406E+00  3.09786396E+00
 -4.65280602E+00 -1.02909636E-01 -1.10087512E+00  2.65061660E+00 -3.71411747E+00
 -1.09327871E+00  2.38985741E+00  3.86824591E+00 -8.90133946E-01 -5.30260807E+00
 -1.14725691E+00  5.54982271E-01 -4.20444896E+00 -1.40171235E+00 -2.63963895E+00
 -6.08812186E+00  1.24315137E+00 -1.69982004E+00  4.42109018E+00 -2.94912591E+00
 -3.55107736E-01  2.98978532E+00 -4.65103736E+00 -2.89349890E+00  1.83517843E+00
 -5.02748229E+00  2.69469095E-01  2.87782032E+00  2.80341462E+00 -2.58881340E+00
  3.98902212E+00  5.01293456E+00 -2.85945408E-01  7.46711175E-01  5.05922942E+00
 -1.24681462E+00
Force Field                                I                0
Int Atom Types                             I   N=          17
           0           0           0           0           0           0
           0           0           0           0           0           0
           0           0           0           0           0
MM charges                                 R   N=          17
  0.00000000E+00  0.00000000E+00  0.00000000E+00  0.00000000E+00  0.00000000E+00
  0.00000000E+00  0.00000000E+00  0.00000000E+00  0.00000000E+00  0.00000000E+00
  0.00000000E+00  0.00000000E+00  0.00000000E+00  0.00000000E+00  0.00000000E+00
  0.00000000E+00  0.00000000E+00
Integer atomic weights                     I   N=          17
          31          16          16          16          16          12
          12          12           1           1           1           1
           1           1           1           1           1
Real atomic weights                        R   N=          17
  3.09737634E+01  1.59949146E+01  1.59949146E+01  1.59949146E+01  1.59949146E+01
  1.20000000E+01  1.20000000E+01  1.20000000E+01  1.00782504E+00  1.00782504E+00
  1.00782504E+00  1.00782504E+00  1.00782504E+00  1.00782504E+00  1.00782504E+00
  1.00782504E+00  1.00782504E+00
Atom fragment info                         I   N=          17
           0           0           0           0           0           0
           0           0           0           0           0           0
           0           0           0           0           0
Atom residue num                           I   N=          17
           0           0           0           0           0           0
           0           0           0           0           0           0
           0           0           0           0           0
Nuclear spins                              I   N=          17
           1           0           0           0           0           0
           0           0           1           1           1           1
           1           1           1           1           1
Nuclear ZEff                               R   N=          17
 -1.29400000E+01 -5.60000000E+00 -5.60000000E+00 -5.60000000E+00 -5.60000000E+00
 -3.60000000E+00 -3.60000000E+00 -3.60000000E+00 -1.00000000E+00 -1.00000000E+00
 -1.00000000E+00 -1.00000000E+00 -1.00000000E+00 -1.00000000E+00 -1.00000000E+00
 -1.00000000E+00 -1.00000000E+00
Nuclear QMom                               R   N=          17
  0.00000000E+00  0.00000000E+00  0.00000000E+00  0.00000000E+00  0.00000000E+00
  0.00000000E+00  0.00000000E+00  0.00000000E+00  0.00000000E+00  0.00000000E+00
  0.00000000E+00  0.00000000E+00  0.00000000E+00  0.00000000E+00  0.00000000E+00
  0.00000000E+00  0.00000000E+00
Nuclear GFac                               R   N=          17
  1.13160000E+00  0.00000000E+00  0.00000000E+00  0.00000000E+00  0.00000000E+00
  0.00000000E+00  0.00000000E+00  0.00000000E+00  2.79284600E+00  2.79284600E+00
  2.79284600E+00  2.79284600E+00  2.79284600E+00  2.79284600E+00  2.79284600E+00
  2.79284600E+00  2.79284600E+00
MicOpt                                     I   N=          17
          -1          -1          -1          -1          -1          -1
          -1          -1          -1          -1          -1          -1
          -1          -1          -1          -1          -1
Number of contracted shells                I               51
Number of primitive shells                 I              130
Pure/Cartesian d shells                    I                1
Pure/Cartesian f shells                    I                0
Highest angular momentum                   I                2
Largest degree of contraction              I                6
Shell types                                I   N=          51
           0          -1          -1          -1           2           0
          -1          -1           2           0          -1          -1
           2           0          -1          -1           2           0
          -1          -1           2           0          -1          -1
           2           0          -1          -1           2           0
          -1          -1           2           0           0           0
           0           0           0           0           0           0
           0           0           0           0           0           0
           0           0           0
Number of primitives per shell             I   N=          51
           6           6           3           1           1           6
           3           1           1           6           3           1
           1           6           3           1           1           6
           3           1           1           6           3           1
           1           6           3           1           1           6
           3           1           1           3           1           3
           1           3           1           3           1           3
           1           3           1           3           1           3
           1           3           1
Shell to atom map                          I   N=          51
           1           1           1           1           1           2
           2           2           2           3           3           3
           3           4           4           4           4           5
           5           5           5           6           6           6
           6           7           7           7           7           8
           8           8           8           9           9          10
          10          11          11          12          12          13
          13          14          14          15          15          16
          16          17          17
Primitive exponents                        R   N=         130
  1.94133000E+04  2.90942000E+03  6.61364000E+02  1.85759000E+02  5.91943000E+01
  2.00310000E+01  3.39478000E+02  8.10101000E+01  2.58780000E+01  9.45221000E+00
  3.66566000E+00  1.46746000E+00  2.15623000E+00  7.48997000E-01  2.83145000E-01
  9.98317000E-02  5.50000000E-01  5.48467166E+03  8.25234946E+02  1.88046958E+02
  5.29645000E+01  1.68975704E+01  5.79963534E+00  1.55396162E+01  3.59993359E+00
  1.01376175E+00  2.70005823E-01  8.00000000E-01  5.48467166E+03  8.25234946E+02
  1.88046958E+02  5.29645000E+01  1.68975704E+01  5.79963534E+00  1.55396162E+01
  3.59993359E+00  1.01376175E+00  2.70005823E-01  8.00000000E-01  5.48467166E+03
  8.25234946E+02  1.88046958E+02  5.29645000E+01  1.68975704E+01  5.79963534E+00
  1.55396162E+01  3.59993359E+00  1.01376175E+00  2.70005823E-01  8.00000000E-01
  5.48467166E+03  8.25234946E+02  1.88046958E+02  5.29645000E+01  1.68975704E+01
  5.79963534E+00  1.55396162E+01  3.59993359E+00  1.01376175E+00  2.70005823E-01
  8.00000000E-01  3.04752488E+03  4.57369518E+02  1.03948685E+02  2.92101553E+01
  9.28666296E+00  3.16392696E+00  7.86827235E+00  1.88128854E+00  5.44249258E-01
  1.68714478E-01  8.00000000E-01  3.04752488E+03  4.57369518E+02  1.03948685E+02
  2.92101553E+01  9.28666296E+00  3.16392696E+00  7.86827235E+00  1.88128854E+00
  5.44249258E-01  1.68714478E-01  8.00000000E-01  3.04752488E+03  4.57369518E+02
  1.03948685E+02  2.92101553E+01  9.28666296E+00  3.16392696E+00  7.86827235E+00
  1.88128854E+00  5.44249258E-01  1.68714478E-01  8.00000000E-01  1.87311370E+01
  2.82539436E+00  6.40121692E-01  1.61277759E-01  1.87311370E+01  2.82539436E+00
  6.40121692E-01  1.61277759E-01  1.87311370E+01  2.82539436E+00  6.40121692E-01
  1.61277759E-01  1.87311370E+01  2.82539436E+00  6.40121692E-01  1.61277759E-01
  1.87311370E+01  2.82539436E+00  6.40121692E-01  1.61277759E-01  1.87311370E+01
  2.82539436E+00  6.40121692E-01  1.61277759E-01  1.87311370E+01  2.82539436E+00
  6.40121692E-01  1.61277759E-01  1.87311370E+01  2.82539436E+00  6.40121692E-01
  1.61277759E-01  1.87311370E+01  2.82539436E+00  6.40121692E-01  1.61277759E-01
Contraction coefficients                   R   N=         130
  1.85159892E-03  1.42061917E-02  6.99994593E-02  2.40078860E-01  4.84761718E-01
  3.35199805E-01 -2.78217010E-03 -3.60499014E-02 -1.16631004E-01  9.68328036E-02
  6.14418023E-01  4.03798015E-01 -2.52924114E-01  3.28518447E-02  1.08125476E+00
  1.00000000E+00  1.00000000E+00  1.83107443E-03  1.39501722E-02  6.84450781E-02
  2.32714336E-01  4.70192898E-01  3.58520853E-01 -1.10777550E-01 -1.48026263E-01
  1.13076702E+00  1.00000000E+00  1.00000000E+00  1.83107443E-03  1.39501722E-02
  6.84450781E-02  2.32714336E-01  4.70192898E-01  3.58520853E-01 -1.10777550E-01
 -1.48026263E-01  1.13076702E+00  1.00000000E+00  1.00000000E+00  1.83107443E-03
  1.39501722E-02  6.84450781E-02  2.32714336E-01  4.70192898E-01  3.58520853E-01
 -1.10777550E-01 -1.48026263E-01  1.13076702E+00  1.00000000E+00  1.00000000E+00
  1.83107443E-03  1.39501722E-02  6.84450781E-02  2.32714336E-01  4.70192898E-01
  3.58520853E-01 -1.10777550E-01 -1.48026263E-01  1.13076702E+00  1.00000000E+00
  1.00000000E+00  1.83473713E-03  1.40373228E-02  6.88426223E-02  2.32184443E-01
  4.67941348E-01  3.62311985E-01 -1.19332420E-01 -1.60854152E-01  1.14345644E+00
  1.00000000E+00  1.00000000E+00  1.83473713E-03  1.40373228E-02  6.88426223E-02
  2.32184443E-01  4.67941348E-01  3.62311985E-01 -1.19332420E-01 -1.60854152E-01
  1.14345644E+00  1.00000000E+00  1.00000000E+00  1.83473713E-03  1.40373228E-02
  6.88426223E-02  2.32184443E-01  4.67941348E-01  3.62311985E-01 -1.19332420E-01
 -1.60854152E-01  1.14345644E+00  1.00000000E+00  1.00000000E+00  3.34946043E-02
  2.34726953E-01  8.13757326E-01  1.00000000E+00  3.34946043E-02  2.34726953E-01
  8.13757326E-01  1.00000000E+00  3.34946043E-02  2.34726953E-01  8.13757326E-01
  1.00000000E+00  3.34946043E-02  2.34726953E-01  8.13757326E-01  1.00000000E+00
  3.34946043E-02  2.34726953E-01  8.13757326E-01  1.00000000E+00  3.34946043E-02
  2.34726953E-01  8.13757326E-01  1.00000000E+00  3.34946043E-02  2.34726953E-01
  8.13757326E-01  1.00000000E+00  3.34946043E-02  2.34726953E-01  8.13757326E-01
  1.00000000E+00  3.34946043E-02  2.34726953E-01  8.13757326E-01  1.00000000E+00
P(S=P) Contraction coefficients            R   N=         130
  0.00000000E+00  0.00000000E+00  0.00000000E+00  0.00000000E+00  0.00000000E+00
  0.00000000E+00  4.56461619E-03  3.36935719E-02  1.39754883E-01  3.39361717E-01
  4.50920624E-01  2.38585801E-01 -1.77653127E-02  2.74058196E-01  7.85421563E-01
  1.00000000E+00  0.00000000E+00  0.00000000E+00  0.00000000E+00  0.00000000E+00
  0.00000000E+00  0.00000000E+00  0.00000000E+00  7.08742682E-02  3.39752839E-01
  7.27158577E-01  1.00000000E+00  0.00000000E+00  0.00000000E+00  0.00000000E+00
  0.00000000E+00  0.00000000E+00  0.00000000E+00  0.00000000E+00  7.08742682E-02
  3.39752839E-01  7.27158577E-01  1.00000000E+00  0.00000000E+00  0.00000000E+00
  0.00000000E+00  0.00000000E+00  0.00000000E+00  0.00000000E+00  0.00000000E+00
  7.08742682E-02  3.39752839E-01  7.27158577E-01  1.00000000E+00  0.00000000E+00
  0.00000000E+00  0.00000000E+00  0.00000000E+00  0.00000000E+00  0.00000000E+00
  0.00000000E+00  7.08742682E-02  3.39752839E-01  7.27158577E-01  1.00000000E+00
  0.00000000E+00  0.00000000E+00  0.00000000E+00  0.00000000E+00  0.00000000E+00
  0.00000000E+00  0.00000000E+00  6.89990666E-02  3.16423961E-01  7.44308291E-01
  1.00000000E+00  0.00000000E+00  0.00000000E+00  0.00000000E+00  0.00000000E+00
  0.00000000E+00  0.00000000E+00  0.00000000E+00  6.89990666E-02  3.16423961E-01
  7.44308291E-01  1.00000000E+00  0.00000000E+00  0.00000000E+00  0.00000000E+00
  0.00000000E+00  0.00000000E+00  0.00000000E+00  0.00000000E+00  6.89990666E-02
  3.16423961E-01  7.44308291E-01  1.00000000E+00  0.00000000E+00  0.00000000E+00
  0.00000000E+00  0.00000000E+00  0.00000000E+00  0.00000000E+00  0.00000000E+00
  0.00000000E+00  0.00000000E+00  0.00000000E+00  0.00000000E+00  0.00000000E+00
  0.00000000E+00  0.00000000E+00  0.00000000E+00  0.00000000E+00  0.00000000E+00
  0.00000000E+00  0.00000000E+00  0.00000000E+00  0.00000000E+00  0.00000000E+00
  0.00000000E+00  0.00000000E+00  0.00000000E+00  0.00000000E+00  0.00000000E+00
  0.00000000E+00  0.00000000E+00  0.00000000E+00  0.00000000E+00  0.00000000E+00
  0.00000000E+00  0.00000000E+00  0.00000000E+00  0.00000000E+00  0.00000000E+00
Coordinates of each shell                  R   N=         153
 -1.08562802E-01 -8.91136660E-02  7.92719505E-01 -1.08562802E-01 -8.91136660E-02
  7.92719505E-01 -1.08562802E-01 -8.91136660E-02  7.92719505E-01 -1.08562802E-01
 -8.91136660E-02  7.92719505E-01 -1.08562802E-01 -8.91136660E-02  7.92719505E-01
 -2.44937918E+00  1.38424444E+00 -4.69173016E-01 -2.44937918E+00  1.38424444E+00
 -4.69173016E-01 -2.44937918E+00  1.38424444E+00 -4.69173016E-01 -2.44937918E+00
  1.38424444E+00 -4.69173016E-01  8.92356825E-01 -1.68923518E+00 -1.62583183E+00
  8.92356825E-01 -1.68923518E+00 -1.62583183E+00  8.92356825E-01 -1.68923518E+00
 -1.62583183E+00  8.92356825E-01 -1.68923518E+00 -1.62583183E+00  1.87142949E+00
  2.17082442E+00  1.18465611E+00  1.87142949E+00  2.17082442E+00  1.18465611E+00
  1.87142949E+00  2.17082442E+00  1.18465611E+00  1.87142949E+00  2.17082442E+00
  1.18465611E+00 -5.59656462E-01 -1.60492406E+00  3.09786396E+00 -5.59656462E-01
 -1.60492406E+00  3.09786396E+00 -5.59656462E-01 -1.60492406E+00  3.09786396E+00
 -5.59656462E-01 -1.60492406E+00  3.09786396E+00 -4.65280602E+00 -1.02909636E-01
 -1.10087512E+00 -4.65280602E+00 -1.02909636E-01 -1.10087512E+00 -4.65280602E+00
 -1.02909636E-01 -1.10087512E+00 -4.65280602E+00 -1.02909636E-01 -1.10087512E+00
  2.65061660E+00 -3.71411747E+00 -1.09327871E+00  2.65061660E+00 -3.71411747E+00
 -1.09327871E+00  2.65061660E+00 -3.71411747E+00 -1.09327871E+00  2.65061660E+00
 -3.71411747E+00 -1.09327871E+00  2.38985741E+00  3.86824591E+00 -8.90133946E-01
  2.38985741E+00  3.86824591E+00 -8.90133946E-01  2.38985741E+00  3.86824591E+00
 -8.90133946E-01  2.38985741E+00  3.86824591E+00 -8.90133946E-01 -5.30260807E+00
 -1.14725691E+00  5.54982271E-01 -5.30260807E+00 -1.14725691E+00  5.54982271E-01
 -4.20444896E+00 -1.40171235E+00 -2.63963895E+00 -4.20444896E+00 -1.40171235E+00
 -2.63963895E+00 -6.08812186E+00  1.24315137E+00 -1.69982004E+00 -6.08812186E+00
  1.24315137E+00 -1.69982004E+00  4.42109018E+00 -2.94912591E+00 -3.55107736E-01
  4.42109018E+00 -2.94912591E+00 -3.55107736E-01  2.98978532E+00 -4.65103736E+00
 -2.89349890E+00  2.98978532E+00 -4.65103736E+00 -2.89349890E+00  1.83517843E+00
 -5.02748229E+00  2.69469095E-01  1.83517843E+00 -5.02748229E+00  2.69469095E-01
  2.87782032E+00  2.80341462E+00 -2.58881340E+00  2.87782032E+00  2.80341462E+00
 -2.58881340E+00  3.98902212E+00  5.01293456E+00 -2.85945408E-01  3.98902212E+00
  5.01293456E+00 -2.85945408E-01  7.46711175E-01  5.05922942E+00 -1.24681462E+00
  7.46711175E-01  5.05922942E+00 -1.24681462E+00
Constraint Structure                       R   N=          51
 -1.08562802E-01 -8.91136660E-02  7.92719505E-01 -2.44937918E+00  1.38424444E+00
 -4.69173016E-01  8.92356825E-01 -1.68923518E+00 -1.62583183E+00  1.87142949E+00
  2.17082442E+00  1.18465611E+00 -5.59656462E-01 -1.60492406E+00  3.09786396E+00
 -4.65280602E+00 -1.02909636E-01 -1.10087512E+00  2.65061660E+00 -3.71411747E+00
 -1.09327871E+00  2.38985741E+00  3.86824591E+00 -8.90133946E-01 -5.30260807E+00
 -1.14725691E+00  5.54982271E-01 -4.20444896E+00 -1.40171235E+00 -2.63963895E+00
 -6.08812186E+00  1.24315137E+00 -1.69982004E+00  4.42109018E+00 -2.94912591E+00
 -3.55107736E-01  2.98978532E+00 -4.65103736E+00 -2.89349890E+00  1.83517843E+00
 -5.02748229E+00  2.69469095E-01  2.87782032E+00  2.80341462E+00 -2.58881340E+00
  3.98902212E+00  5.01293456E+00 -2.85945408E-01  7.46711175E-01  5.05922942E+00
 -1.24681462E+00
Num ILSW                                   I              100
ILSW                                       I   N=         100
           0           1           0           1           2           0
           0           0           0           0           0          -1
           0           0           0           0           0           0
           0           0           0           0           1           0
           1           0           0           0           0           0
           0           0      100000           0          -1           0
           0           0           0           0           0           0
           0           0           0           1           1           0
           0           0           1           0           0           0
           0           0           4          40           0           0
           0           0           0           0           0           0
           0           0           0           0           0           0
           0           0           0           0           0           0
           0           0           0           0           0           0
           0           0           0           0           0           0
           0           0           0           0           0           0
           0           0           0           0
Num RLSW                                   I               40
RLSW                                       R   N=          40
  1.00000000E+00  1.00000000E+00  1.00000000E+00  1.00000000E+00  1.00000000E+00
  0.00000000E+00  0.00000000E+00  1.00000000E+00  0.00000000E+00  0.00000000E+00
  0.00000000E+00  0.00000000E+00  1.00000000E+00  0.00000000E+00  0.00000000E+00
  0.00000000E+00  0.00000000E+00  1.00000000E+00  0.00000000E+00  0.00000000E+00
  0.00000000E+00  0.00000000E+00  1.00000000E+00  0.00000000E+00  0.00000000E+00
  0.00000000E+00  0.00000000E+00  1.00000000E+00  0.00000000E+00  0.00000000E+00
  0.00000000E+00  0.00000000E+00  0.00000000E+00  0.00000000E+00  0.00000000E+00
  0.00000000E+00  0.00000000E+00  0.00000000E+00  1.00000000E+00  1.00000000E+00
MxBond                                     I                4
NBond                                      I   N=          17
           4           2           2           2           1           4
           4           4           1           1           1           1
           1           1           1           1           1
IBond                                      I   N=          68
           2           3           4           5           1           6
           0           0           1           7           0           0
           1           8           0           0           1           0
           0           0           2           9          10          11
           3          12          13          14           4          15
          16          17           6           0           0           0
           6           0           0           0           6           0
           0           0           7           0           0           0
           7           0           0           0           7           0
           0           0           8           0           0           0
           8           0           0           0           8           0
           0           0
RBond                                      R   N=          68
  1.00000000E+00  1.00000000E+00  1.00000000E+00  2.00000000E+00  1.00000000E+00
  1.00000000E+00  0.00000000E+00  0.00000000E+00  1.00000000E+00  1.00000000E+00
  0.00000000E+00  0.00000000E+00  1.00000000E+00  1.00000000E+00  0.00000000E+00
  0.00000000E+00  2.00000000E+00  0.00000000E+00  0.00000000E+00  0.00000000E+00
  1.00000000E+00  1.00000000E+00  1.00000000E+00  1.00000000E+00  1.00000000E+00
  1.00000000E+00  1.00000000E+00  1.00000000E+00  1.00000000E+00  1.00000000E+00
  1.00000000E+00  1.00000000E+00  1.00000000E+00  0.00000000E+00  0.00000000E+00
  0.00000000E+00  1.00000000E+00  0.00000000E+00  0.00000000E+00  0.00000000E+00
  1.00000000E+00  0.00000000E+00  0.00000000E+00  0.00000000E+00  1.00000000E+00
  0.00000000E+00  0.00000000E+00  0.00000000E+00  1.00000000E+00  0.00000000E+00
  0.00000000E+00  0.00000000E+00  1.00000000E+00  0.00000000E+00  0.00000000E+00
  0.00000000E+00  1.00000000E+00  0.00000000E+00  0.00000000E+00  0.00000000E+00
  1.00000000E+00  0.00000000E+00  0.00000000E+00  0.00000000E+00  1.00000000E+00
  0.00000000E+00  0.00000000E+00  0.00000000E+00
Virial Ratio                               R      2.002360890438585E+00
SCF Energy                                 R     -7.590877744583661E+02
MP2 Energy                                 R     -7.603029336519466E+02
Total Energy                               R     -7.603029336519466E+02
Post-SCF wavefunction norm                 R      1.651132316199161E+00
RMS Force                                  R      3.656751042096497E-07
RMS Density                                R      1.080467159639245E-09
External E-field                           R   N=          35
  0.00000000E+00  0.00000000E+00  0.00000000E+00  0.00000000E+00  0.00000000E+00
  0.00000000E+00  0.00000000E+00  0.00000000E+00  0.00000000E+00  0.00000000E+00
  0.00000000E+00  0.00000000E+00  0.00000000E+00  0.00000000E+00  0.00000000E+00
  0.00000000E+00  0.00000000E+00  0.00000000E+00  0.00000000E+00  0.00000000E+00
  0.00000000E+00  0.00000000E+00  0.00000000E+00  0.00000000E+00  0.00000000E+00
  0.00000000E+00  0.00000000E+00  0.00000000E+00  0.00000000E+00  0.00000000E+00
  0.00000000E+00  0.00000000E+00  0.00000000E+00  0.00000000E+00  0.00000000E+00
IOpCl                                      I                0
IROHF                                      I                0
Alpha Orbital Energies                     R   N=         142
 -8.01113213E+01 -2.06021921E+01 -2.06018254E+01 -2.05995791E+01 -2.05171124E+01
 -1.12970542E+01 -1.12957987E+01 -1.12953741E+01 -7.63227686E+00 -5.53091977E+00
 -5.53060226E+00 -5.52980236E+00 -1.44582888E+00 -1.37641321E+00 -1.37608836E+00
 -1.28760748E+00 -9.79757796E-01 -9.53204113E-01 -9.48255585E-01 -7.85766669E-01
 -7.12705803E-01 -7.10377379E-01 -6.71744207E-01 -6.60242871E-01 -6.48137584E-01
 -6.29427808E-01 -6.16308403E-01 -6.13126498E-01 -5.80081336E-01 -5.39299428E-01
 -5.25600559E-01 -5.13824840E-01 -4.93768140E-01 -4.89390547E-01 -4.79063751E-01
 -4.57210343E-01 -4.51875412E-01  2.13177072E-01  2.46415794E-01  2.49476478E-01
  2.60501343E-01  2.74483088E-01  2.92677851E-01  3.00663810E-01  3.02922993E-01
  3.05638176E-01  3.12115313E-01  3.26178365E-01  3.36879750E-01  3.68359114E-01
  3.80650379E-01  3.91497311E-01  4.40693027E-01  5.26517013E-01  5.62592662E-01
  5.75161742E-01  6.05919912E-01  6.94833254E-01  7.35267235E-01  7.50376893E-01
  7.56181017E-01  7.70985827E-01  7.85830925E-01  8.07356151E-01  8.72091498E-01
  8.81678494E-01  9.24836587E-01  9.62391526E-01  1.04719273E+00  1.05659474E+00
  1.07840633E+00  1.10635603E+00  1.10817352E+00  1.11279601E+00  1.13091286E+00
  1.16556083E+00  1.17932819E+00  1.18388834E+00  1.19391531E+00  1.20507144E+00
  1.25465043E+00  1.26654133E+00  1.29634868E+00  1.30868331E+00  1.31010773E+00
  1.35024734E+00  1.38954849E+00  1.40280203E+00  1.41875159E+00  1.43991742E+00
  1.47213139E+00  1.51966013E+00  1.57459490E+00  1.63365112E+00  1.72506587E+00
  1.73804742E+00  1.75446180E+00  1.77353773E+00  1.77806318E+00  1.82062542E+00
  1.83856339E+00  1.84726755E+00  1.94862396E+00  1.96095347E+00  2.00381543E+00
  2.09701726E+00  2.12956691E+00  2.18015451E+00  2.19355535E+00  2.27726570E+00
  2.32500789E+00  2.33515708E+00  2.34258987E+00  2.38461131E+00  2.40138766E+00
  2.43661392E+00  2.45395273E+00  2.46129484E+00  2.46967169E+00  2.54891682E+00
  2.56952496E+00  2.63548697E+00  2.66303752E+00  2.68836401E+00  2.69786932E+00
  2.71658321E+00  2.72424514E+00  2.84693384E+00  2.97467950E+00  3.00729769E+00
  3.08940707E+00  3.12876056E+00  3.17995780E+00  3.24639717E+00  3.89374238E+00
  4.19759442E+00  4.35522036E+00  4.38014236E+00  4.50849185E+00  4.64497618E+00
  4.67536991E+00  4.70369248E+00
Alpha MO coefficients                      R   N=       20164
  9.96425294E-01  1.34916934E-02  8.55332050E-06  2.33090038E-05 -4.06960529E-05
 -2.20822241E-02 -6.61348124E-06 -1.82019830E-06  2.03524652E-05  2.41790258E-03
 -8.39970501E-06 -8.78864567E-05 -1.92021911E-04  7.48786903E-03  7.47174853E-03
  7.49070767E-03 -1.78217208E-05  2.84597728E-06  3.20229937E-05 -1.14194696E-05
 -7.03416137E-05 -4.32272856E-05  5.98733826E-05 -4.04248176E-05  6.65649428E-04
  1.80182043E-04 -2.58033331E-04  1.74650212E-04 -1.13904879E-04 -6.62500779E-05
 -6.91370884E-05  9.46180651E-05 -4.69360970E-05  3.67236815E-05 -3.02438130E-06
 -3.49160570E-05 -1.13377408E-06 -1.44153353E-05 -7.17500932E-05  4.91872525E-04
  1.11678009E-05  5.68297692E-05  3.23312408E-04 -2.01773626E-05 -3.39716052E-05
 -1.12539160E-04  4.46502199E-06  5.82773577E-05 -8.63063218E-05 -1.71817079E-05
 -9.80912984E-05  6.40713619E-05  5.70372344E-05  2.93236710E-05  8.13442735E-04
 -2.79999364E-04 -2.41808890E-04 -1.40670567E-04 -1.27676328E-04 -1.35862355E-04
 -3.45355635E-05 -8.17445899E-05 -1.85546204E-05 -3.92747607E-05 -4.62172369E-06
 -9.91560973E-05 -2.64369367E-05 -9.43213692E-05  1.30886858E-04  6.65908581E-04
  7.74301853E-05  2.81254375E-04 -3.68226593E-04 -8.82579703E-06 -4.46543518E-05
 -9.75397170E-05 -1.62537081E-05  2.10019368E-05  6.79380267E-05 -1.17558516E-05
 -5.69178815E-05 -3.47357319E-05  1.17611662E-05 -1.59113300E-05  1.07428788E-04
 -9.65456947E-05 -1.06871093E-04 -3.80752149E-05 -2.74162401E-05 -2.79723870E-06
 -2.78034447E-05 -1.03605193E-05  4.33049436E-06 -1.75166996E-05 -1.27000326E-05
 -5.53965053E-05  1.94455464E-05 -3.68696164E-05 -2.60592272E-05  8.73953128E-05
  1.05295836E-04 -8.66186724E-05  8.58184621E-05 -3.76532017E-05 -3.72587460E-05
  2.42414594E-06  5.37592638E-06  5.80294103E-07  7.36573662E-06 -6.87573692E-06
 -3.89383904E-05  2.12112356E-05  2.11725768E-05 -2.02527088E-06  4.05769406E-05
  4.58319730E-05  1.08514031E-04 -9.51959176E-05 -1.37586128E-05 -2.21363693E-05
  3.64208617E-06  8.31153076E-06  2.19463166E-05  1.11805585E-05  5.03074550E-06
 -1.68058213E-04  1.80309247E-05 -2.04452656E-04 -1.38717478E-05  1.15919678E-05
  4.57216927E-06 -1.75212687E-04 -1.14569145E-05  2.98020661E-05  1.05583920E-05
 -1.93930521E-04  1.46560489E-05 -1.58566665E-04 -1.49266391E-05 -1.22420940E-05
  1.99630583E-05 -1.36312127E-04  1.25848978E-05 -4.94882653E-05  5.66937252E-05
 -3.32112594E-05  2.82616859E-05  3.12472062E-04 -3.56181802E-04  2.09734358E-04
 -1.60483027E-04 -6.03765742E-04  1.69247207E-04 -4.50124480E-04  3.11640811E-04
  1.17586678E-04 -5.46164591E-05 -5.71162162E-05 -1.19873055E-04  1.37882807E-04
 -6.76278038E-05  9.94446002E-01  2.11555317E-02 -4.06009615E-05 -1.11023697E-03
  1.94367973E-04  4.41420862E-03  1.66660698E-04  6.69758925E-04 -1.01240408E-04
 -4.30174507E-03 -4.19114877E-03 -4.04900786E-03 -6.03973093E-05 -1.44017708E-04
  1.99469264E-05 -1.75984796E-02 -4.37993611E-04  7.27447960E-07 -1.97997042E-05
 -2.23166870E-05  2.77269247E-04  8.48510408E-06  1.06343407E-04  5.59017814E-05
 -1.48749160E-05  5.42043038E-06  3.36295689E-05  2.53484861E-05  8.34643013E-06
  1.26628707E-05 -2.46251823E-03 -7.72675188E-05 -4.60475293E-07  5.75208412E-07
 -1.52578608E-06  2.41020612E-04 -7.41986133E-06 -4.89075838E-05 -8.55135470E-06
 -4.67916539E-05  1.08181852E-05  4.54398904E-06  4.38505441E-07 -2.90997615E-05
  1.02328637E-05 -7.06417450E-05  4.00615848E-05  1.27104811E-05 -1.01850551E-05
 -6.98114559E-06 -1.81814612E-04 -1.52861756E-05  5.62754433E-05  8.47043408E-09
  2.41138654E-05  4.57854331E-05  4.16565619E-05  1.08437818E-05 -1.26908321E-05
 -1.03075218E-06 -1.68367344E-05  1.64140067E-04  3.07445048E-04  2.11732834E-04