13930844                                                                
Freq      RMP2-FC                                                     6-31G(d)            
Number of atoms                            I               20
Info1-9                                    I   N=           9
          32          30        1002           0           0         100
           6           2           1
Charge                                     I                0
Multiplicity                               I                1
Number of electrons                        I               56
Number of alpha electrons                  I               28
Number of beta electrons                   I               28
Number of basis functions                  I              131
Number of independent functions            I              131
Number of point charges in /Mol/           I                0
Number of translation vectors              I                0
Atomic numbers                             I   N=          20
           7           6           6           6           6           6
           6           1           1           1           1           1
           1           1           1           1           1           1
           1           1
Nuclear charges                            R   N=          20
  7.00000000E+00  6.00000000E+00  6.00000000E+00  6.00000000E+00  6.00000000E+00
  6.00000000E+00  6.00000000E+00  1.00000000E+00  1.00000000E+00  1.00000000E+00
  1.00000000E+00  1.00000000E+00  1.00000000E+00  1.00000000E+00  1.00000000E+00
  1.00000000E+00  1.00000000E+00  1.00000000E+00  1.00000000E+00  1.00000000E+00
Current cartesian coordinates              R   N=          60
  1.19722042E+00 -8.08574676E-01 -5.15598121E-01 -3.27181539E+00 -1.05093252E+00
 -1.17197591E+00 -9.12907857E-01  4.06505173E-01 -5.28672124E-01  3.49062989E+00
  5.77438956E-01  1.74333701E-01 -4.99554312E+00 -1.37644665E+00  1.13123171E+00
 -1.21074340E+00  3.17444637E+00  1.22722072E-01  5.70393999E+00 -1.24863928E+00
  3.23810032E-01 -2.68570223E+00 -2.89557190E+00 -1.89426757E+00 -4.30200698E+00
 -6.73860752E-02 -2.68106320E+00  3.88148020E+00  2.04975309E+00 -1.24005557E+00
  3.25069806E+00  1.55448812E+00  1.99302002E+00 -6.68388172E+00 -2.46152088E+00
  6.37435298E-01 -5.61583196E+00  4.46278937E-01  1.88456455E+00 -3.99563384E+00
 -2.38730892E+00  2.63098533E+00 -7.77401967E-01  3.51417264E+00  2.11965952E+00
 -3.13256691E+00  3.83262499E+00 -2.40764657E-01  9.84311441E-02  4.33113941E+00
 -9.86561681E-01  7.45189046E+00 -2.60063581E-01  8.19376085E-01  5.33902750E+00
 -2.69640197E+00  1.74988258E+00  5.96959463E+00 -2.19441345E+00 -1.49172078E+00
Force Field                                I                0
Int Atom Types                             I   N=          20
           0           0           0           0           0           0
           0           0           0           0           0           0
           0           0           0           0           0           0
           0           0
MM charges                                 R   N=          20
  0.00000000E+00  0.00000000E+00  0.00000000E+00  0.00000000E+00  0.00000000E+00
  0.00000000E+00  0.00000000E+00  0.00000000E+00  0.00000000E+00  0.00000000E+00
  0.00000000E+00  0.00000000E+00  0.00000000E+00  0.00000000E+00  0.00000000E+00
  0.00000000E+00  0.00000000E+00  0.00000000E+00  0.00000000E+00  0.00000000E+00
Integer atomic weights                     I   N=          20
          14          12          12          12          12          12
          12           1           1           1           1           1
           1           1           1           1           1           1
           1           1
Real atomic weights                        R   N=          20
  1.40030740E+01  1.20000000E+01  1.20000000E+01  1.20000000E+01  1.20000000E+01
  1.20000000E+01  1.20000000E+01  1.00782504E+00  1.00782504E+00  1.00782504E+00
  1.00782504E+00  1.00782504E+00  1.00782504E+00  1.00782504E+00  1.00782504E+00
  1.00782504E+00  1.00782504E+00  1.00782504E+00  1.00782504E+00  1.00782504E+00
Atom fragment info                         I   N=          20
           0           0           0           0           0           0
           0           0           0           0           0           0
           0           0           0           0           0           0
           0           0
Atom residue num                           I   N=          20
           0           0           0           0           0           0
           0           0           0           0           0           0
           0           0           0           0           0           0
           0           0
Nuclear spins                              I   N=          20
           2           0           0           0           0           0
           0           1           1           1           1           1
           1           1           1           1           1           1
           1           1
Nuclear ZEff                               R   N=          20
 -4.55000000E+00 -3.60000000E+00 -3.60000000E+00 -3.60000000E+00 -3.60000000E+00
 -3.60000000E+00 -3.60000000E+00 -1.00000000E+00 -1.00000000E+00 -1.00000000E+00
 -1.00000000E+00 -1.00000000E+00 -1.00000000E+00 -1.00000000E+00 -1.00000000E+00
 -1.00000000E+00 -1.00000000E+00 -1.00000000E+00 -1.00000000E+00 -1.00000000E+00
Nuclear QMom                               R   N=          20
  2.04400000E+00  0.00000000E+00  0.00000000E+00  0.00000000E+00  0.00000000E+00
  0.00000000E+00  0.00000000E+00  0.00000000E+00  0.00000000E+00  0.00000000E+00
  0.00000000E+00  0.00000000E+00  0.00000000E+00  0.00000000E+00  0.00000000E+00
  0.00000000E+00  0.00000000E+00  0.00000000E+00  0.00000000E+00  0.00000000E+00
Nuclear GFac                               R   N=          20
  4.03761000E-01  0.00000000E+00  0.00000000E+00  0.00000000E+00  0.00000000E+00
  0.00000000E+00  0.00000000E+00  2.79284600E+00  2.79284600E+00  2.79284600E+00
  2.79284600E+00  2.79284600E+00  2.79284600E+00  2.79284600E+00  2.79284600E+00
  2.79284600E+00  2.79284600E+00  2.79284600E+00  2.79284600E+00  2.79284600E+00
MicOpt                                     I   N=          20
          -1          -1          -1          -1          -1          -1
          -1          -1          -1          -1          -1          -1
          -1          -1          -1          -1          -1          -1
          -1          -1
Number of contracted shells                I               54
Number of primitive shells                 I              129
Pure/Cartesian d shells                    I                1
Pure/Cartesian f shells                    I                0
Highest angular momentum                   I                2
Largest degree of contraction              I                6
Shell types                                I   N=          54
           0          -1          -1           2           0          -1
          -1           2           0          -1          -1           2
           0          -1          -1           2           0          -1
          -1           2           0          -1          -1           2
           0          -1          -1           2           0           0
           0           0           0           0           0           0
           0           0           0           0           0           0
           0           0           0           0           0           0
           0           0           0           0           0           0
Number of primitives per shell             I   N=          54
           6           3           1           1           6           3
           1           1           6           3           1           1
           6           3           1           1           6           3
           1           1           6           3           1           1
           6           3           1           1           3           1
           3           1           3           1           3           1
           3           1           3           1           3           1
           3           1           3           1           3           1
           3           1           3           1           3           1
Shell to atom map                          I   N=          54
           1           1           1           1           2           2
           2           2           3           3           3           3
           4           4           4           4           5           5
           5           5           6           6           6           6
           7           7           7           7           8           8
           9           9          10          10          11          11
          12          12          13          13          14          14
          15          15          16          16          17          17
          18          18          19          19          20          20
Primitive exponents                        R   N=         129
  4.17351146E+03  6.27457911E+02  1.42902093E+02  4.02343293E+01  1.28202129E+01
  4.39043701E+00  1.16263619E+01  2.71627981E+00  7.72218397E-01  2.12031498E-01
  8.00000000E-01  3.04752488E+03  4.57369518E+02  1.03948685E+02  2.92101553E+01
  9.28666296E+00  3.16392696E+00  7.86827235E+00  1.88128854E+00  5.44249258E-01
  1.68714478E-01  8.00000000E-01  3.04752488E+03  4.57369518E+02  1.03948685E+02
  2.92101553E+01  9.28666296E+00  3.16392696E+00  7.86827235E+00  1.88128854E+00
  5.44249258E-01  1.68714478E-01  8.00000000E-01  3.04752488E+03  4.57369518E+02
  1.03948685E+02  2.92101553E+01  9.28666296E+00  3.16392696E+00  7.86827235E+00
  1.88128854E+00  5.44249258E-01  1.68714478E-01  8.00000000E-01  3.04752488E+03
  4.57369518E+02  1.03948685E+02  2.92101553E+01  9.28666296E+00  3.16392696E+00
  7.86827235E+00  1.88128854E+00  5.44249258E-01  1.68714478E-01  8.00000000E-01
  3.04752488E+03  4.57369518E+02  1.03948685E+02  2.92101553E+01  9.28666296E+00
  3.16392696E+00  7.86827235E+00  1.88128854E+00  5.44249258E-01  1.68714478E-01
  8.00000000E-01  3.04752488E+03  4.57369518E+02  1.03948685E+02  2.92101553E+01
  9.28666296E+00  3.16392696E+00  7.86827235E+00  1.88128854E+00  5.44249258E-01
  1.68714478E-01  8.00000000E-01  1.87311370E+01  2.82539436E+00  6.40121692E-01
  1.61277759E-01  1.87311370E+01  2.82539436E+00  6.40121692E-01  1.61277759E-01
  1.87311370E+01  2.82539436E+00  6.40121692E-01  1.61277759E-01  1.87311370E+01
  2.82539436E+00  6.40121692E-01  1.61277759E-01  1.87311370E+01  2.82539436E+00
  6.40121692E-01  1.61277759E-01  1.87311370E+01  2.82539436E+00  6.40121692E-01
  1.61277759E-01  1.87311370E+01  2.82539436E+00  6.40121692E-01  1.61277759E-01
  1.87311370E+01  2.82539436E+00  6.40121692E-01  1.61277759E-01  1.87311370E+01
  2.82539436E+00  6.40121692E-01  1.61277759E-01  1.87311370E+01  2.82539436E+00
  6.40121692E-01  1.61277759E-01  1.87311370E+01  2.82539436E+00  6.40121692E-01
  1.61277759E-01  1.87311370E+01  2.82539436E+00  6.40121692E-01  1.61277759E-01
  1.87311370E+01  2.82539436E+00  6.40121692E-01  1.61277759E-01
Contraction coefficients                   R   N=         129
  1.83477216E-03  1.39946270E-02  6.85865518E-02  2.32240873E-01  4.69069948E-01
  3.60455199E-01 -1.14961182E-01 -1.69117479E-01  1.14585195E+00  1.00000000E+00
  1.00000000E+00  1.83473713E-03  1.40373228E-02  6.88426223E-02  2.32184443E-01
  4.67941348E-01  3.62311985E-01 -1.19332420E-01 -1.60854152E-01  1.14345644E+00
  1.00000000E+00  1.00000000E+00  1.83473713E-03  1.40373228E-02  6.88426223E-02
  2.32184443E-01  4.67941348E-01  3.62311985E-01 -1.19332420E-01 -1.60854152E-01
  1.14345644E+00  1.00000000E+00  1.00000000E+00  1.83473713E-03  1.40373228E-02
  6.88426223E-02  2.32184443E-01  4.67941348E-01  3.62311985E-01 -1.19332420E-01
 -1.60854152E-01  1.14345644E+00  1.00000000E+00  1.00000000E+00  1.83473713E-03
  1.40373228E-02  6.88426223E-02  2.32184443E-01  4.67941348E-01  3.62311985E-01
 -1.19332420E-01 -1.60854152E-01  1.14345644E+00  1.00000000E+00  1.00000000E+00
  1.83473713E-03  1.40373228E-02  6.88426223E-02  2.32184443E-01  4.67941348E-01
  3.62311985E-01 -1.19332420E-01 -1.60854152E-01  1.14345644E+00  1.00000000E+00
  1.00000000E+00  1.83473713E-03  1.40373228E-02  6.88426223E-02  2.32184443E-01
  4.67941348E-01  3.62311985E-01 -1.19332420E-01 -1.60854152E-01  1.14345644E+00
  1.00000000E+00  1.00000000E+00  3.34946043E-02  2.34726953E-01  8.13757326E-01
  1.00000000E+00  3.34946043E-02  2.34726953E-01  8.13757326E-01  1.00000000E+00
  3.34946043E-02  2.34726953E-01  8.13757326E-01  1.00000000E+00  3.34946043E-02
  2.34726953E-01  8.13757326E-01  1.00000000E+00  3.34946043E-02  2.34726953E-01
  8.13757326E-01  1.00000000E+00  3.34946043E-02  2.34726953E-01  8.13757326E-01
  1.00000000E+00  3.34946043E-02  2.34726953E-01  8.13757326E-01  1.00000000E+00
  3.34946043E-02  2.34726953E-01  8.13757326E-01  1.00000000E+00  3.34946043E-02
  2.34726953E-01  8.13757326E-01  1.00000000E+00  3.34946043E-02  2.34726953E-01
  8.13757326E-01  1.00000000E+00  3.34946043E-02  2.34726953E-01  8.13757326E-01
  1.00000000E+00  3.34946043E-02  2.34726953E-01  8.13757326E-01  1.00000000E+00
  3.34946043E-02  2.34726953E-01  8.13757326E-01  1.00000000E+00
P(S=P) Contraction coefficients            R   N=         129
  0.00000000E+00  0.00000000E+00  0.00000000E+00  0.00000000E+00  0.00000000E+00
  0.00000000E+00  6.75797439E-02  3.23907296E-01  7.40895140E-01  1.00000000E+00
  0.00000000E+00  0.00000000E+00  0.00000000E+00  0.00000000E+00  0.00000000E+00
  0.00000000E+00  0.00000000E+00  6.89990666E-02  3.16423961E-01  7.44308291E-01
  1.00000000E+00  0.00000000E+00  0.00000000E+00  0.00000000E+00  0.00000000E+00
  0.00000000E+00  0.00000000E+00  0.00000000E+00  6.89990666E-02  3.16423961E-01
  7.44308291E-01  1.00000000E+00  0.00000000E+00  0.00000000E+00  0.00000000E+00
  0.00000000E+00  0.00000000E+00  0.00000000E+00  0.00000000E+00  6.89990666E-02
  3.16423961E-01  7.44308291E-01  1.00000000E+00  0.00000000E+00  0.00000000E+00
  0.00000000E+00  0.00000000E+00  0.00000000E+00  0.00000000E+00  0.00000000E+00
  6.89990666E-02  3.16423961E-01  7.44308291E-01  1.00000000E+00  0.00000000E+00
  0.00000000E+00  0.00000000E+00  0.00000000E+00  0.00000000E+00  0.00000000E+00
  0.00000000E+00  6.89990666E-02  3.16423961E-01  7.44308291E-01  1.00000000E+00
  0.00000000E+00  0.00000000E+00  0.00000000E+00  0.00000000E+00  0.00000000E+00
  0.00000000E+00  0.00000000E+00  6.89990666E-02  3.16423961E-01  7.44308291E-01
  1.00000000E+00  0.00000000E+00  0.00000000E+00  0.00000000E+00  0.00000000E+00
  0.00000000E+00  0.00000000E+00  0.00000000E+00  0.00000000E+00  0.00000000E+00
  0.00000000E+00  0.00000000E+00  0.00000000E+00  0.00000000E+00  0.00000000E+00
  0.00000000E+00  0.00000000E+00  0.00000000E+00  0.00000000E+00  0.00000000E+00
  0.00000000E+00  0.00000000E+00  0.00000000E+00  0.00000000E+00  0.00000000E+00
  0.00000000E+00  0.00000000E+00  0.00000000E+00  0.00000000E+00  0.00000000E+00
  0.00000000E+00  0.00000000E+00  0.00000000E+00  0.00000000E+00  0.00000000E+00
  0.00000000E+00  0.00000000E+00  0.00000000E+00  0.00000000E+00  0.00000000E+00
  0.00000000E+00  0.00000000E+00  0.00000000E+00  0.00000000E+00  0.00000000E+00
  0.00000000E+00  0.00000000E+00  0.00000000E+00  0.00000000E+00  0.00000000E+00
  0.00000000E+00  0.00000000E+00  0.00000000E+00  0.00000000E+00
Coordinates of each shell                  R   N=         162
  1.19722042E+00 -8.08574676E-01 -5.15598121E-01  1.19722042E+00 -8.08574676E-01
 -5.15598121E-01  1.19722042E+00 -8.08574676E-01 -5.15598121E-01  1.19722042E+00
 -8.08574676E-01 -5.15598121E-01 -3.27181539E+00 -1.05093252E+00 -1.17197591E+00
 -3.27181539E+00 -1.05093252E+00 -1.17197591E+00 -3.27181539E+00 -1.05093252E+00
 -1.17197591E+00 -3.27181539E+00 -1.05093252E+00 -1.17197591E+00 -9.12907857E-01
  4.06505173E-01 -5.28672124E-01 -9.12907857E-01  4.06505173E-01 -5.28672124E-01
 -9.12907857E-01  4.06505173E-01 -5.28672124E-01 -9.12907857E-01  4.06505173E-01
 -5.28672124E-01  3.49062989E+00  5.77438956E-01  1.74333701E-01  3.49062989E+00
  5.77438956E-01  1.74333701E-01  3.49062989E+00  5.77438956E-01  1.74333701E-01
  3.49062989E+00  5.77438956E-01  1.74333701E-01 -4.99554312E+00 -1.37644665E+00
  1.13123171E+00 -4.99554312E+00 -1.37644665E+00  1.13123171E+00 -4.99554312E+00
 -1.37644665E+00  1.13123171E+00 -4.99554312E+00 -1.37644665E+00  1.13123171E+00
 -1.21074340E+00  3.17444637E+00  1.22722072E-01 -1.21074340E+00  3.17444637E+00
  1.22722072E-01 -1.21074340E+00  3.17444637E+00  1.22722072E-01 -1.21074340E+00
  3.17444637E+00  1.22722072E-01  5.70393999E+00 -1.24863928E+00  3.23810032E-01
  5.70393999E+00 -1.24863928E+00  3.23810032E-01  5.70393999E+00 -1.24863928E+00
  3.23810032E-01  5.70393999E+00 -1.24863928E+00  3.23810032E-01 -2.68570223E+00
 -2.89557190E+00 -1.89426757E+00 -2.68570223E+00 -2.89557190E+00 -1.89426757E+00
 -4.30200698E+00 -6.73860752E-02 -2.68106320E+00 -4.30200698E+00 -6.73860752E-02
 -2.68106320E+00  3.88148020E+00  2.04975309E+00 -1.24005557E+00  3.88148020E+00
  2.04975309E+00 -1.24005557E+00  3.25069806E+00  1.55448812E+00  1.99302002E+00
  3.25069806E+00  1.55448812E+00  1.99302002E+00 -6.68388172E+00 -2.46152088E+00
  6.37435298E-01 -6.68388172E+00 -2.46152088E+00  6.37435298E-01 -5.61583196E+00
  4.46278937E-01  1.88456455E+00 -5.61583196E+00  4.46278937E-01  1.88456455E+00
 -3.99563384E+00 -2.38730892E+00  2.63098533E+00 -3.99563384E+00 -2.38730892E+00
  2.63098533E+00 -7.77401967E-01  3.51417264E+00  2.11965952E+00 -7.77401967E-01
  3.51417264E+00  2.11965952E+00 -3.13256691E+00  3.83262499E+00 -2.40764657E-01
 -3.13256691E+00  3.83262499E+00 -2.40764657E-01  9.84311441E-02  4.33113941E+00
 -9.86561681E-01  9.84311441E-02  4.33113941E+00 -9.86561681E-01  7.45189046E+00
 -2.60063581E-01  8.19376085E-01  7.45189046E+00 -2.60063581E-01  8.19376085E-01
  5.33902750E+00 -2.69640197E+00  1.74988258E+00  5.33902750E+00 -2.69640197E+00
  1.74988258E+00  5.96959463E+00 -2.19441345E+00 -1.49172078E+00  5.96959463E+00
 -2.19441345E+00 -1.49172078E+00
Constraint Structure                       R   N=          60
  1.19722042E+00 -8.08574676E-01 -5.15598121E-01 -3.27181539E+00 -1.05093252E+00
 -1.17197591E+00 -9.12907857E-01  4.06505173E-01 -5.28672124E-01  3.49062989E+00
  5.77438956E-01  1.74333701E-01 -4.99554312E+00 -1.37644665E+00  1.13123171E+00
 -1.21074340E+00  3.17444637E+00  1.22722072E-01  5.70393999E+00 -1.24863928E+00
  3.23810032E-01 -2.68570223E+00 -2.89557190E+00 -1.89426757E+00 -4.30200698E+00
 -6.73860752E-02 -2.68106320E+00  3.88148020E+00  2.04975309E+00 -1.24005557E+00
  3.25069806E+00  1.55448812E+00  1.99302002E+00 -6.68388172E+00 -2.46152088E+00
  6.37435298E-01 -5.61583196E+00  4.46278937E-01  1.88456455E+00 -3.99563384E+00
 -2.38730892E+00  2.63098533E+00 -7.77401967E-01  3.51417264E+00  2.11965952E+00
 -3.13256691E+00  3.83262499E+00 -2.40764657E-01  9.84311441E-02  4.33113941E+00
 -9.86561681E-01  7.45189046E+00 -2.60063581E-01  8.19376085E-01  5.33902750E+00
 -2.69640197E+00  1.74988258E+00  5.96959463E+00 -2.19441345E+00 -1.49172078E+00
Num ILSW                                   I              100
ILSW                                       I   N=         100
           0           1           0           0           2           0
           0           0           0           0           0          -1
           0           0           0           0           0           0
           0           0           0           0           1           0
           1           0           0           0           0           0
           0           0      100000           0          -1           0
           0           0           0           0           0           0
           0           0           0           1           1           0
           0           0           1           0           0           0
           0           0           4          40           0           0
           0           0           0           0           0           0
           0           0           0           0           0           0
           0           0           0           0           0           0
           0           0           0           0           0           0
           0           0           0           0           0           0
           0           0           0           0           0           0
           0           0           0           0
Num RLSW                                   I               40
RLSW                                       R   N=          40
  1.00000000E+00  1.00000000E+00  1.00000000E+00  1.00000000E+00  1.00000000E+00
  0.00000000E+00  0.00000000E+00  1.00000000E+00  0.00000000E+00  0.00000000E+00
  0.00000000E+00  0.00000000E+00  1.00000000E+00  0.00000000E+00  0.00000000E+00
  0.00000000E+00  0.00000000E+00  1.00000000E+00  0.00000000E+00  0.00000000E+00
  0.00000000E+00  0.00000000E+00  1.00000000E+00  0.00000000E+00  0.00000000E+00
  0.00000000E+00  0.00000000E+00  1.00000000E+00  0.00000000E+00  0.00000000E+00
  0.00000000E+00  0.00000000E+00  0.00000000E+00  0.00000000E+00  0.00000000E+00
  0.00000000E+00  0.00000000E+00  0.00000000E+00  1.00000000E+00  1.00000000E+00
MxBond                                     I                4
NBond                                      I   N=          20
           2           4           3           4           4           4
           4           1           1           1           1           1
           1           1           1           1           1           1
           1           1
IBond                                      I   N=          80
           3           4           0           0           3           5
           8           9           1           2           6           0
           1           7          10          11           2          12
          13          14           3          15          16          17
           4          18          19          20           2           0
           0           0           2           0           0           0
           4           0           0           0           4           0
           0           0           5           0           0           0
           5           0           0           0           5           0
           0           0           6           0           0           0
           6           0           0           0           6           0
           0           0           7           0           0           0
           7           0           0           0           7           0
           0           0
RBond                                      R   N=          80
  2.00000000E+00  1.00000000E+00  0.00000000E+00  0.00000000E+00  1.00000000E+00
  1.00000000E+00  1.00000000E+00  1.00000000E+00  2.00000000E+00  1.00000000E+00
  1.00000000E+00  0.00000000E+00  1.00000000E+00  1.00000000E+00  1.00000000E+00
  1.00000000E+00  1.00000000E+00  1.00000000E+00  1.00000000E+00  1.00000000E+00
  1.00000000E+00  1.00000000E+00  1.00000000E+00  1.00000000E+00  1.00000000E+00
  1.00000000E+00  1.00000000E+00  1.00000000E+00  1.00000000E+00  0.00000000E+00
  0.00000000E+00  0.00000000E+00  1.00000000E+00  0.00000000E+00  0.00000000E+00
  0.00000000E+00  1.00000000E+00  0.00000000E+00  0.00000000E+00  0.00000000E+00
  1.00000000E+00  0.00000000E+00  0.00000000E+00  0.00000000E+00  1.00000000E+00
  0.00000000E+00  0.00000000E+00  0.00000000E+00  1.00000000E+00  0.00000000E+00
  0.00000000E+00  0.00000000E+00  1.00000000E+00  0.00000000E+00  0.00000000E+00
  0.00000000E+00  1.00000000E+00  0.00000000E+00  0.00000000E+00  0.00000000E+00
  1.00000000E+00  0.00000000E+00  0.00000000E+00  0.00000000E+00  1.00000000E+00
  0.00000000E+00  0.00000000E+00  0.00000000E+00  1.00000000E+00  0.00000000E+00
  0.00000000E+00  0.00000000E+00  1.00000000E+00  0.00000000E+00  0.00000000E+00
  0.00000000E+00  1.00000000E+00  0.00000000E+00  0.00000000E+00  0.00000000E+00
Virial Ratio                               R      2.001616442304451E+00
SCF Energy                                 R     -2.892099131565439E+02
MP2 Energy                                 R     -2.901575766503059E+02
Total Energy                               R     -2.901575766503059E+02
Post-SCF wavefunction norm                 R      1.624867991643447E+00
RMS Force                                  R      9.232649571028822E-08
RMS Density                                R      1.085767287929140E-09
External E-field                           R   N=          35
  0.00000000E+00  0.00000000E+00  0.00000000E+00  0.00000000E+00  0.00000000E+00
  0.00000000E+00  0.00000000E+00  0.00000000E+00  0.00000000E+00  0.00000000E+00
  0.00000000E+00  0.00000000E+00  0.00000000E+00  0.00000000E+00  0.00000000E+00
  0.00000000E+00  0.00000000E+00  0.00000000E+00  0.00000000E+00  0.00000000E+00
  0.00000000E+00  0.00000000E+00  0.00000000E+00  0.00000000E+00  0.00000000E+00
  0.00000000E+00  0.00000000E+00  0.00000000E+00  0.00000000E+00  0.00000000E+00
  0.00000000E+00  0.00000000E+00  0.00000000E+00  0.00000000E+00  0.00000000E+00
IOpCl                                      I                0
IROHF                                      I                0
Alpha Orbital Energies                     R   N=         131
 -1.55412302E+01 -1.12753236E+01 -1.12426348E+01 -1.12311407E+01 -1.12226814E+01
 -1.12198438E+01 -1.12033881E+01 -1.21570287E+00 -1.05847584E+00 -9.97851541E-01
 -9.70783168E-01 -8.76354970E-01 -8.16803551E-01 -7.07498589E-01 -6.50433654E-01
 -6.26426145E-01 -6.15015173E-01 -5.89043711E-01 -5.74986140E-01 -5.51339020E-01
 -5.35100514E-01 -5.14197001E-01 -5.11183299E-01 -4.92849033E-01 -4.84680522E-01
 -4.76126847E-01 -3.81585912E-01 -3.77157734E-01  1.67959518E-01  2.21441818E-01
  2.54908112E-01  2.75529371E-01  2.85157768E-01  2.90094192E-01  3.02389071E-01
  3.16971729E-01  3.27221344E-01  3.31675520E-01  3.39305138E-01  3.43152056E-01
  3.61093626E-01  3.89622827E-01  3.95352836E-01  4.15479828E-01  4.38260053E-01
  4.39162631E-01  4.88691589E-01  5.91597840E-01  6.99335381E-01  7.27753040E-01
  7.35861542E-01  7.54206866E-01  7.59472329E-01  7.70102386E-01  7.81892832E-01
  8.06637605E-01  8.77212559E-01  8.91011287E-01  8.93280317E-01  9.25475115E-01
  9.51436833E-01  1.00068969E+00  1.01417894E+00  1.05256060E+00  1.07452254E+00
  1.09659779E+00  1.10182484E+00  1.12273241E+00  1.12947166E+00  1.15340304E+00
  1.17010115E+00  1.17190508E+00  1.18606584E+00  1.18765048E+00  1.19637747E+00
  1.20136538E+00  1.21492397E+00  1.22733612E+00  1.24698726E+00  1.25533532E+00
  1.27001204E+00  1.29078750E+00  1.38888228E+00  1.41822008E+00  1.50869282E+00
  1.60374667E+00  1.66635657E+00  1.68382028E+00  1.73325414E+00  1.77069411E+00
  1.83330388E+00  1.88472487E+00  1.94709264E+00  1.98782960E+00  2.03432536E+00
  2.08648862E+00  2.14913511E+00  2.20318278E+00  2.21609007E+00  2.22849604E+00
  2.28464557E+00  2.30889528E+00  2.31770432E+00  2.38436856E+00  2.41303084E+00
  2.44688010E+00  2.50992335E+00  2.56313748E+00  2.56608268E+00  2.58844516E+00
  2.62934314E+00  2.65578335E+00  2.66643840E+00  2.68021535E+00  2.69948753E+00
  2.76528660E+00  2.83289272E+00  2.90152608E+00  2.95324960E+00  2.98578635E+00
  3.00810615E+00  3.10697230E+00  3.35203125E+00  3.44033239E+00  4.42849664E+00
  4.54729196E+00  4.62077209E+00  4.66261262E+00  4.79126020E+00  4.88095831E+00
  4.97041661E+00
Alpha MO coefficients                      R   N=       17161
  9.95227915E-01  2.48053109E-02 -3.06905608E-04  1.84148811E-03  4.13233070E-04
 -5.71130754E-03  1.76015797E-04 -2.44879358E-03 -5.89443516E-04 -2.74113352E-03
 -2.88239046E-03 -3.13744063E-03 -2.25234419E-04  1.47955360E-05  4.06206502E-05
 -1.28239371E-05 -6.73064848E-05  1.22201059E-05 -2.25247624E-05  1.15611979E-06
  8.01829606E-04 -2.78704073E-04  5.20101086E-04  1.20547838E-04 -7.37921085E-05
  2.52696729E-05 -1.25348035E-05  2.62797632E-05 -3.55129525E-06  9.42248911E-06
  2.98788505E-05  2.15360986E-04 -6.09187706E-05  3.68209900E-05 -6.67089503E-06
  3.14167543E-03  2.18838011E-03 -7.12900694E-05  3.29324341E-04 -4.41340237E-04
 -1.81346346E-04 -4.92502338E-05  2.57343586E-04 -4.47943165E-06  8.06405676E-07
 -2.95606875E-05  1.68076117E-04 -2.61087600E-04 -1.08964323E-04 -6.82918231E-05
  2.72703071E-03 -7.98742270E-04 -4.74794073E-04 -2.00294805E-04 -1.75143432E-04
 -1.96251381E-04 -9.42043619E-05 -1.01971477E-04 -4.11101384E-05 -5.16411460E-05
  9.67078474E-06  3.45602826E-05 -4.51286437E-07  1.65923358E-05  7.32107743E-06
 -3.61494565E-04 -6.57072770E-06 -2.09305356E-04  1.51435590E-04  2.68645675E-05
  1.39488515E-05  4.19381658E-06 -4.04740853E-06  4.10159909E-06  1.59265883E-05
  3.27141355E-06  2.84787081E-05 -2.88388038E-05  5.99389204E-05  1.07678442E-05
 -5.09571014E-04 -5.24939855E-04  3.44841249E-04 -8.63545695E-06  1.45262342E-05
 -2.70329371E-05 -3.81599436E-05  8.68222618E-05  4.01472601E-05  1.93217176E-05
  1.35643376E-05  7.73013698E-05  3.78475669E-05 -3.98129995E-05  1.45673130E-07
 -6.04562710E-04  4.07005219E-04  2.56114259E-05  7.59393847E-05 -2.77572035E-05
  3.43723306E-05 -1.60798820E-05  3.84364009E-05  3.16752540E-06  1.41362091E-05
  4.79639464E-05  6.23931169E-05 -5.64730210E-05 -1.72920252E-04 -1.63291303E-04
 -1.30468166E-04 -1.69663736E-04 -1.52696842E-04  7.80202889E-06  4.23674572E-06
  2.23735386E-05  1.35475231E-04  1.70495866E-05 -9.88659347E-05  5.02091591E-05
 -2.56723352E-05 -1.38096758E-05 -1.88998731E-04  4.79175524E-05 -1.37518847E-05
 -1.56860961E-05 -3.40381175E-05  4.56133228E-05  4.03487923E-05  5.58697776E-05
  8.55091431E-06 -4.01538741E-04  2.92970967E-04 -2.11887913E-06  1.63568607E-05
 -2.58233627E-05 -1.78885610E-03  9.63942373E-04 -8.05888681E-04  1.06319941E-04
 -3.52695300E-04 -1.71459162E-04  1.51098330E-04  5.66235890E-05 -1.00361385E-04