
    -----------------------------------------------------------------------
          Psi4: An Open-Source Ab Initio Electronic Structure Package
                               Psi4 1.4a3.dev225 

                         Git: Rev {master} 7105e37 


    D. G. A. Smith, L. A. Burns, A. C. Simmonett, R. M. Parrish,
    M. C. Schieber, R. Galvelis, P. Kraus, H. Kruse, R. Di Remigio,
    A. Alenaizan, A. M. James, S. Lehtola, J. P. Misiewicz, M. Scheurer,
    R. A. Shaw, J. B. Schriber, Y. Xie, Z. L. Glick, D. A. Sirianni,
    J. S. O'Brien, J. M. Waldrop, A. Kumar, E. G. Hohenstein,
    B. P. Pritchard, B. R. Brooks, H. F. Schaefer III, A. Yu. Sokolov,
    K. Patkowski, A. E. DePrince III, U. Bozkaya, R. A. King,
    F. A. Evangelista, J. M. Turney, T. D. Crawford, C. D. Sherrill,
    J. Chem. Phys. 152(18) 184108 (2020). https://doi.org/10.1063/5.0006002

                            Additional Code Authors
    E. T. Seidl, C. L. Janssen, E. F. Valeev, M. L. Leininger,
    J. F. Gonthier, R. M. Richard, H. R. McAlexander, M. Saitow, X. Wang,
    P. Verma, and M. H. Lechner

             Previous Authors, Complete List of Code Contributors,
                       and Citations for Specific Modules
    https://github.com/psi4/psi4/blob/master/codemeta.json
    https://github.com/psi4/psi4/graphs/contributors
    http://psicode.org/psi4manual/master/introduction.html#citing-psifour

    -----------------------------------------------------------------------


    Psi4 started on: Friday, 19 March 2021 09:25PM

    Process ID: 143000
    Host:       c445-024.stampede2.tacc.utexas.edu
    PSIDATADIR: /home1/07844/xy3866/miniconda3/envs/p4env/share/psi4
    Memory:     500.0 MiB
    Threads:    32
    
  ==> Input File <==

--------------------------------------------------------------------------
#psi4
#
memory 32 gb

molecule  {
1 1
  N       -2.4283840    -0.9794160    -0.0083510
  C       -1.1961467    -0.2589141     0.0162195
  C        1.2518020    -0.2721820    -0.0143110
  C        0.0325720    -0.9600410    -0.0018850
  C       -1.1926600     1.1553070     0.0124660
  C        1.2305980     1.1300670    -0.0135530
  C        0.0267990     1.8353860     0.0007220
  C        2.5554400    -1.0247750     0.0087590
  H        0.0173310    -2.0482160    -0.0066590
  H       -2.1350750     1.6966590     0.0194740
  H        2.1710470     1.6766600    -0.0258320
  H        0.0318520     2.9216190    -0.0004860
  H       -3.1892600    -0.4557660     0.4440390
  H       -2.7337660    -1.1857680    -0.9692710
  H       -2.3540760    -1.8789800     0.4839570
  H        2.4304730    -2.0404690    -0.3743800
  H        3.3081630    -0.5154690    -0.5984160
  H        2.9426300    -1.0948430     1.0303570
units angstrom
no_reorient  #important for SAPT in psi4, default
symmetry c1  #important for SAPT in psi4, default
}

set PROPERTIES_ORIGIN ["COM"]
properties('MP2/aug-cc-pvtz', properties = ['dipole'])
--------------------------------------------------------------------------

  Memory set to  29.802 GiB by Python driver.
    SCF Algorithm Type (re)set to DF.

*** tstart() called on c445-024.stampede2.tacc.utexas.edu
*** at Fri Mar 19 21:25:11 2021

   => Loading Basis Set <=

    Name: AUG-CC-PVTZ
    Role: ORBITAL
    Keyword: BASIS
    atoms 1    entry N          line   285 file /home1/07844/xy3866/miniconda3/envs/p4env/share/psi4/basis/aug-cc-pvtz.gbs 
    atoms 2-8  entry C          line   239 file /home1/07844/xy3866/miniconda3/envs/p4env/share/psi4/basis/aug-cc-pvtz.gbs 
    atoms 9-18 entry H          line    40 file /home1/07844/xy3866/miniconda3/envs/p4env/share/psi4/basis/aug-cc-pvtz.gbs 


         ---------------------------------------------------------
                                   SCF
               by Justin Turney, Rob Parrish, Andy Simmonett
                          and Daniel G. A. Smith
                              RHF Reference
                       32 Threads,  30517 MiB Core
         ---------------------------------------------------------

  ==> Geometry <==

    Molecular point group: c1
    Full point group: C1

    Geometry (in Angstrom), charge = 1, multiplicity = 1:

       Center              X                  Y                   Z               Mass       
    ------------   -----------------  -----------------  -----------------  -----------------
         N           -2.419031400626    -1.003433860709    -0.008229564645    14.003074004430
         C           -1.186794100626    -0.282931960709     0.016340935355    12.000000000000
         C            1.261154599374    -0.296199860709    -0.014189564645    12.000000000000
         C            0.041924599374    -0.984058860709    -0.001763564645    12.000000000000
         C           -1.183307400626     1.131289139291     0.012587435355    12.000000000000
         C            1.239950599374     1.106049139291    -0.013431564645    12.000000000000
         C            0.036151599374     1.811368139291     0.000843435355    12.000000000000
         C            2.564792599374    -1.048792860709     0.008880435355    12.000000000000
         H            0.026683599374    -2.072233860709    -0.006537564645     1.007825032230
         H           -2.125722400626     1.672641139291     0.019595435355     1.007825032230
         H            2.180399599374     1.652642139291    -0.025710564645     1.007825032230
         H            0.041204599374     2.897601139291    -0.000364564645     1.007825032230
         H           -3.179907400626    -0.479783860709     0.444160435355     1.007825032230
         H           -2.724413400626    -1.209785860709    -0.969149564645     1.007825032230
         H           -2.344723400626    -1.902997860709     0.484078435355     1.007825032230
         H            2.439825599374    -2.064486860709    -0.374258564645     1.007825032230
         H            3.317515599374    -0.539486860709    -0.598294564645     1.007825032230
         H            2.951982599374    -1.118860860709     1.030478435355     1.007825032230

  Running in c1 symmetry.

  Rotational constants: A =      0.11799  B =      0.05742  C =      0.03916 [cm^-1]
  Rotational constants: A =   3537.35463  B =   1721.51348  C =   1173.92639 [MHz]
  Nuclear repulsion =  353.211742366945828

  Charge       = 1
  Multiplicity = 1
  Electrons    = 58
  Nalpha       = 29
  Nbeta        = 29

  ==> Algorithm <==

  SCF Algorithm Type is DF.
  DIIS enabled.
  MOM disabled.
  Fractional occupation disabled.
  Guess Type is SAD.
  Energy threshold   = 1.00e-10
  Density threshold  = 1.00e-10
  Integral threshold = 1.00e-12

  ==> Primary Basis <==

  Basis Set: AUG-CC-PVTZ
    Blend: AUG-CC-PVTZ
    Number of shells: 202
    Number of basis functions: 598
    Number of Cartesian functions: 690
    Spherical Harmonics?: true
    Max angular momentum: 3

   => Loading Basis Set <=

    Name: (AUG-CC-PVTZ AUX)
    Role: JKFIT
    Keyword: DF_BASIS_SCF
    atoms 1    entry N          line   224 file /home1/07844/xy3866/miniconda3/envs/p4env/share/psi4/basis/aug-cc-pvtz-jkfit.gbs 
    atoms 2-8  entry C          line   162 file /home1/07844/xy3866/miniconda3/envs/p4env/share/psi4/basis/aug-cc-pvtz-jkfit.gbs 
    atoms 9-18 entry H          line    70 file /home1/07844/xy3866/miniconda3/envs/p4env/share/psi4/basis/aug-cc-pvtz-jkfit.gbs 

  ==> Integral Setup <==

  DFHelper Memory: AOs need 3.358 GiB; user supplied 22.352 GiB. Using in-core AOs.

  ==> MemDFJK: Density-Fitted J/K Matrices <==

    J tasked:                   Yes
    K tasked:                   Yes
    wK tasked:                   No
    OpenMP threads:              32
    Memory [MiB]:             22888
    Algorithm:                 Core
    Schwarz Cutoff:           1E-12
    Mask sparsity (%):       7.3914
    Fitting Condition:        1E-10

   => Auxiliary Basis Set <=

  Basis Set: (AUG-CC-PVTZ AUX)
    Blend: AUG-CC-PVTZ-JKFIT
    Number of shells: 380
    Number of basis functions: 1292
    Number of Cartesian functions: 1598
    Spherical Harmonics?: true
    Max angular momentum: 4

  Minimum eigenvalue in the overlap matrix is 5.9229240586E-07.
  Reciprocal condition number of the overlap matrix is 3.1111363913E-08.
    Using symmetric orthogonalization.

  ==> Pre-Iterations <==

  SCF Guess: Superposition of Atomic Densities via on-the-fly atomic UHF (no occupation information).

   -------------------------
    Irrep   Nso     Nmo    
   -------------------------
     A        598     598 
   -------------------------
    Total     598     598
   -------------------------

  ==> Iterations <==

                           Total Energy        Delta E     RMS |[F,P]|

   @DF-RHF iter SAD:  -325.11927350661034   -3.25119e+02   0.00000e+00 
   @DF-RHF iter   1:  -324.96457508067169    1.54698e-01   1.07739e-03 DIIS
   @DF-RHF iter   2:  -325.18760570333740   -2.23031e-01   4.95219e-04 DIIS
   @DF-RHF iter   3:  -325.23254722615599   -4.49415e-02   1.27631e-04 DIIS
   @DF-RHF iter   4:  -325.23653801254517   -3.99079e-03   5.24982e-05 DIIS
   @DF-RHF iter   5:  -325.23713531513397   -5.97303e-04   9.73306e-06 DIIS
   @DF-RHF iter   6:  -325.23717383770207   -3.85226e-05   4.45337e-06 DIIS
   @DF-RHF iter   7:  -325.23718266638116   -8.82868e-06   1.88460e-06 DIIS
   @DF-RHF iter   8:  -325.23718598830089   -3.32192e-06   8.46502e-07 DIIS
   @DF-RHF iter   9:  -325.23718678430782   -7.96007e-07   3.90871e-07 DIIS
   @DF-RHF iter  10:  -325.23718690623190   -1.21924e-07   1.40074e-07 DIIS
   @DF-RHF iter  11:  -325.23718691802588   -1.17940e-08   4.16440e-08 DIIS
   @DF-RHF iter  12:  -325.23718691885188   -8.25992e-10   1.62015e-08 DIIS
   @DF-RHF iter  13:  -325.23718691894538   -9.35074e-11   3.62721e-09 DIIS
   @DF-RHF iter  14:  -325.23718691895260   -7.21911e-12   1.03247e-09 DIIS
   @DF-RHF iter  15:  -325.23718691895323   -6.25278e-13   4.71623e-10 DIIS
   @DF-RHF iter  16:  -325.23718691895255    6.82121e-13   1.96392e-10 DIIS
   @DF-RHF iter  17:  -325.23718691895198    5.68434e-13   9.54114e-11 DIIS
  Energy and wave function converged.


  ==> Post-Iterations <==

    Orbital Energies [Eh]
    ---------------------

    Doubly Occupied:                                                      

       1A    -15.899356     2A    -11.461220     3A    -11.406091  
       4A    -11.404267     5A    -11.397837     6A    -11.390325  
       7A    -11.382756     8A    -11.347867     9A     -1.526163  
      10A     -1.305878    11A     -1.197490    12A     -1.172873  
      13A     -1.080032    14A     -1.010420    15A     -0.992104  
      16A     -0.964452    17A     -0.928872    18A     -0.874366  
      19A     -0.832953    20A     -0.784757    21A     -0.752619  
      22A     -0.722640    23A     -0.704905    24A     -0.676972  
      25A     -0.652874    26A     -0.644950    27A     -0.639258  
      28A     -0.497989    29A     -0.481618  

    Virtual:                                                              

      30A     -0.111047    31A     -0.076940    32A     -0.073875  
      33A     -0.060648    34A     -0.049862    35A     -0.047052  
      36A     -0.042648    37A     -0.042166    38A     -0.034642  
      39A     -0.026520    40A     -0.022243    41A     -0.019646  
      42A     -0.016593    43A     -0.003885    44A      0.002377  
      45A      0.006468    46A      0.007918    47A      0.014321  
      48A      0.020938    49A      0.022556    50A      0.026405  
      51A      0.028895    52A      0.031481    53A      0.036327  
      54A      0.039224    55A      0.039900    56A      0.053595  
      57A      0.054397    58A      0.059022    59A      0.062630  
      60A      0.065138    61A      0.066796    62A      0.078138  
      63A      0.079543    64A      0.081747    65A      0.089685  
      66A      0.092987    67A      0.095851    68A      0.108307  
      69A      0.121550    70A      0.126236    71A      0.137750  
      72A      0.142660    73A      0.143598    74A      0.151884  
      75A      0.158706    76A      0.161186    77A      0.163462  
      78A      0.170047    79A      0.174121    80A      0.187004  
      81A      0.189291    82A      0.195321    83A      0.200914  
      84A      0.204654    85A      0.212058    86A      0.217387  
      87A      0.221939    88A      0.223684    89A      0.227420  
      90A      0.231955    91A      0.235320    92A      0.240428  
      93A      0.243026    94A      0.249828    95A      0.253205  
      96A      0.259471    97A      0.263525    98A      0.269372  
      99A      0.275373   100A      0.279309   101A      0.286530  
     102A      0.288581   103A      0.297806   104A      0.301728  
     105A      0.306186   106A      0.309672   107A      0.312342  
     108A      0.316444   109A      0.318766   110A      0.327062  
     111A      0.330904   112A      0.336914   113A      0.341432  
     114A      0.347622   115A      0.349250   116A      0.357860  
     117A      0.360558   118A      0.364438   119A      0.368570  
     120A      0.373646   121A      0.378487   122A      0.380792  
     123A      0.388337   124A      0.394176   125A      0.396370  
     126A      0.403581   127A      0.408300   128A      0.414915  
     129A      0.420610   130A      0.426821   131A      0.430033  
     132A      0.431119   133A      0.437383   134A      0.438555  
     135A      0.451299   136A      0.454313   137A      0.463039  
     138A      0.476418   139A      0.478802   140A      0.485554  
     141A      0.495143   142A      0.500293   143A      0.510502  
     144A      0.517401   145A      0.521971   146A      0.540528  
     147A      0.545023   148A      0.550645   149A      0.566542  
     150A      0.571813   151A      0.576840   152A      0.586303  
     153A      0.590357   154A      0.598555   155A      0.607014  
     156A      0.619031   157A      0.620310   158A      0.621825  
     159A      0.634692   160A      0.650773   161A      0.656103  
     162A      0.672219   163A      0.681373   164A      0.685951  
     165A      0.699265   166A      0.706933   167A      0.707764  
     168A      0.717060   169A      0.723270   170A      0.728705  
     171A      0.730260   172A      0.735917   173A      0.744529  
     174A      0.746234   175A      0.752247   176A      0.755240  
     177A      0.761983   178A      0.768887   179A      0.772683  
     180A      0.779324   181A      0.783283   182A      0.787624  
     183A      0.793235   184A      0.800978   185A      0.807339  
     186A      0.815399   187A      0.817886   188A      0.823105  
     189A      0.832145   190A      0.835776   191A      0.842520  
     192A      0.848268   193A      0.852874   194A      0.859990  
     195A      0.864075   196A      0.875318   197A      0.878227  
     198A      0.885200   199A      0.891058   200A      0.894423  
     201A      0.897306   202A      0.904190   203A      0.913097  
     204A      0.924065   205A      0.926910   206A      0.934342  
     207A      0.942483   208A      0.949961   209A      0.954583  
     210A      0.963619   211A      0.966389   212A      0.968929  
     213A      0.973319   214A      0.980464   215A      0.987176  
     216A      0.997311   217A      1.005941   218A      1.008286  
     219A      1.014341   220A      1.028126   221A      1.029847  
     222A      1.034910   223A      1.045512   224A      1.050687  
     225A      1.058184   226A      1.062656   227A      1.074156  
     228A      1.082708   229A      1.084988   230A      1.095748  
     231A      1.096852   232A      1.099353   233A      1.105194  
     234A      1.112108   235A      1.119471   236A      1.125182  
     237A      1.144714   238A      1.161964   239A      1.166608  
     240A      1.172087   241A      1.179763   242A      1.184616  
     243A      1.192272   244A      1.200879   245A      1.203300  
     246A      1.206371   247A      1.215567   248A      1.234089  
     249A      1.238270   250A      1.243100   251A      1.256264  
     252A      1.263877   253A      1.284511   254A      1.294983  
     255A      1.303596   256A      1.312358   257A      1.318027  
     258A      1.328287   259A      1.335104   260A      1.339054  
     261A      1.344122   262A      1.363354   263A      1.369079  
     264A      1.381769   265A      1.387407   266A      1.405960  
     267A      1.412742   268A      1.425714   269A      1.430440  
     270A      1.446858   271A      1.456060   272A      1.461442  
     273A      1.476888   274A      1.489316   275A      1.504090  
     276A      1.521291   277A      1.530556   278A      1.534794  
     279A      1.543102   280A      1.560214   281A      1.566896  
     282A      1.572017   283A      1.589008   284A      1.591814  
     285A      1.601443   286A      1.605708   287A      1.620543  
     288A      1.621844   289A      1.631673   290A      1.641510  
     291A      1.644138   292A      1.652016   293A      1.661020  
     294A      1.675229   295A      1.682284   296A      1.701796  
     297A      1.704586   298A      1.708754   299A      1.722232  
     300A      1.723351   301A      1.744793   302A      1.752730  
     303A      1.770006   304A      1.774071   305A      1.777864  
     306A      1.781857   307A      1.788224   308A      1.813827  
     309A      1.825182   310A      1.841564   311A      1.853926  
     312A      1.868849   313A      1.869715   314A      1.885541  
     315A      1.891808   316A      1.899142   317A      1.909660  
     318A      1.914364   319A      1.926420   320A      1.936515  
     321A      1.949357   322A      1.960322   323A      1.962046  
     324A      1.967594   325A      1.975456   326A      1.977882  
     327A      1.998123   328A      2.016772   329A      2.023582  
     330A      2.029391   331A      2.035761   332A      2.051145  
     333A      2.055575   334A      2.076933   335A      2.080108  
     336A      2.105486   337A      2.119343   338A      2.128575  
     339A      2.143467   340A      2.153144   341A      2.167707  
     342A      2.177017   343A      2.180872   344A      2.193532  
     345A      2.217686   346A      2.238633   347A      2.239635  
     348A      2.261405   349A      2.261867   350A      2.278557  
     351A      2.290392   352A      2.303076   353A      2.311812  
     354A      2.330960   355A      2.343841   356A      2.358513  
     357A      2.379792   358A      2.384788   359A      2.393583  
     360A      2.399746   361A      2.466887   362A      2.472225  
     363A      2.495918   364A      2.523437   365A      2.568134  
     366A      2.589474   367A      2.615907   368A      2.629764  
     369A      2.635128   370A      2.668110   371A      2.689803  
     372A      2.728374   373A      2.740234   374A      2.757415  
     375A      2.846636   376A      2.890053   377A      2.987494  
     378A      2.999781   379A      3.037722   380A      3.041724  
     381A      3.071641   382A      3.081797   383A      3.111827  
     384A      3.125436   385A      3.144890   386A      3.170104  
     387A      3.180642   388A      3.214520   389A      3.216590  
     390A      3.252696   391A      3.272474   392A      3.287977  
     393A      3.299221   394A      3.314046   395A      3.321084  
     396A      3.331205   397A      3.345480   398A      3.357734  
     399A      3.373605   400A      3.394361   401A      3.402797  
     402A      3.416392   403A      3.429269   404A      3.439201  
     405A      3.444760   406A      3.447383   407A      3.470401  
     408A      3.478487   409A      3.493014   410A      3.504851  
     411A      3.521835   412A      3.537337   413A      3.558140  
     414A      3.571406   415A      3.578323   416A      3.598526  
     417A      3.604700   418A      3.617627   419A      3.642208  
     420A      3.651314   421A      3.675034   422A      3.683754  
     423A      3.700929   424A      3.706993   425A      3.729879  
     426A      3.736790   427A      3.747898   428A      3.758397  
     429A      3.770435   430A      3.778316   431A      3.790992  
     432A      3.795593   433A      3.800023   434A      3.813904  
     435A      3.828834   436A      3.837143   437A      3.838155  
     438A      3.857755   439A      3.869808   440A      3.873145  
     441A      3.887654   442A      3.893649   443A      3.910164  
     444A      3.912730   445A      3.936623   446A      3.941617  
     447A      3.949788   448A      3.974818   449A      3.987115  
     450A      3.995572   451A      4.017022   452A      4.032419  
     453A      4.043198   454A      4.050944   455A      4.063833  
     456A      4.068320   457A      4.081381   458A      4.088527  
     459A      4.099950   460A      4.122101   461A      4.128734  
     462A      4.146629   463A      4.151297   464A      4.162691  
     465A      4.186485   466A      4.196151   467A      4.205944  
     468A      4.213004   469A      4.234093   470A      4.241253  
     471A      4.250258   472A      4.253235   473A      4.264196  
     474A      4.282733   475A      4.290465   476A      4.296882  
     477A      4.303371   478A      4.328367   479A      4.334788  
     480A      4.353718   481A      4.356447   482A      4.359716  
     483A      4.379598   484A      4.397789   485A      4.417858  
     486A      4.427658   487A      4.435429   488A      4.452049  
     489A      4.461472   490A      4.499860   491A      4.501207  
     492A      4.521877   493A      4.552240   494A      4.554189  
     495A      4.565684   496A      4.579176   497A      4.590553  
     498A      4.611504   499A      4.616413   500A      4.639323  
     501A      4.646325   502A      4.652608   503A      4.656968  
     504A      4.664306   505A      4.694220   506A      4.719572  
     507A      4.731471   508A      4.733542   509A      4.761381  
     510A      4.764343   511A      4.778377   512A      4.791839  
     513A      4.804950   514A      4.836637   515A      4.855832  
     516A      4.876632   517A      4.885255   518A      4.924719  
     519A      4.926705   520A      4.948844   521A      4.956721  
     522A      4.966415   523A      4.980092   524A      4.992613  
     525A      5.006937   526A      5.029771   527A      5.048580  
     528A      5.060713   529A      5.063708   530A      5.088831  
     531A      5.093155   532A      5.131031   533A      5.145443  
     534A      5.152003   535A      5.155064   536A      5.171670  
     537A      5.184105   538A      5.219042   539A      5.249651  
     540A      5.256940   541A      5.292869   542A      5.329760  
     543A      5.331387   544A      5.353644   545A      5.369807  
     546A      5.395050   547A      5.438018   548A      5.519698  
     549A      5.549409   550A      5.561996   551A      5.576224  
     552A      5.595420   553A      5.598871   554A      5.612747  
     555A      5.631438   556A      5.665220   557A      5.686196  
     558A      5.705658   559A      5.765606   560A      5.778457  
     561A      5.847486   562A      5.898803   563A      5.921476  
     564A      5.958123   565A      6.016449   566A      6.033727  
     567A      6.057944   568A      6.086384   569A      6.098198  
     570A      6.129600   571A      6.142336   572A      6.164605  
     573A      6.257017   574A      6.274328   575A      6.303757  
     576A      6.375450   577A      6.503640   578A      6.596243  
     579A      6.622998   580A      6.655934   581A      6.718365  
     582A      6.725387   583A      6.775942   584A      6.865628  
     585A      6.934419   586A      6.971491   587A      6.993434  
     588A      7.150725   589A      7.548307   590A      7.632121  
     591A     15.874558   592A     15.953320   593A     17.797995  
     594A     18.467540   595A     18.968504   596A     19.652871  
     597A     20.174011   598A     21.428375  

    Final Occupation by Irrep:
              A 
    DOCC [    29 ]

  @DF-RHF Final Energy:  -325.23718691895198

   => Energetics <=

    Nuclear Repulsion Energy =            353.2117423669458276
    One-Electron Energy =               -1128.6300504753598943
    Two-Electron Energy =                 450.1811211894620897
    Total Energy =                       -325.2371869189519771

Computation Completed

*** tstop() called on c445-024.stampede2.tacc.utexas.edu at Fri Mar 19 21:25:38 2021
Module time:
	user time   =     470.91 seconds =       7.85 minutes
	system time =      36.05 seconds =       0.60 minutes
	total time  =         27 seconds =       0.45 minutes
Total time:
	user time   =     470.91 seconds =       7.85 minutes
	system time =      36.05 seconds =       0.60 minutes
	total time  =         27 seconds =       0.45 minutes
   => Loading Basis Set <=

    Name: (AUG-CC-PVTZ AUX)
    Role: RIFIT
    Keyword: DF_BASIS_MP2
    atoms 1    entry N          line   206 file /home1/07844/xy3866/miniconda3/envs/p4env/share/psi4/basis/aug-cc-pvtz-ri.gbs 
    atoms 2-8  entry C          line   148 file /home1/07844/xy3866/miniconda3/envs/p4env/share/psi4/basis/aug-cc-pvtz-ri.gbs 
    atoms 9-18 entry H          line    30 file /home1/07844/xy3866/miniconda3/envs/p4env/share/psi4/basis/aug-cc-pvtz-ri.gbs 


*** tstart() called on c445-024.stampede2.tacc.utexas.edu
*** at Fri Mar 19 21:25:39 2021


  //>>>>>>>>>>>>>>>>>>>>>>>>>>>>>>>>>>>//
  //               DFMP2               //
  //<<<<<<<<<<<<<<<<<<<<<<<<<<<<<<<<<<<//

	 --------------------------------------------------------
	                          DF-MP2                         
	      2nd-Order Density-Fitted Moller-Plesset Theory     
	              RMP2 Wavefunction,  32 Threads             
	                                                         
	        Rob Parrish, Justin Turney, Andy Simmonett,      
	           Ed Hohenstein, and C. David Sherrill          
	 --------------------------------------------------------

   => Auxiliary Basis Set <=

  Basis Set: (AUG-CC-PVTZ AUX)
    Blend: AUG-CC-PVTZ-RI
    Number of shells: 364
    Number of basis functions: 1308
    Number of Cartesian functions: 1638
    Spherical Harmonics?: true
    Max angular momentum: 4

	 --------------------------------------------------------
	                 NBF =   598, NAUX =  1308
	 --------------------------------------------------------
	   CLASS    FOCC     OCC    AOCC    AVIR     VIR    FVIR
	   PAIRS       0      29      29     569     569       0
	 --------------------------------------------------------

  DFHelper Memory: AOs need 3.460 GiB; user supplied 22.352 GiB. Using in-core AOs.


         ------------------------------------------------------------
                                     CPHF                           
                                  Rob Parrish                       
         ------------------------------------------------------------

  ==> Geometry <==

    Molecular point group: c1
    Full point group: C1

    Geometry (in Angstrom), charge = 1, multiplicity = 1:

       Center              X                  Y                   Z               Mass       
    ------------   -----------------  -----------------  -----------------  -----------------
         N           -2.419031400626    -1.003433860709    -0.008229564645    14.003074004430
         C           -1.186794100626    -0.282931960709     0.016340935355    12.000000000000
         C            1.261154599374    -0.296199860709    -0.014189564645    12.000000000000
         C            0.041924599374    -0.984058860709    -0.001763564645    12.000000000000
         C           -1.183307400626     1.131289139291     0.012587435355    12.000000000000
         C            1.239950599374     1.106049139291    -0.013431564645    12.000000000000
         C            0.036151599374     1.811368139291     0.000843435355    12.000000000000
         C            2.564792599374    -1.048792860709     0.008880435355    12.000000000000
         H            0.026683599374    -2.072233860709    -0.006537564645     1.007825032230
         H           -2.125722400626     1.672641139291     0.019595435355     1.007825032230
         H            2.180399599374     1.652642139291    -0.025710564645     1.007825032230
         H            0.041204599374     2.897601139291    -0.000364564645     1.007825032230
         H           -3.179907400626    -0.479783860709     0.444160435355     1.007825032230
         H           -2.724413400626    -1.209785860709    -0.969149564645     1.007825032230
         H           -2.344723400626    -1.902997860709     0.484078435355     1.007825032230
         H            2.439825599374    -2.064486860709    -0.374258564645     1.007825032230
         H            3.317515599374    -0.539486860709    -0.598294564645     1.007825032230
         H            2.951982599374    -1.118860860709     1.030478435355     1.007825032230

  Nuclear repulsion =  353.211742366945828
  Reference energy  = -325.237186918951977

  ==> Basis Set <==

  Basis Set: AUG-CC-PVTZ
    Blend: AUG-CC-PVTZ
    Number of shells: 202
    Number of basis functions: 598
    Number of Cartesian functions: 690
    Spherical Harmonics?: true
    Max angular momentum: 3

  ==> CGRSolver (by Rob Parrish) <==

   Number of roots    =         1
   Preconditioning    =    JACOBI
   Convergence cutoff =     1E-06
   Maximum iterations =       100

  ==> CPHFRHamiltonian (by Rob Parrish) <== 

  ==> MemDFJK: Density-Fitted J/K Matrices <==

    J tasked:                   Yes
    K tasked:                   Yes
    wK tasked:                   No
    OpenMP threads:              32
    Memory [MiB]:             22888
    Algorithm:                 Core
    Schwarz Cutoff:           1E-12
    Mask sparsity (%):       4.4228
    Fitting Condition:        1E-10

   => Auxiliary Basis Set <=

  Basis Set: (AUG-CC-PVTZ AUX)
    Blend: AUG-CC-PVTZ-JKFIT
    Number of shells: 380
    Number of basis functions: 1292
    Number of Cartesian functions: 1598
    Spherical Harmonics?: true
    Max angular momentum: 4

  ==> CPHF Iterations <==

  => Iterations <=

             Iter  Converged  Remaining    Residual
  CGR           1          0          1   7.155E-02
  CGR           2          0          1   1.273E-02
  CGR           3          0          1   4.187E-03
  CGR           4          0          1   1.525E-03
  CGR           5          0          1   7.107E-04
  CGR           6          0          1   3.489E-04
  CGR           7          0          1   1.339E-04
  CGR           8          0          1   4.273E-05
  CGR           9          0          1   1.616E-05
  CGR          10          0          1   4.701E-06
  CGR          11          0          1   2.205E-06
  CGR          12          1          0   8.408E-07

    CGRSolver converged.

	-----------------------------------------------------------
	 ==================> DF-MP2 Energies <==================== 
	-----------------------------------------------------------
	 Reference Energy          =    -325.2371869189519771 [Eh]
	 Singles Energy            =      -0.0000000000000000 [Eh]
	 Same-Spin Energy          =      -0.3535164180011365 [Eh]
	 Opposite-Spin Energy      =      -1.1494185525547376 [Eh]
	 Correlation Energy        =      -1.5029349705558741 [Eh]
	 Total Energy              =    -326.7401218895078614 [Eh]
	-----------------------------------------------------------
	 ================> DF-SCS-MP2 Energies <================== 
	-----------------------------------------------------------
	 SCS Same-Spin Scale       =       0.3333333333333333 [-]
	 SCS Opposite-Spin Scale   =       1.2000000000000000 [-]
	 SCS Same-Spin Energy      =      -0.1178388060003788 [Eh]
	 SCS Opposite-Spin Energy  =      -1.3793022630656850 [Eh]
	 SCS Correlation Energy    =      -1.4971410690660638 [Eh]
	 SCS Total Energy          =    -326.7343279880180376 [Eh]
	-----------------------------------------------------------



Properties will be evaluated at   0.000000,   0.000000,   0.000000 [a0]

Properties computed using the MP2 density matrix

  Nuclear Dipole Moment: [e a0]
     X:     0.5534      Y:    -2.9639      Z:     0.0038

  Electronic Dipole Moment: [e a0]
     X:    -3.4727      Y:     1.6759      Z:    -0.0205

  Dipole Moment: [e a0]
     X:    -2.9193      Y:    -1.2880      Z:    -0.0167     Total:     3.1909

  Dipole Moment: [D]
     X:    -7.4202      Y:    -3.2738      Z:    -0.0425     Total:     8.1104


*** tstop() called on c445-024.stampede2.tacc.utexas.edu at Fri Mar 19 21:28:11 2021
Module time:
	user time   =    1292.18 seconds =      21.54 minutes
	system time =      47.92 seconds =       0.80 minutes
	total time  =        152 seconds =       2.53 minutes
Total time:
	user time   =    1763.97 seconds =      29.40 minutes
	system time =      83.99 seconds =       1.40 minutes
	total time  =        180 seconds =       3.00 minutes

    Psi4 stopped on: Friday, 19 March 2021 09:28PM
    Psi4 wall time for execution: 0:03:01.01

*** Psi4 exiting successfully. Buy a developer a beer!
