opt=Tight                                                               
Freq      RMP2-FC                                                     6-31G(d)            
Number of atoms                            I                9
Info1-9                                    I   N=           9
          18          18        1002           0           0         100
           6           2           1
Charge                                     I                0
Multiplicity                               I                1
Number of electrons                        I               26
Number of alpha electrons                  I               13
Number of beta electrons                   I               13
Number of basis functions                  I               57
Number of independent functions            I               57
Number of point charges in /Mol/           I                0
Number of translation vectors              I                0
Atomic numbers                             I   N=           9
           8           6           6           1           1           1
           1           1           1
Nuclear charges                            R   N=           9
  8.00000000E+00  6.00000000E+00  6.00000000E+00  1.00000000E+00  1.00000000E+00
  1.00000000E+00  1.00000000E+00  1.00000000E+00  1.00000000E+00
Current cartesian coordinates              R   N=          27
 -2.23636229E-08  1.13553076E+00  0.00000000E+00 -2.23636229E-08 -3.78670881E-01
  2.20524615E+00 -2.23636229E-08 -3.78670881E-01 -2.20524615E+00  1.68593063E+00
 -1.58909149E+00  2.29640087E+00 -1.68593038E+00 -1.58909527E+00  2.29640087E+00
 -2.23636229E-08  9.08088996E-01  3.81504904E+00 -2.23636229E-08  9.08088996E-01
 -3.81504904E+00  1.68593063E+00 -1.58909149E+00 -2.29640087E+00 -1.68593038E+00
 -1.58909527E+00 -2.29640087E+00
Force Field                                I                0
Int Atom Types                             I   N=           9
           0           0           0           0           0           0
           0           0           0
MM charges                                 R   N=           9
  0.00000000E+00  0.00000000E+00  0.00000000E+00  0.00000000E+00  0.00000000E+00
  0.00000000E+00  0.00000000E+00  0.00000000E+00  0.00000000E+00
Integer atomic weights                     I   N=           9
          16          12          12           1           1           1
           1           1           1
Real atomic weights                        R   N=           9
  1.59949146E+01  1.20000000E+01  1.20000000E+01  1.00782504E+00  1.00782504E+00
  1.00782504E+00  1.00782504E+00  1.00782504E+00  1.00782504E+00
Atom fragment info                         I   N=           9
           0           0           0           0           0           0
           0           0           0
Atom residue num                           I   N=           9
           0           0           0           0           0           0
           0           0           0
Nuclear spins                              I   N=           9
           0           0           0           1           1           1
           1           1           1
Nuclear ZEff                               R   N=           9
 -5.60000000E+00 -3.60000000E+00 -3.60000000E+00 -1.00000000E+00 -1.00000000E+00
 -1.00000000E+00 -1.00000000E+00 -1.00000000E+00 -1.00000000E+00
Nuclear QMom                               R   N=           9
  0.00000000E+00  0.00000000E+00  0.00000000E+00  0.00000000E+00  0.00000000E+00
  0.00000000E+00  0.00000000E+00  0.00000000E+00  0.00000000E+00
Nuclear GFac                               R   N=           9
  0.00000000E+00  0.00000000E+00  0.00000000E+00  2.79284600E+00  2.79284600E+00
  2.79284600E+00  2.79284600E+00  2.79284600E+00  2.79284600E+00
MicOpt                                     I   N=           9
          -1          -1          -1          -1          -1          -1
          -1          -1          -1
Number of contracted shells                I               24
Number of primitive shells                 I               57
Pure/Cartesian d shells                    I                1
Pure/Cartesian f shells                    I                0
Highest angular momentum                   I                2
Largest degree of contraction              I                6
Shell types                                I   N=          24
           0          -1          -1           2           0          -1
          -1           2           0          -1          -1           2
           0           0           0           0           0           0
           0           0           0           0           0           0
Number of primitives per shell             I   N=          24
           6           3           1           1           6           3
           1           1           6           3           1           1
           3           1           3           1           3           1
           3           1           3           1           3           1
Shell to atom map                          I   N=          24
           1           1           1           1           2           2
           2           2           3           3           3           3
           4           4           5           5           6           6
           7           7           8           8           9           9
Primitive exponents                        R   N=          57
  5.48467166E+03  8.25234946E+02  1.88046958E+02  5.29645000E+01  1.68975704E+01
  5.79963534E+00  1.55396162E+01  3.59993359E+00  1.01376175E+00  2.70005823E-01
  8.00000000E-01  3.04752488E+03  4.57369518E+02  1.03948685E+02  2.92101553E+01
  9.28666296E+00  3.16392696E+00  7.86827235E+00  1.88128854E+00  5.44249258E-01
  1.68714478E-01  8.00000000E-01  3.04752488E+03  4.57369518E+02  1.03948685E+02
  2.92101553E+01  9.28666296E+00  3.16392696E+00  7.86827235E+00  1.88128854E+00
  5.44249258E-01  1.68714478E-01  8.00000000E-01  1.87311370E+01  2.82539436E+00
  6.40121692E-01  1.61277759E-01  1.87311370E+01  2.82539436E+00  6.40121692E-01
  1.61277759E-01  1.87311370E+01  2.82539436E+00  6.40121692E-01  1.61277759E-01
  1.87311370E+01  2.82539436E+00  6.40121692E-01  1.61277759E-01  1.87311370E+01
  2.82539436E+00  6.40121692E-01  1.61277759E-01  1.87311370E+01  2.82539436E+00
  6.40121692E-01  1.61277759E-01
Contraction coefficients                   R   N=          57
  1.83107443E-03  1.39501722E-02  6.84450781E-02  2.32714336E-01  4.70192898E-01
  3.58520853E-01 -1.10777550E-01 -1.48026263E-01  1.13076702E+00  1.00000000E+00
  1.00000000E+00  1.83473713E-03  1.40373228E-02  6.88426223E-02  2.32184443E-01
  4.67941348E-01  3.62311985E-01 -1.19332420E-01 -1.60854152E-01  1.14345644E+00
  1.00000000E+00  1.00000000E+00  1.83473713E-03  1.40373228E-02  6.88426223E-02
  2.32184443E-01  4.67941348E-01  3.62311985E-01 -1.19332420E-01 -1.60854152E-01
  1.14345644E+00  1.00000000E+00  1.00000000E+00  3.34946043E-02  2.34726953E-01
  8.13757326E-01  1.00000000E+00  3.34946043E-02  2.34726953E-01  8.13757326E-01
  1.00000000E+00  3.34946043E-02  2.34726953E-01  8.13757326E-01  1.00000000E+00
  3.34946043E-02  2.34726953E-01  8.13757326E-01  1.00000000E+00  3.34946043E-02
  2.34726953E-01  8.13757326E-01  1.00000000E+00  3.34946043E-02  2.34726953E-01
  8.13757326E-01  1.00000000E+00
P(S=P) Contraction coefficients            R   N=          57
  0.00000000E+00  0.00000000E+00  0.00000000E+00  0.00000000E+00  0.00000000E+00
  0.00000000E+00  7.08742682E-02  3.39752839E-01  7.27158577E-01  1.00000000E+00
  0.00000000E+00  0.00000000E+00  0.00000000E+00  0.00000000E+00  0.00000000E+00
  0.00000000E+00  0.00000000E+00  6.89990666E-02  3.16423961E-01  7.44308291E-01
  1.00000000E+00  0.00000000E+00  0.00000000E+00  0.00000000E+00  0.00000000E+00
  0.00000000E+00  0.00000000E+00  0.00000000E+00  6.89990666E-02  3.16423961E-01
  7.44308291E-01  1.00000000E+00  0.00000000E+00  0.00000000E+00  0.00000000E+00
  0.00000000E+00  0.00000000E+00  0.00000000E+00  0.00000000E+00  0.00000000E+00
  0.00000000E+00  0.00000000E+00  0.00000000E+00  0.00000000E+00  0.00000000E+00
  0.00000000E+00  0.00000000E+00  0.00000000E+00  0.00000000E+00  0.00000000E+00
  0.00000000E+00  0.00000000E+00  0.00000000E+00  0.00000000E+00  0.00000000E+00
  0.00000000E+00  0.00000000E+00
Coordinates of each shell                  R   N=          72
 -2.23636229E-08  1.13553076E+00  0.00000000E+00 -2.23636229E-08  1.13553076E+00
  0.00000000E+00 -2.23636229E-08  1.13553076E+00  0.00000000E+00 -2.23636229E-08
  1.13553076E+00  0.00000000E+00 -2.23636229E-08 -3.78670881E-01  2.20524615E+00
 -2.23636229E-08 -3.78670881E-01  2.20524615E+00 -2.23636229E-08 -3.78670881E-01
  2.20524615E+00 -2.23636229E-08 -3.78670881E-01  2.20524615E+00 -2.23636229E-08
 -3.78670881E-01 -2.20524615E+00 -2.23636229E-08 -3.78670881E-01 -2.20524615E+00
 -2.23636229E-08 -3.78670881E-01 -2.20524615E+00 -2.23636229E-08 -3.78670881E-01
 -2.20524615E+00  1.68593063E+00 -1.58909149E+00  2.29640087E+00  1.68593063E+00
 -1.58909149E+00  2.29640087E+00 -1.68593038E+00 -1.58909527E+00  2.29640087E+00
 -1.68593038E+00 -1.58909527E+00  2.29640087E+00 -2.23636229E-08  9.08088996E-01
  3.81504904E+00 -2.23636229E-08  9.08088996E-01  3.81504904E+00 -2.23636229E-08
  9.08088996E-01 -3.81504904E+00 -2.23636229E-08  9.08088996E-01 -3.81504904E+00
  1.68593063E+00 -1.58909149E+00 -2.29640087E+00  1.68593063E+00 -1.58909149E+00
 -2.29640087E+00 -1.68593038E+00 -1.58909527E+00 -2.29640087E+00 -1.68593038E+00
 -1.58909527E+00 -2.29640087E+00
Constraint Structure                       R   N=          27
 -2.23636229E-08  1.13553076E+00  0.00000000E+00 -2.23636229E-08 -3.78670881E-01
  2.20524615E+00 -2.23636229E-08 -3.78670881E-01 -2.20524615E+00  1.68593063E+00
 -1.58909149E+00  2.29640087E+00 -1.68593038E+00 -1.58909527E+00  2.29640087E+00
 -2.23636229E-08  9.08088996E-01  3.81504904E+00 -2.23636229E-08  9.08088996E-01
 -3.81504904E+00  1.68593063E+00 -1.58909149E+00 -2.29640087E+00 -1.68593038E+00
 -1.58909527E+00 -2.29640087E+00
Num ILSW                                   I              100
ILSW                                       I   N=         100
           0           1           0           0           2           0
           0           0           0           0           0          -1
           0           0           0           0           0           0
           0           0           0           0           1           0
           1           0           0           0           0           0
           0           0      100000           0          -1           0
           0           0           0           0           0           0
           0           0           0           1           1           0
           0           0           1           0           0           0
           0           0           4          40           0           0
           0           0           0           0           0           0
           0           0           0           0           0           0
           0           0           0           0           0           0
           0           0           0           0           0           0
           0           0           0           0           0           0
           0           0           0           0           0           0
           0           0           0           0
Num RLSW                                   I               40
RLSW                                       R   N=          40
  1.00000000E+00  1.00000000E+00  1.00000000E+00  1.00000000E+00  1.00000000E+00
  0.00000000E+00  0.00000000E+00  1.00000000E+00  0.00000000E+00  0.00000000E+00
  0.00000000E+00  0.00000000E+00  1.00000000E+00  0.00000000E+00  0.00000000E+00
  0.00000000E+00  0.00000000E+00  1.00000000E+00  0.00000000E+00  0.00000000E+00
  0.00000000E+00  0.00000000E+00  1.00000000E+00  0.00000000E+00  0.00000000E+00
  0.00000000E+00  0.00000000E+00  1.00000000E+00  0.00000000E+00  0.00000000E+00
  0.00000000E+00  0.00000000E+00  0.00000000E+00  0.00000000E+00  0.00000000E+00
  0.00000000E+00  0.00000000E+00  0.00000000E+00  1.00000000E+00  1.00000000E+00
MxBond                                     I                4
NBond                                      I   N=           9
           2           4           4           1           1           1
           1           1           1
IBond                                      I   N=          36
           2           3           0           0           1           4
           5           6           1           7           8           9
           2           0           0           0           2           0
           0           0           2           0           0           0
           3           0           0           0           3           0
           0           0           3           0           0           0
RBond                                      R   N=          36
  1.00000000E+00  1.00000000E+00  0.00000000E+00  0.00000000E+00  1.00000000E+00
  1.00000000E+00  1.00000000E+00  1.00000000E+00  1.00000000E+00  1.00000000E+00
  1.00000000E+00  1.00000000E+00  1.00000000E+00  0.00000000E+00  0.00000000E+00
  0.00000000E+00  1.00000000E+00  0.00000000E+00  0.00000000E+00  0.00000000E+00
  1.00000000E+00  0.00000000E+00  0.00000000E+00  0.00000000E+00  1.00000000E+00
  0.00000000E+00  0.00000000E+00  0.00000000E+00  1.00000000E+00  0.00000000E+00
  0.00000000E+00  0.00000000E+00  1.00000000E+00  0.00000000E+00  0.00000000E+00
  0.00000000E+00
Virial Ratio                               R      2.002333936926187E+00
SCF Energy                                 R     -1.540632334256509E+02
MP2 Energy                                 R     -1.545034553069995E+02
Total Energy                               R     -1.545034553069995E+02
Post-SCF wavefunction norm                 R      1.505657583892431E+00
RMS Force                                  R      3.635609751353088E-07
RMS Density                                R      1.224301653460929E-10
External E-field                           R   N=          35
  0.00000000E+00  0.00000000E+00  0.00000000E+00  0.00000000E+00  0.00000000E+00
  0.00000000E+00  0.00000000E+00  0.00000000E+00  0.00000000E+00  0.00000000E+00
  0.00000000E+00  0.00000000E+00  0.00000000E+00  0.00000000E+00  0.00000000E+00
  0.00000000E+00  0.00000000E+00  0.00000000E+00  0.00000000E+00  0.00000000E+00
  0.00000000E+00  0.00000000E+00  0.00000000E+00  0.00000000E+00  0.00000000E+00
  0.00000000E+00  0.00000000E+00  0.00000000E+00  0.00000000E+00  0.00000000E+00
  0.00000000E+00  0.00000000E+00  0.00000000E+00  0.00000000E+00  0.00000000E+00
IOpCl                                      I                0
IROHF                                      I                0
Alpha Orbital Energies                     R   N=          57
 -2.05595804E+01 -1.12702399E+01 -1.12702211E+01 -1.36607657E+00 -9.64847359E-01
 -8.73672299E-01 -6.54509795E-01 -6.46647690E-01 -6.34938811E-01 -5.48578503E-01
 -5.23443367E-01 -4.79270445E-01 -4.20363084E-01  2.33630493E-01  2.96204710E-01
  3.01035137E-01  3.11835308E-01  3.14876240E-01  3.44497571E-01  3.47582498E-01
  4.27174962E-01  7.26590076E-01  7.68994832E-01  7.72751124E-01  7.86850250E-01
  8.06985018E-01  9.57047587E-01  1.08444177E+00  1.10428907E+00  1.12774492E+00
  1.14017927E+00  1.15529377E+00  1.19132734E+00  1.22725506E+00  1.31838141E+00
  1.36309286E+00  1.38626746E+00  1.68466905E+00  1.68882914E+00  1.77070477E+00
  1.77080313E+00  1.90179178E+00  2.19906059E+00  2.38793496E+00  2.38965443E+00
  2.40378473E+00  2.49493675E+00  2.50769160E+00  2.56375268E+00  2.64478685E+00
  2.83916811E+00  2.88467982E+00  3.03993751E+00  3.27538848E+00  4.30079793E+00
  4.63479749E+00  4.69763036E+00
Alpha MO coefficients                      R   N=        3249
  9.94666441E-01  2.11918678E-02 -1.27061429E-10 -1.30314969E-03  0.00000000E+00
  3.85089449E-03  9.89136035E-11  6.89993181E-04  0.00000000E+00 -3.80282062E-03
 -4.06369462E-03 -4.19673244E-03 -1.08826257E-10  0.00000000E+00  0.00000000E+00
 -1.37138594E-05  2.76838185E-04 -6.03983498E-12  2.16241167E-04 -3.18914643E-04
  3.76501399E-05  2.40969690E-12 -2.40319433E-04  4.69784647E-05 -3.25285816E-05
 -4.03344428E-05  3.59704958E-05 -1.74172502E-11  3.23128257E-11 -5.07884823E-05
 -1.37138594E-05  2.76838185E-04 -6.03983498E-12  2.16241167E-04  3.18914643E-04
  3.76501399E-05  2.40969690E-12 -2.40319433E-04 -4.69784647E-05 -3.25285816E-05
 -4.03344428E-05  3.59704958E-05 -1.74172502E-11 -3.23128257E-11  5.07884823E-05
 -3.80426345E-05 -9.69513251E-05 -3.80425674E-05 -9.69513685E-05  7.92458755E-06
 -3.76882922E-05  7.92458755E-06 -3.76882922E-05 -3.80426345E-05 -9.69513251E-05
 -3.80425674E-05 -9.69513685E-05  0.00000000E+00  0.00000000E+00  0.00000000E+00
  0.00000000E+00  1.46171772E-04  0.00000000E+00  0.00000000E+00  0.00000000E+00
  9.18731961E-05  0.00000000E+00  0.00000000E+00  0.00000000E+00  0.00000000E+00
  1.72819165E-10  4.86373636E-04  7.04180981E-01  1.97813462E-02  4.01843026E-10
  1.54487287E-04 -5.43224703E-04 -9.87635536E-03 -2.72384258E-09  8.87427540E-04
  9.17959734E-04 -1.20249008E-03 -1.08096108E-03 -1.23535932E-03 -6.47499457E-10
  1.37119262E-11 -3.19225234E-05 -7.04180981E-01 -1.97813462E-02 -4.01843026E-10
 -1.54487287E-04 -5.43224703E-04  9.87635536E-03  2.72384258E-09 -8.87427540E-04
  9.17959734E-04  1.20249008E-03  1.08096108E-03  1.23535932E-03  6.47499457E-10
  1.37119262E-11 -3.19225234E-05  1.92386063E-04  2.08484236E-03  1.92386336E-04
  2.08483792E-03 -1.31512184E-05  1.20506186E-03  1.31512184E-05 -1.20506186E-03
 -1.92386063E-04 -2.08484236E-03 -1.92386336E-04 -2.08483792E-03 -1.76797271E-04
  3.96526035E-04 -4.24278603E-11 -2.15880989E-04  0.00000000E+00  8.81203707E-04
  5.67429427E-10  8.02491434E-04  0.00000000E+00  2.34123982E-04 -3.48061850E-04
 -6.89603753E-04 -2.28959580E-11  0.00000000E+00  0.00000000E+00  7.04102725E-01
  1.91800504E-02  6.08292531E-10  2.80701135E-04 -5.75720940E-04 -7.66165746E-03
 -2.73004240E-09  3.12047485E-05 -6.01109572E-04 -1.26618421E-03 -1.24272937E-03
 -9.74421230E-04 -5.96947163E-10  5.86743102E-11 -6.10726707E-05  7.04102725E-01
  1.91800504E-02  6.08292531E-10  2.80701135E-04  5.75720940E-04 -7.66165746E-03
 -2.73004240E-09  3.12047485E-05  6.01109572E-04 -1.26618421E-03 -1.24272937E-03
 -9.74421230E-04 -5.96947163E-10 -5.86743102E-11  6.10726707E-05 -3.87766521E-06
  1.55571797E-03 -3.87762943E-06  1.55571373E-03  4.01438489E-05  1.72189378E-03
  4.01438489E-05  1.72189378E-03 -3.87766521E-06  1.55571797E-03 -3.87762943E-06
  1.55571373E-03 -1.97758826E-01  4.42680730E-01  1.50697704E-08 -8.00044871E-02
  0.00000000E+00  4.25544788E-01  1.46875363E-08 -5.07967784E-02  0.00000000E+00
 -1.78919394E-03  1.22632019E-02  1.64632585E-02 -1.14451330E-09  0.00000000E+00
  0.00000000E+00 -6.57914988E-02  1.20624053E-01  2.87249331E-08  4.64486781E-02
 -7.73039572E-02  4.08907873E-02 -6.94597665E-09 -3.08752545E-03  1.26974025E-03
 -5.47002621E-03  2.84133873E-03  1.51914500E-02 -1.56252663E-09 -9.06515885E-10
 -1.40808902E-02 -6.57914988E-02  1.20624053E-01  2.87249331E-08  4.64486781E-02
  7.73039572E-02  4.08907873E-02 -6.94597665E-09 -3.08752545E-03 -1.26974025E-03
 -5.47002621E-03  2.84133873E-03  1.51914500E-02 -1.56252663E-09  9.06515885E-10
  1.40808902E-02  2.30457614E-02  2.17982769E-03  2.30457026E-02  2.17981851E-03
  2.24678796E-02  4.72436137E-03  2.24678796E-02  4.72436137E-03  2.30457614E-02
  2.17982769E-03  2.30457026E-02  2.17981851E-03  0.00000000E+00  0.00000000E+00
  0.00000000E+00  0.00000000E+00  2.22051736E-01  0.00000000E+00  0.00000000E+00
  0.00000000E+00  1.12185235E-01  0.00000000E+00  0.00000000E+00  0.00000000E+00
  0.00000000E+00  3.75886322E-09 -2.20893823E-02 -1.36933435E-01  2.64251167E-01
  1.90193790E-07  2.38656352E-02  8.26914248E-03  2.33900906E-01  3.38377255E-08
 -1.18287689E-02  1.36205814E-02  4.29024185E-03  8.98433589E-03  4.52166863E-03
 -1.14265866E-08  3.70308045E-09 -1.14601782E-03  1.36933435E-01 -2.64251167E-01
 -1.90193790E-07 -2.38656352E-02  8.26914248E-03 -2.33900906E-01 -3.38377255E-08
  1.18287689E-02  1.36205814E-02 -4.29024185E-03 -8.98433589E-03 -4.52166863E-03
  1.14265866E-08  3.70308045E-09 -1.14601782E-03  8.71826433E-02  1.85225238E-02
  8.71824178E-02  1.85224861E-02  1.02329957E-01  2.92894752E-02 -1.02329957E-01
 -2.92894752E-02 -8.71826433E-02 -1.85225238E-02 -8.71824178E-02 -1.85224861E-02
 -8.85512340E-02  1.97401141E-01 -1.31554502E-07  9.70125070E-02  0.00000000E+00
  2.99101751E-01 -7.03188843E-08  4.57618114E-02  0.00000000E+00  1.70469924E-03
 -9.18511164E-03 -2.81841165E-03  1.21479828E-08  0.00000000E+00  0.00000000E+00
  1.14265939E-01 -2.21617032E-01 -2.95589073E-07  8.79977827E-02 -8.28030591E-02
 -2.42556694E-01 -6.95619074E-08  3.52938278E-02 -2.28235732E-02 -1.34716018E-02
 -3.63923962E-03  4.26203947E-03  1.57158906E-08 -2.24130782E-09 -1.41839116E-02
  1.14265939E-01 -2.21617032E-01 -2.95589073E-07  8.79977827E-02  8.28030591E-02
 -2.42556694E-01 -6.95619074E-08  3.52938278E-02  2.28235732E-02 -1.34716018E-02
 -3.63923962E-03  4.26203947E-03  1.57158906E-08  2.24130782E-09  1.41839116E-02
 -1.11836674E-01 -3.82568879E-02 -1.11836406E-01 -3.82568280E-02 -9.23220111E-02
 -3.17844351E-02 -9.23220111E-02 -3.17844351E-02 -1.11836674E-01 -3.82568879E-02
 -1.11836406E-01 -3.82568280E-02 -2.72875026E-08  4.01806783E-08  3.53784279E-01
 -1.67150587E-07  0.00000000E+00  1.46785596E-07  2.22550764E-01 -1.31650583E-07
  0.00000000E+00 -7.88725814E-09  8.07274556E-09 -2.24711758E-08 -2.02231567E-02
  0.00000000E+00  0.00000000E+00  9.52928260E-08 -1.63633850E-07  2.58414523E-01
 -1.34956774E-07 -3.04754003E-07 -3.65436189E-07  1.16979472E-01 -1.14230572E-08
 -1.20499100E-07  4.08520870E-08 -4.12192400E-08 -1.82711876E-08 -1.34211106E-02
 -9.23941078E-03 -3.00997942E-08  9.52928260E-08 -1.63633850E-07  2.58414523E-01
 -1.34956774E-07  3.04754003E-07 -3.65436189E-07  1.16979472E-01 -1.14230572E-08
  1.20499100E-07  4.08520870E-08 -4.12192400E-08 -1.82711876E-08 -1.34211106E-02
  9.23941078E-03  3.00997942E-08  1.20053766E-01  8.62496627E-02 -1.20053710E-01
 -8.62496498E-02 -3.03590229E-07 -2.16588025E-07 -3.03590229E-07 -2.16588025E-07
  1.20053766E-01  8.62496627E-02 -1.20053710E-01 -8.62496498E-02 -2.20596442E-02
  5.64847778E-02  3.27042453E-07  3.16473554E-01  0.00000000E+00  7.32781393E-02
  1.97967848E-07  2.04360553E-01  0.00000000E+00  8.34377351E-03 -2.32158902E-02
  1.47769826E-02 -1.81400164E-08  0.00000000E+00  0.00000000E+00 -1.09248172E-02
  2.11904494E-02  2.52808481E-07  1.51441256E-01  2.32089310E-01  5.09279818E-02
  1.44130157E-07  8.23898854E-02  9.69430907E-02 -5.72596668E-03  7.78029118E-03
 -2.71090021E-03 -1.92359301E-08 -1.48319832E-09  1.80065783E-02 -1.09248172E-02
  2.11904494E-02  2.52808481E-07  1.51441256E-01 -2.32089310E-01  5.09279818E-02
  1.44130157E-07  8.23898854E-02 -9.69430907E-02 -5.72596668E-03  7.78029118E-03
 -2.71090021E-03 -1.92359301E-08  1.48319832E-09 -1.80065783E-02 -3.53585156E-02
 -2.42417051E-02 -3.53588435E-02 -2.42419322E-02  1.68669571E-01  1.08086636E-01
  1.68669571E-01  1.08086636E-01 -3.53585156E-02 -2.42417051E-02 -3.53588435E-02
 -2.42419322E-02  0.00000000E+00  0.00000000E+00  0.00000000E+00  0.00000000E+00
  3.88806551E-01  0.00000000E+00  0.00000000E+00  0.00000000E+00  2.44424430E-01
  0.00000000E+00  0.00000000E+00  0.00000000E+00  0.00000000E+00 -1.46961399E-08
 -2.16456446E-02  1.75109648E-02 -2.68700047E-02 -4.67310320E-07  2.59561324E-01
 -1.33461458E-01 -9.20497331E-02 -1.64092430E-07  1.02610713E-01 -3.36375473E-02
 -2.16807057E-02  3.74726121E-03  1.72278817E-02  2.67600665E-08 -9.02897749E-09
 -1.77214734E-02 -1.75109648E-02  2.68700047E-02  4.67310320E-07 -2.59561324E-01
 -1.33461458E-01  9.20497331E-02  1.64092430E-07 -1.02610713E-01 -3.36375473E-02
  2.16807057E-02 -3.74726121E-03 -1.72278817E-02 -2.67600665E-08 -9.02897749E-09
 -1.77214734E-02 -1.06474373E-01 -6.90118147E-02 -1.06474035E-01 -6.90116120E-02
  1.39727898E-02  1.08106968E-02 -1.39727898E-02 -1.08106968E-02  1.06474373E-01
  6.90118147E-02  1.06474035E-01  6.90116120E-02  0.00000000E+00  0.00000000E+00
  0.00000000E+00  0.00000000E+00  6.35904924E-07  0.00000000E+00  0.00000000E+00
  0.00000000E+00  4.31474108E-07  0.00000000E+00  0.00000000E+00  0.00000000E+00
  0.00000000E+00  9.17797782E-03 -5.49878472E-08  5.15890864E-08 -6.10540200E-08
  3.26024738E-01  1.60700985E-09 -6.40456284E-07 -3.25824626E-07  1.59368030E-01
  3.44598211E-08 -3.13195250E-07  4.48926573E-08 -4.53812298E-08 -2.47880283E-08
 -2.74497106E-02  3.61695666E-03 -6.85774153E-08 -5.15890864E-08  6.10540200E-08
 -3.26024738E-01 -1.60700985E-09 -6.40456284E-07  3.25824626E-07 -1.59368030E-01
 -3.44598211E-08 -3.13195250E-07 -4.48926573E-08  4.53812298E-08  2.47880283E-08
  2.74497106E-02  3.61695666E-03 -6.85774153E-08  1.72797252E-01  1.45730318E-01
 -1.72797206E-01 -1.45730352E-01 -4.40149990E-07 -3.80448089E-07  4.40149990E-07
  3.80448089E-07 -1.72797252E-01 -1.45730318E-01  1.72797206E-01  1.45730352E-01
  0.00000000E+00  0.00000000E+00  0.00000000E+00  0.00000000E+00 -2.12780119E-01
  0.00000000E+00  0.00000000E+00  0.00000000E+00 -1.55393446E-01  0.00000000E+00
  0.00000000E+00  0.00000000E+00  0.00000000E+00  1.30043818E-08  2.06844400E-02
  1.14415420E-02 -1.85530032E-02  4.97675304E-07  1.65772807E-01  2.73978417E-01
 -2.83931301E-02  2.94970684E-07  1.07170570E-01  1.51132234E-01 -9.91953525E-03
 -9.91945426E-04  1.39009487E-02 -5.27912189E-08  1.44685493E-08  2.97975609E-02
 -1.14415420E-02  1.85530032E-02 -4.97675304E-07 -1.65772807E-01  2.73978417E-01
  2.83931301E-02 -2.94970684E-07 -1.07170570E-01  1.51132234E-01  9.91953525E-03
  9.91945426E-04 -1.39009487E-02  5.27912189E-08  1.44685493E-08  2.97975609E-02
 -6.60075781E-02 -5.16467373E-02 -6.60082407E-02 -5.16473234E-02  2.10565999E-01
  1.68935001E-01 -2.10565999E-01 -1.68935001E-01  6.60075781E-02  5.16467373E-02
  6.60082407E-02  5.16473234E-02 -4.83248397E-02  1.06765032E-01 -5.15069468E-08
  4.55060025E-01  0.00000000E+00  2.21854197E-01 -2.59347085E-08  3.60318982E-01
  0.00000000E+00  9.78978564E-03 -2.42821923E-02 -7.35313935E-03 -1.80040686E-09
  0.00000000E+00  0.00000000E+00  1.75838935E-02 -3.96133038E-02  6.00318671E-08
 -2.38879465E-01  2.69545768E-02 -2.89887086E-02 -2.15480138E-08 -9.58722503E-02
 -8.55530752E-03  1.86957431E-02  1.06756713E-02 -3.02691017E-02  9.49202379E-09
  2.87387725E-09 -5.74213278E-03  1.75838935E-02 -3.96133038E-02  6.00318671E-08
 -2.38879465E-01 -2.69545768E-02 -2.89887086E-02 -2.15480138E-08 -9.58722503E-02
  8.55530752E-03  1.86957431E-02  1.06756713E-02 -3.02691017E-02  9.49202379E-09
 -2.87387725E-09  5.74213278E-03  9.07299624E-02  1.04285351E-01  9.07301188E-02
  1.04285516E-01 -1.17532534E-01 -1.04363669E-01 -1.17532534E-01 -1.04363669E-01
  9.07299624E-02  1.04285351E-01  9.07301188E-02  1.04285516E-01  2.34293113E-09
  8.03123706E-09  5.39506096E-01 -1.03583002E-07  0.00000000E+00 -3.02446438E-08
  4.49505681E-01 -5.99458991E-08  0.00000000E+00  3.27945575E-09  1.81400052E-09
  1.64471843E-09 -1.73175005E-02  0.00000000E+00  0.00000000E+00 -1.09456996E-09
 -2.52672486E-08 -1.65106794E-01  4.69822821E-08  5.58068490E-08  1.17028730E-07
 -5.76528286E-02  9.46507282E-09  1.98445508E-08 -3.35678177E-08  3.14004987E-08
  2.06388937E-08  3.13925496E-02 -1.83872935E-02  5.43614830E-09 -1.09456996E-09
 -2.52672486E-08 -1.65106794E-01  4.69822821E-08 -5.58068490E-08  1.17028730E-07
 -5.76528286E-02  9.46507282E-09 -1.98445508E-08 -3.35678177E-08  3.14004987E-08
  2.06388937E-08  3.13925496E-02  1.83872935E-02 -5.43614830E-09 -1.29415661E-01
 -1.61086685E-01  1.29415601E-01  1.61086735E-01  9.83489631E-08  1.36217564E-07
  9.83489631E-08  1.36217564E-07 -1.29415661E-01 -1.61086685E-01  1.29415601E-01
  1.61086735E-01 -2.69280571E-02  4.47051249E-02  2.36104584E-07  6.27230868E-03
  0.00000000E+00  3.18758338E-01  3.07085857E-07 -2.46498249E-02  0.00000000E+00
 -1.06882567E-02 -1.09459598E-03  1.63931838E-03 -3.19188246E-09  0.00000000E+00
  0.00000000E+00 -8.20401087E-02  6.15878461E-02 -2.38112719E-07 -1.21407459E-01
  9.96021705E-02  1.46684545E+00  9.56557800E-09 -4.19737104E-01  4.24540628E-01
 -9.43620627E-03 -6.96644509E-03 -9.38838131E-03 -6.70364498E-09 -4.87629199E-09
 -6.31171617E-03 -8.20401087E-02  6.15878461E-02 -2.38112719E-07 -1.21407459E-01
 -9.96021705E-02  1.46684545E+00  9.56557800E-09 -4.19737104E-01 -4.24540628E-01
 -9.43620627E-03 -6.96644509E-03 -9.38838131E-03 -6.70364498E-09  4.87629199E-09
  6.31171617E-03  2.22297177E-03 -8.37209206E-01  2.22291202E-03 -8.37209411E-01
 -2.16927249E-02 -6.22817906E-01 -2.16927249E-02 -6.22817906E-01  2.22297177E-03
 -8.37209206E-01  2.22291202E-03 -8.37209411E-01  0.00000000E+00  0.00000000E+00
  0.00000000E+00  0.00000000E+00 -8.51555160E-02  0.00000000E+00  0.00000000E+00
  0.00000000E+00 -2.95421413E-01  0.00000000E+00  0.00000000E+00  0.00000000E+00
  0.00000000E+00 -6.30006967E-08  1.85146111E-03 -1.08533320E-01  7.90170309E-02
 -6.70982002E-07 -3.06086919E-02  9.58731605E-02  1.98624862E+00 -1.77545161E-06
 -1.34842753E-01  1.66722665E-01 -1.00626372E-02 -8.37563854E-03  2.10798116E-04
 -5.38171837E-08  2.95948765E-09  4.25892910E-03  1.08533320E-01 -7.90170309E-02
  6.70982002E-07  3.06086919E-02  9.58731605E-02 -1.98624862E+00  1.77545161E-06
  1.34842753E-01  1.66722665E-01  1.00626372E-02  8.37563854E-03 -2.10798116E-04
  5.38171837E-08  2.95948765E-09  4.25892910E-03 -1.80028227E-02 -9.23725930E-01
 -1.80032813E-02 -9.23730052E-01  3.28751949E-02 -8.59615956E-01 -3.28751949E-02
  8.59615956E-01  1.80028227E-02  9.23725930E-01  1.80032813E-02  9.23730052E-01
 -2.13521711E-02  8.38497142E-03  3.66009609E-07  3.15070492E-02  0.00000000E+00
  3.29020916E-01  9.17470244E-07  1.26452226E-01  0.00000000E+00 -1.89951272E-02
 -1.82572852E-03 -2.24980914E-02 -2.10353936E-08  0.00000000E+00  0.00000000E+00