opt=Tight                                                               
Freq      RMP2-FC                                                     6-31G(d)            
Number of atoms                            I               13
Info1-9                                    I   N=           9
          22          22        1002           0           0         100
           6           2           1
Charge                                     I                0
Multiplicity                               I                1
Number of electrons                        I               58
Number of alpha electrons                  I               29
Number of beta electrons                   I               29
Number of basis functions                  I              130
Number of independent functions            I              130
Number of point charges in /Mol/           I                0
Number of translation vectors              I                0
Atomic numbers                             I   N=          13
           8           7           7           7           6           6
           6           6           1           1           1           1
           1
Nuclear charges                            R   N=          13
  8.00000000E+00  7.00000000E+00  7.00000000E+00  7.00000000E+00  6.00000000E+00
  6.00000000E+00  6.00000000E+00  6.00000000E+00  1.00000000E+00  1.00000000E+00
  1.00000000E+00  1.00000000E+00  1.00000000E+00
Current cartesian coordinates              R   N=          39
  4.22519163E+00 -2.20104042E+00 -3.77687605E-03 -5.04403378E-02 -1.71776547E+00
 -2.66965036E-03 -4.46090099E+00 -1.63818863E+00 -1.48138711E-01  2.63484056E+00
  1.89544199E+00  1.75884115E-02 -2.20893452E+00 -3.28936917E-01  6.98563377E-04
 -1.96549956E+00  2.26116896E+00  4.04709209E-04  2.44815232E+00 -7.16917767E-01
  6.29668108E-03  5.23903322E-01  3.21987085E+00  3.37746429E-03 -1.14977955E-01
 -3.63420666E+00 -1.29367147E-01 -3.59901409E+00  3.49443882E+00  2.24271654E-02
  7.76024987E-01  5.26637181E+00  7.61424182E-03 -6.00895662E+00 -5.78853699E-01
  2.38979071E-01 -4.50483341E+00 -3.32695297E+00  7.58436822E-01
Force Field                                I                0
Int Atom Types                             I   N=          13
           0           0           0           0           0           0
           0           0           0           0           0           0
           0
MM charges                                 R   N=          13
  0.00000000E+00  0.00000000E+00  0.00000000E+00  0.00000000E+00  0.00000000E+00
  0.00000000E+00  0.00000000E+00  0.00000000E+00  0.00000000E+00  0.00000000E+00
  0.00000000E+00  0.00000000E+00  0.00000000E+00
Integer atomic weights                     I   N=          13
          16          14          14          14          12          12
          12          12           1           1           1           1
           1
Real atomic weights                        R   N=          13
  1.59949146E+01  1.40030740E+01  1.40030740E+01  1.40030740E+01  1.20000000E+01
  1.20000000E+01  1.20000000E+01  1.20000000E+01  1.00782504E+00  1.00782504E+00
  1.00782504E+00  1.00782504E+00  1.00782504E+00
Atom fragment info                         I   N=          13
           0           0           0           0           0           0
           0           0           0           0           0           0
           0
Atom residue num                           I   N=          13
           0           0           0           0           0           0
           0           0           0           0           0           0
           0
Nuclear spins                              I   N=          13
           0           2           2           2           0           0
           0           0           1           1           1           1
           1
Nuclear ZEff                               R   N=          13
 -5.60000000E+00 -4.55000000E+00 -4.55000000E+00 -4.55000000E+00 -3.60000000E+00
 -3.60000000E+00 -3.60000000E+00 -3.60000000E+00 -1.00000000E+00 -1.00000000E+00
 -1.00000000E+00 -1.00000000E+00 -1.00000000E+00
Nuclear QMom                               R   N=          13
  0.00000000E+00  2.04400000E+00  2.04400000E+00  2.04400000E+00  0.00000000E+00
  0.00000000E+00  0.00000000E+00  0.00000000E+00  0.00000000E+00  0.00000000E+00
  0.00000000E+00  0.00000000E+00  0.00000000E+00
Nuclear GFac                               R   N=          13
  0.00000000E+00  4.03761000E-01  4.03761000E-01  4.03761000E-01  0.00000000E+00
  0.00000000E+00  0.00000000E+00  0.00000000E+00  2.79284600E+00  2.79284600E+00
  2.79284600E+00  2.79284600E+00  2.79284600E+00
MicOpt                                     I   N=          13
          -1          -1          -1          -1          -1          -1
          -1          -1          -1          -1          -1          -1
          -1
Number of contracted shells                I               42
Number of primitive shells                 I              108
Pure/Cartesian d shells                    I                1
Pure/Cartesian f shells                    I                0
Highest angular momentum                   I                2
Largest degree of contraction              I                6
Shell types                                I   N=          42
           0          -1          -1           2           0          -1
          -1           2           0          -1          -1           2
           0          -1          -1           2           0          -1
          -1           2           0          -1          -1           2
           0          -1          -1           2           0          -1
          -1           2           0           0           0           0
           0           0           0           0           0           0
Number of primitives per shell             I   N=          42
           6           3           1           1           6           3
           1           1           6           3           1           1
           6           3           1           1           6           3
           1           1           6           3           1           1
           6           3           1           1           6           3
           1           1           3           1           3           1
           3           1           3           1           3           1
Shell to atom map                          I   N=          42
           1           1           1           1           2           2
           2           2           3           3           3           3
           4           4           4           4           5           5
           5           5           6           6           6           6
           7           7           7           7           8           8
           8           8           9           9          10          10
          11          11          12          12          13          13
Primitive exponents                        R   N=         108
  5.48467166E+03  8.25234946E+02  1.88046958E+02  5.29645000E+01  1.68975704E+01
  5.79963534E+00  1.55396162E+01  3.59993359E+00  1.01376175E+00  2.70005823E-01
  8.00000000E-01  4.17351146E+03  6.27457911E+02  1.42902093E+02  4.02343293E+01
  1.28202129E+01  4.39043701E+00  1.16263619E+01  2.71627981E+00  7.72218397E-01
  2.12031498E-01  8.00000000E-01  4.17351146E+03  6.27457911E+02  1.42902093E+02
  4.02343293E+01  1.28202129E+01  4.39043701E+00  1.16263619E+01  2.71627981E+00
  7.72218397E-01  2.12031498E-01  8.00000000E-01  4.17351146E+03  6.27457911E+02
  1.42902093E+02  4.02343293E+01  1.28202129E+01  4.39043701E+00  1.16263619E+01
  2.71627981E+00  7.72218397E-01  2.12031498E-01  8.00000000E-01  3.04752488E+03
  4.57369518E+02  1.03948685E+02  2.92101553E+01  9.28666296E+00  3.16392696E+00
  7.86827235E+00  1.88128854E+00  5.44249258E-01  1.68714478E-01  8.00000000E-01
  3.04752488E+03  4.57369518E+02  1.03948685E+02  2.92101553E+01  9.28666296E+00
  3.16392696E+00  7.86827235E+00  1.88128854E+00  5.44249258E-01  1.68714478E-01
  8.00000000E-01  3.04752488E+03  4.57369518E+02  1.03948685E+02  2.92101553E+01
  9.28666296E+00  3.16392696E+00  7.86827235E+00  1.88128854E+00  5.44249258E-01
  1.68714478E-01  8.00000000E-01  3.04752488E+03  4.57369518E+02  1.03948685E+02
  2.92101553E+01  9.28666296E+00  3.16392696E+00  7.86827235E+00  1.88128854E+00
  5.44249258E-01  1.68714478E-01  8.00000000E-01  1.87311370E+01  2.82539436E+00
  6.40121692E-01  1.61277759E-01  1.87311370E+01  2.82539436E+00  6.40121692E-01
  1.61277759E-01  1.87311370E+01  2.82539436E+00  6.40121692E-01  1.61277759E-01
  1.87311370E+01  2.82539436E+00  6.40121692E-01  1.61277759E-01  1.87311370E+01
  2.82539436E+00  6.40121692E-01  1.61277759E-01
Contraction coefficients                   R   N=         108
  1.83107443E-03  1.39501722E-02  6.84450781E-02  2.32714336E-01  4.70192898E-01
  3.58520853E-01 -1.10777550E-01 -1.48026263E-01  1.13076702E+00  1.00000000E+00
  1.00000000E+00  1.83477216E-03  1.39946270E-02  6.85865518E-02  2.32240873E-01
  4.69069948E-01  3.60455199E-01 -1.14961182E-01 -1.69117479E-01  1.14585195E+00
  1.00000000E+00  1.00000000E+00  1.83477216E-03  1.39946270E-02  6.85865518E-02
  2.32240873E-01  4.69069948E-01  3.60455199E-01 -1.14961182E-01 -1.69117479E-01
  1.14585195E+00  1.00000000E+00  1.00000000E+00  1.83477216E-03  1.39946270E-02
  6.85865518E-02  2.32240873E-01  4.69069948E-01  3.60455199E-01 -1.14961182E-01
 -1.69117479E-01  1.14585195E+00  1.00000000E+00  1.00000000E+00  1.83473713E-03
  1.40373228E-02  6.88426223E-02  2.32184443E-01  4.67941348E-01  3.62311985E-01
 -1.19332420E-01 -1.60854152E-01  1.14345644E+00  1.00000000E+00  1.00000000E+00
  1.83473713E-03  1.40373228E-02  6.88426223E-02  2.32184443E-01  4.67941348E-01
  3.62311985E-01 -1.19332420E-01 -1.60854152E-01  1.14345644E+00  1.00000000E+00
  1.00000000E+00  1.83473713E-03  1.40373228E-02  6.88426223E-02  2.32184443E-01
  4.67941348E-01  3.62311985E-01 -1.19332420E-01 -1.60854152E-01  1.14345644E+00
  1.00000000E+00  1.00000000E+00  1.83473713E-03  1.40373228E-02  6.88426223E-02
  2.32184443E-01  4.67941348E-01  3.62311985E-01 -1.19332420E-01 -1.60854152E-01
  1.14345644E+00  1.00000000E+00  1.00000000E+00  3.34946043E-02  2.34726953E-01
  8.13757326E-01  1.00000000E+00  3.34946043E-02  2.34726953E-01  8.13757326E-01
  1.00000000E+00  3.34946043E-02  2.34726953E-01  8.13757326E-01  1.00000000E+00
  3.34946043E-02  2.34726953E-01  8.13757326E-01  1.00000000E+00  3.34946043E-02
  2.34726953E-01  8.13757326E-01  1.00000000E+00
P(S=P) Contraction coefficients            R   N=         108
  0.00000000E+00  0.00000000E+00  0.00000000E+00  0.00000000E+00  0.00000000E+00
  0.00000000E+00  7.08742682E-02  3.39752839E-01  7.27158577E-01  1.00000000E+00
  0.00000000E+00  0.00000000E+00  0.00000000E+00  0.00000000E+00  0.00000000E+00
  0.00000000E+00  0.00000000E+00  6.75797439E-02  3.23907296E-01  7.40895140E-01
  1.00000000E+00  0.00000000E+00  0.00000000E+00  0.00000000E+00  0.00000000E+00
  0.00000000E+00  0.00000000E+00  0.00000000E+00  6.75797439E-02  3.23907296E-01
  7.40895140E-01  1.00000000E+00  0.00000000E+00  0.00000000E+00  0.00000000E+00
  0.00000000E+00  0.00000000E+00  0.00000000E+00  0.00000000E+00  6.75797439E-02
  3.23907296E-01  7.40895140E-01  1.00000000E+00  0.00000000E+00  0.00000000E+00
  0.00000000E+00  0.00000000E+00  0.00000000E+00  0.00000000E+00  0.00000000E+00
  6.89990666E-02  3.16423961E-01  7.44308291E-01  1.00000000E+00  0.00000000E+00
  0.00000000E+00  0.00000000E+00  0.00000000E+00  0.00000000E+00  0.00000000E+00
  0.00000000E+00  6.89990666E-02  3.16423961E-01  7.44308291E-01  1.00000000E+00
  0.00000000E+00  0.00000000E+00  0.00000000E+00  0.00000000E+00  0.00000000E+00
  0.00000000E+00  0.00000000E+00  6.89990666E-02  3.16423961E-01  7.44308291E-01
  1.00000000E+00  0.00000000E+00  0.00000000E+00  0.00000000E+00  0.00000000E+00
  0.00000000E+00  0.00000000E+00  0.00000000E+00  6.89990666E-02  3.16423961E-01
  7.44308291E-01  1.00000000E+00  0.00000000E+00  0.00000000E+00  0.00000000E+00
  0.00000000E+00  0.00000000E+00  0.00000000E+00  0.00000000E+00  0.00000000E+00
  0.00000000E+00  0.00000000E+00  0.00000000E+00  0.00000000E+00  0.00000000E+00
  0.00000000E+00  0.00000000E+00  0.00000000E+00  0.00000000E+00  0.00000000E+00
  0.00000000E+00  0.00000000E+00  0.00000000E+00
Coordinates of each shell                  R   N=         126
  4.22519163E+00 -2.20104042E+00 -3.77687605E-03  4.22519163E+00 -2.20104042E+00
 -3.77687605E-03  4.22519163E+00 -2.20104042E+00 -3.77687605E-03  4.22519163E+00
 -2.20104042E+00 -3.77687605E-03 -5.04403378E-02 -1.71776547E+00 -2.66965036E-03
 -5.04403378E-02 -1.71776547E+00 -2.66965036E-03 -5.04403378E-02 -1.71776547E+00
 -2.66965036E-03 -5.04403378E-02 -1.71776547E+00 -2.66965036E-03 -4.46090099E+00
 -1.63818863E+00 -1.48138711E-01 -4.46090099E+00 -1.63818863E+00 -1.48138711E-01
 -4.46090099E+00 -1.63818863E+00 -1.48138711E-01 -4.46090099E+00 -1.63818863E+00
 -1.48138711E-01  2.63484056E+00  1.89544199E+00  1.75884115E-02  2.63484056E+00
  1.89544199E+00  1.75884115E-02  2.63484056E+00  1.89544199E+00  1.75884115E-02
  2.63484056E+00  1.89544199E+00  1.75884115E-02 -2.20893452E+00 -3.28936917E-01
  6.98563377E-04 -2.20893452E+00 -3.28936917E-01  6.98563377E-04 -2.20893452E+00
 -3.28936917E-01  6.98563377E-04 -2.20893452E+00 -3.28936917E-01  6.98563377E-04
 -1.96549956E+00  2.26116896E+00  4.04709209E-04 -1.96549956E+00  2.26116896E+00
  4.04709209E-04 -1.96549956E+00  2.26116896E+00  4.04709209E-04 -1.96549956E+00
  2.26116896E+00  4.04709209E-04  2.44815232E+00 -7.16917767E-01  6.29668108E-03
  2.44815232E+00 -7.16917767E-01  6.29668108E-03  2.44815232E+00 -7.16917767E-01
  6.29668108E-03  2.44815232E+00 -7.16917767E-01  6.29668108E-03  5.23903322E-01
  3.21987085E+00  3.37746429E-03  5.23903322E-01  3.21987085E+00  3.37746429E-03
  5.23903322E-01  3.21987085E+00  3.37746429E-03  5.23903322E-01  3.21987085E+00
  3.37746429E-03 -1.14977955E-01 -3.63420666E+00 -1.29367147E-01 -1.14977955E-01
 -3.63420666E+00 -1.29367147E-01 -3.59901409E+00  3.49443882E+00  2.24271654E-02
 -3.59901409E+00  3.49443882E+00  2.24271654E-02  7.76024987E-01  5.26637181E+00
  7.61424182E-03  7.76024987E-01  5.26637181E+00  7.61424182E-03 -6.00895662E+00
 -5.78853699E-01  2.38979071E-01 -6.00895662E+00 -5.78853699E-01  2.38979071E-01
 -4.50483341E+00 -3.32695297E+00  7.58436822E-01 -4.50483341E+00 -3.32695297E+00
  7.58436822E-01
Constraint Structure                       R   N=          39
  4.22519163E+00 -2.20104042E+00 -3.77687605E-03 -5.04403378E-02 -1.71776547E+00
 -2.66965036E-03 -4.46090099E+00 -1.63818863E+00 -1.48138711E-01  2.63484056E+00
  1.89544199E+00  1.75884115E-02 -2.20893452E+00 -3.28936917E-01  6.98563377E-04
 -1.96549956E+00  2.26116896E+00  4.04709209E-04  2.44815232E+00 -7.16917767E-01
  6.29668108E-03  5.23903322E-01  3.21987085E+00  3.37746429E-03 -1.14977955E-01
 -3.63420666E+00 -1.29367147E-01 -3.59901409E+00  3.49443882E+00  2.24271654E-02
  7.76024987E-01  5.26637181E+00  7.61424182E-03 -6.00895662E+00 -5.78853699E-01
  2.38979071E-01 -4.50483341E+00 -3.32695297E+00  7.58436822E-01
Num ILSW                                   I              100
ILSW                                       I   N=         100
           0           1           0           1           2           0
           0           0           0           0           0          -1
           0           0           0           0           0           0
           0           0           0           0           1           0
           1           0           0           0           0           0
           0           0      100000           0          -1           0
           0           0           0           0           0           0
           0           0           0           1           1           0
           0           0           1           0           0           0
           0           0           4          40           0           0
           0           0           0           0           0           0
           0           0           0           0           0           0
           0           0           0           0           0           0
           0           0           0           0           0           0
           0           0           0           0           0           0
           0           0           0           0           0           0
           0           0           0           0
Num RLSW                                   I               40
RLSW                                       R   N=          40
  1.00000000E+00  1.00000000E+00  1.00000000E+00  1.00000000E+00  1.00000000E+00
  0.00000000E+00  0.00000000E+00  1.00000000E+00  0.00000000E+00  0.00000000E+00
  0.00000000E+00  0.00000000E+00  1.00000000E+00  0.00000000E+00  0.00000000E+00
  0.00000000E+00  0.00000000E+00  1.00000000E+00  0.00000000E+00  0.00000000E+00
  0.00000000E+00  0.00000000E+00  1.00000000E+00  0.00000000E+00  0.00000000E+00
  0.00000000E+00  0.00000000E+00  1.00000000E+00  0.00000000E+00  0.00000000E+00
  0.00000000E+00  0.00000000E+00  0.00000000E+00  0.00000000E+00  0.00000000E+00
  0.00000000E+00  0.00000000E+00  0.00000000E+00  1.00000000E+00  1.00000000E+00
MxBond                                     I                3
NBond                                      I   N=          13
           1           3           3           2           3           3
           3           3           1           1           1           1
           1
IBond                                      I   N=          39
           7           0           0           5           7           9
           5          12          13           7           8           0
           2           3           6           5           8          10
           1           2           4           4           6          11
           2           0           0           6           0           0
           8           0           0           3           0           0
           3           0           0
RBond                                      R   N=          39
  2.00000000E+00  0.00000000E+00  0.00000000E+00  1.50000000E+00  1.00000000E+00
  1.00000000E+00  1.50000000E+00  1.00000000E+00  1.00000000E+00  1.00000000E+00
  1.50000000E+00  0.00000000E+00  1.50000000E+00  1.50000000E+00  1.50000000E+00
  1.50000000E+00  1.50000000E+00  1.00000000E+00  2.00000000E+00  1.00000000E+00
  1.00000000E+00  1.50000000E+00  1.50000000E+00  1.00000000E+00  1.00000000E+00
  0.00000000E+00  0.00000000E+00  1.00000000E+00  0.00000000E+00  0.00000000E+00
  1.00000000E+00  0.00000000E+00  0.00000000E+00  1.00000000E+00  0.00000000E+00
  0.00000000E+00  1.00000000E+00  0.00000000E+00  0.00000000E+00
Virial Ratio                               R      2.003038873784903E+00
SCF Energy                                 R     -3.925990252500257E+02
MP2 Energy                                 R     -3.937542437242739E+02
Total Energy                               R     -3.937542437242739E+02
Post-SCF wavefunction norm                 R      1.657560851625450E+00
RMS Force                                  R      2.356506523481881E-06
RMS Density                                R      1.000009572710280E-09
External E-field                           R   N=          35
  0.00000000E+00  0.00000000E+00  0.00000000E+00  0.00000000E+00  0.00000000E+00
  0.00000000E+00  0.00000000E+00  0.00000000E+00  0.00000000E+00  0.00000000E+00
  0.00000000E+00  0.00000000E+00  0.00000000E+00  0.00000000E+00  0.00000000E+00
  0.00000000E+00  0.00000000E+00  0.00000000E+00  0.00000000E+00  0.00000000E+00
  0.00000000E+00  0.00000000E+00  0.00000000E+00  0.00000000E+00  0.00000000E+00
  0.00000000E+00  0.00000000E+00  0.00000000E+00  0.00000000E+00  0.00000000E+00
  0.00000000E+00  0.00000000E+00  0.00000000E+00  0.00000000E+00  0.00000000E+00
IOpCl                                      I                0
IROHF                                      I                0
Alpha Orbital Energies                     R   N=         130
 -2.05145392E+01 -1.56369578E+01 -1.56292026E+01 -1.55511346E+01 -1.13809509E+01
 -1.13783620E+01 -1.13107755E+01 -1.12368055E+01 -1.38730556E+00 -1.31985162E+00
 -1.24080676E+00 -1.19849437E+00 -1.05672553E+00 -9.05517123E-01 -8.80969044E-01
 -7.73265788E-01 -7.46677186E-01 -7.12507776E-01 -6.84840173E-01 -6.41861894E-01
 -6.25672824E-01 -6.16942225E-01 -5.68710039E-01 -5.41588489E-01 -4.57252060E-01
 -4.43789182E-01 -4.40995234E-01 -4.11157924E-01 -3.23602895E-01  1.03814837E-01
  1.73768198E-01  1.85010736E-01  2.28671874E-01  2.33614583E-01  2.78761103E-01
  3.12662900E-01  3.40535840E-01  3.99623946E-01  4.09199422E-01  4.69445131E-01
  4.91132879E-01  5.19752103E-01  5.42659667E-01  5.78315513E-01  6.82180098E-01
  7.16736256E-01  7.26736143E-01  7.75246472E-01  7.77204142E-01  8.03949255E-01
  8.07215960E-01  8.18282582E-01  8.49569442E-01  8.90526734E-01  9.05520934E-01
  9.17822923E-01  9.49224465E-01  9.88694845E-01  1.01787713E+00  1.03992607E+00
  1.08491652E+00  1.09326308E+00  1.11002120E+00  1.12656005E+00  1.13993677E+00
  1.14497851E+00  1.15411448E+00  1.16843638E+00  1.19189623E+00  1.22299190E+00
  1.25035866E+00  1.34443948E+00  1.35940623E+00  1.37613294E+00  1.38764409E+00
  1.46952355E+00  1.48866083E+00  1.55702702E+00  1.56493668E+00  1.61146130E+00
  1.66336366E+00  1.66727213E+00  1.73121424E+00  1.74375184E+00  1.76940736E+00
  1.84449309E+00  1.85551905E+00  1.93491030E+00  2.02471594E+00  2.07912998E+00
  2.12345822E+00  2.13038987E+00  2.14383058E+00  2.19195597E+00  2.22713713E+00
  2.23397589E+00  2.28095749E+00  2.30166004E+00  2.38897539E+00  2.40592035E+00
  2.45910268E+00  2.49533441E+00  2.51263376E+00  2.56719369E+00  2.58819867E+00
  2.64726293E+00  2.71520480E+00  2.74971036E+00  2.78052916E+00  2.83324345E+00
  2.90859436E+00  2.93486750E+00  2.99839993E+00  3.00307459E+00  3.03422340E+00
  3.09302659E+00  3.13988730E+00  3.21519114E+00  3.32453454E+00  3.35792465E+00
  3.58140735E+00  3.77971055E+00  4.21237856E+00  4.38311449E+00  4.44193663E+00
  4.49972377E+00  4.65195992E+00  4.66607434E+00  4.92087050E+00  4.99901463E+00
Alpha MO coefficients                      R   N=       16900
  9.94684624E-01  2.09745013E-02 -1.26297055E-03  9.66026916E-04  6.75321789E-06
  4.64703404E-03  9.06332347E-06  3.57377309E-05  1.15256472E-07 -3.74834779E-03
 -3.80796823E-03 -4.11081583E-03 -1.78597174E-04 -1.56424353E-06  1.94191523E-06
 -1.51867444E-05 -5.01546358E-05 -4.65300711E-05 -8.09083409E-06 -6.02714288E-08
  2.97704415E-04  7.39463204E-05  1.43000618E-04  1.47669570E-06 -1.04128485E-04
  1.22245629E-05 -5.98997022E-05  4.86013038E-05  2.28667936E-07  8.58497286E-07
  6.81614874E-06  2.85689331E-05  1.97299320E-06  1.86453757E-06  6.06374299E-07
 -3.12144184E-04 -1.04329761E-04 -4.36080163E-05 -1.35608934E-05  8.44277619E-06
  1.41241898E-05  1.42569129E-05  1.44356099E-06 -5.94488587E-07  9.46910521E-07
 -1.54621353E-05 -5.87970145E-05 -1.54478433E-05  1.36915527E-05  9.99869177E-08
  3.59509237E-04 -1.13853167E-04 -1.56427383E-04 -1.32236975E-06 -1.84584438E-05
 -2.26261156E-05 -6.45154714E-05  1.11332916E-04  5.78277882E-07  3.14532671E-07
  7.42194894E-06  3.76529402E-05  2.57439771E-05 -9.60407972E-06  2.08710190E-07
 -3.22920168E-04 -4.01697826E-04 -3.35117646E-04 -9.41223114E-06  7.52624199E-06
  2.26253968E-05  1.37519679E-05 -2.68527209E-05  8.05620724E-07  7.64784534E-07
 -4.57900130E-06 -2.32482205E-05  2.89005808E-06 -9.16650150E-06  3.44971187E-08
  6.03576569E-04  2.82397867E-04 -2.22692393E-04  2.03014314E-06 -2.48158836E-06
 -5.87612170E-06 -4.14650486E-06 -1.60318924E-05  3.17432956E-07 -4.94951108E-07
 -7.23685816E-06  5.09719537E-04 -2.74565895E-05  1.06126815E-05  1.83332590E-07
 -7.37685460E-04 -4.39696388E-04  2.93905229E-04  2.07820993E-06 -4.96531483E-04
 -3.86554211E-04 -4.46780342E-05  4.62578195E-04  3.25784372E-06 -2.48015740E-06
  5.86496940E-06  4.74682429E-05  2.12498054E-05 -4.29715784E-06  7.66827554E-08
 -4.14325423E-04  9.72131851E-05  3.22458705E-04  1.53520943E-07  3.85435112E-05
 -3.25216659E-05  8.67652016E-06 -4.77147165E-06  5.37644260E-07 -4.56692674E-08
  5.25000754E-06 -1.71653744E-05  6.91096604E-06  9.13760738E-05 -6.96041174E-06
 -9.90683789E-05  7.47965528E-06 -9.77139931E-06  6.32647651E-06 -7.33219775E-07
 -1.73104913E-05 -1.18834228E-04  1.89121323E-05 -2.80513469E-05 -8.87363405E-07
  7.16850397E-04  7.53918878E-05  2.62435838E-04  4.95694493E-06 -1.13989139E-04
 -2.08666085E-05 -8.27443616E-05  2.07136296E-06 -6.27240311E-08  8.23073542E-07
  9.94980468E-01  2.54947129E-02 -2.91279496E-04  1.82757302E-04 -3.12067753E-05
 -4.89803290E-03  4.15245581E-04 -1.49457830E-03  4.49383893E-06 -3.40399399E-03
 -3.41478173E-03 -3.31196429E-03 -3.07641710E-05  2.88624271E-06 -1.63160951E-06
 -1.51820048E-03 -1.57656894E-04 -3.41542049E-05 -1.62567826E-05 -2.09143830E-06
  1.03727061E-03  1.26135725E-04  5.18920469E-04  4.13354093E-05 -6.86576314E-05
  1.62084646E-05 -8.47203042E-05  1.97664223E-05 -4.38569825E-06  2.12057745E-05
 -9.06653237E-05  7.05436938E-05 -2.22035001E-06  4.07476585E-05  5.51914157E-08
 -8.53385343E-04  5.50624047E-04  1.00993208E-04  5.03393808E-06  2.25065308E-05
  4.29040451E-05  2.81714698E-05 -5.04863799E-05 -6.18250078E-07 -4.17862179E-08
  2.42704369E-05  2.20131233E-04  1.46507651E-04 -9.35246304E-05  7.67532872E-07
  2.09669958E-03  2.62530720E-03 -4.28631980E-04  1.51248112E-05 -1.24254894E-04
 -1.14847783E-04 -6.69707936E-05  6.86289127E-05 -5.87926921E-06 -1.09044699E-06
  1.55625496E-05  4.58279316E-05  2.54812317E-05  4.43526129E-05 -2.80115173E-06
 -1.03557977E-03 -1.47497326E-03  1.98787655E-04  7.59274546E-06  2.71454809E-05
  2.15386984E-05  7.03311896E-06  4.18021782E-05 -1.86226425E-06  8.95298488E-07
  4.92324953E-06  1.36167064E-04 -2.53194393E-04 -8.91707220E-05 -1.00609767E-06
  1.42992726E-03 -1.51938732E-03  2.73061415E-04 -6.72229701E-06 -1.66688912E-05
 -6.93273168E-05 -7.23290747E-05 -3.38644378E-05  4.55489180E-07 -1.25090409E-06
  5.27455477E-06  1.39453326E-05  4.44400307E-06 -2.90645521E-05  2.27742724E-06
  1.32986386E-03 -3.36023016E-04 -2.85735478E-04 -6.17055523E-06  1.72004207E-05
  4.36323399E-06  4.49525994E-06  9.04714008E-06  3.00049419E-07  5.60980567E-07
  2.04243987E-04  9.08698338E-05 -8.47578351E-05 -3.98516470E-04 -2.69657163E-05
 -1.52260100E-06 -6.89850545E-05 -2.76000497E-05  6.02752765E-06  6.31370929E-05
 -5.80044541E-06 -2.44932834E-05 -1.18262879E-06  5.71433770E-06 -4.08440472E-07
  1.39478581E-04 -5.25097169E-05  3.94513870E-05  7.22194417E-07 -6.11433915E-06
 -9.27627015E-06 -2.28333756E-05 -1.66199029E-05 -5.74787716E-07 -1.60218950E-07
  1.46675134E-03 -1.08752351E-04  2.06634801E-05 -2.77773118E-05  2.36858865E-06
  1.18116358E-03 -5.31273912E-05  7.79562455E-04 -2.95019555E-05 -7.88710727E-05
 -4.12052654E-06 -1.10163287E-04 -3.77708901E-05  4.03129528E-06 -7.44916494E-06
  9.94979006E-01  2.52585757E-02  2.86723437E-04  3.35310350E-04  9.83102029E-04
 -3.81514980E-03 -9.93976543E-04 -8.14013959E-04 -7.15222690E-04 -3.45178355E-03
 -3.44868100E-03 -3.28421746E-03 -1.83678360E-05 -6.12106639E-06  2.97044839E-05
 -1.00166562E-06 -1.55306835E-05  5.97105490E-06  2.47236206E-06  1.69950187E-06
  7.40909137E-05  9.61298605E-07 -8.68086640E-05 -5.40139352E-06 -1.51434730E-05
  3.66463142E-06 -1.15987061E-05 -1.35346826E-07  2.83577071E-07  2.55936702E-07
  2.37284731E-05  3.26766849E-04 -1.11495374E-04 -6.16808474E-05 -1.27632748E-05
  9.50993687E-04 -2.73629804E-03 -1.07400964E-03  1.07321202E-04 -1.93113171E-04
 -1.05449796E-04 -6.10484778E-05 -5.86647332E-05 -8.46350152E-06 -1.03802600E-06
 -8.62144222E-06 -4.74419153E-05 -1.54247464E-06 -1.60398780E-05 -3.03087729E-06
  8.78342913E-04  1.11309904E-03 -2.91217361E-04 -4.15621570E-05 -7.27850931E-06
  1.46735517E-05 -3.76725428E-05 -7.88050870E-05  3.34400678E-07  8.62195323E-06
 -1.58445464E-05 -4.40810155E-05  3.47891584E-05  1.06586590E-05  1.65433717E-06
 -2.66036185E-04  7.96929484E-06 -4.37544052E-05  6.00381926E-06 -4.69974009E-05
 -2.98684494E-05 -2.86451687E-05  2.00403323E-05 -1.72440329E-06 -8.49309993E-07
 -8.79201788E-06 -2.99233757E-05  2.95253566E-05  3.46141828E-05  1.09708261E-06
 -5.53148515E-04  2.45670343E-04 -6.38192381E-05  8.08943517E-06 -2.33388099E-06
 -6.19520885E-06 -2.86697530E-05 -5.67920272E-06 -1.08332149E-06  7.07742045E-08
  4.62407862E-05  1.32009316E-04  5.51468481E-05  3.44767511E-04  2.23776526E-05
  9.41951769E-05  3.34085421E-04  3.82743439E-04  3.07865272E-04  3.28950516E-04
 -4.06392766E-05 -2.16635578E-04  2.05532877E-05 -6.36207512E-06  4.76074227E-08
  1.41138371E-03 -4.84950056E-04 -1.21555292E-04  5.37138446E-07  1.43086942E-05
 -2.21944606E-04 -1.61743884E-04  1.30374824E-05 -5.87512291E-07 -4.03038839E-07
  1.30568148E-04  1.84007718E-05 -7.37445009E-05 -1.21971359E-05 -8.12639528E-07
 -8.61743226E-04  3.19111007E-04 -8.77012999E-04 -7.33899934E-06  6.66828806E-05
  2.59651756E-05 -2.16802777E-05 -4.03425532E-05 -3.49899788E-07  3.77328751E-06
 -1.05561138E-05 -2.87106627E-05 -1.04796735E-05  7.58540189E-06 -1.47739376E-06
  3.71243075E-04  1.62808632E-04 -5.64349075E-05  2.43200726E-05 -6.73646089E-06
 -2.13343874E-05 -1.52488122E-05 -6.28414966E-06  4.92173669E-06 -8.07194122E-06
  9.95213046E-01  2.50433074E-02 -1.90190109E-03 -8.66748664E-04 -1.54323281E-05
 -6.38662893E-03  2.34685884E-03  1.74790887E-03  2.01682219E-05 -2.76151986E-03
 -2.78716009E-03 -3.07671704E-03 -1.61397367E-04  8.57637497E-07 -1.07042165E-06
  4.19054441E-07 -3.68698589E-06  2.32409054E-05 -1.57349447E-05 -7.25834634E-07
  1.71785490E-03  7.79228454E-04  8.15496609E-04  7.08727141E-06 -1.16088488E-05
  1.76516821E-05  1.87397783E-08  5.39254335E-06 -2.69098041E-08 -1.28905894E-06
  3.76087678E-05  1.70263288E-04 -4.69765142E-05 -1.97856217E-05 -6.30523719E-07