142_ENENMcarbamate Gaussian SP Calculation on node142.bme.utexas.edu    
Freq      RMP2-FC                                                     6-31G(d)            
Number of atoms                            I               22
Info1-9                                    I   N=           9
          33          32        1002           0           0         100
           6           2           1
Charge                                     I                0
Multiplicity                               I                1
Number of electrons                        I               72
Number of alpha electrons                  I               36
Number of beta electrons                   I               36
Number of basis functions                  I              161
Number of independent functions            I              161
Number of point charges in /Mol/           I                0
Number of translation vectors              I                0
Atomic numbers                             I   N=          22
           8           8           7           6           6           6
           6           6           6           1           1           1
           1           1           1           1           1           1
           1           1           1           1
Nuclear charges                            R   N=          22
  8.00000000E+00  8.00000000E+00  7.00000000E+00  6.00000000E+00  6.00000000E+00
  6.00000000E+00  6.00000000E+00  6.00000000E+00  6.00000000E+00  1.00000000E+00
  1.00000000E+00  1.00000000E+00  1.00000000E+00  1.00000000E+00  1.00000000E+00
  1.00000000E+00  1.00000000E+00  1.00000000E+00  1.00000000E+00  1.00000000E+00
  1.00000000E+00  1.00000000E+00
Current cartesian coordinates              R   N=          66
  1.79586636E+00  2.32014599E-01 -3.28212842E-01  3.15046919E-01 -3.69244688E+00
  7.15772009E-01 -2.37626953E+00 -5.26602175E-01 -6.26165314E-01 -2.71739775E+00
  2.16325002E+00 -1.13641811E+00 -2.84957372E+00  3.76277023E+00  1.25790185E+00
 -4.61448486E+00 -2.02777015E+00 -9.10588516E-02 -7.58558874E-02 -1.52230671E+00
 -1.46049052E-03  4.30167134E+00 -7.23736253E-01  1.88483166E-01  6.09575817E+00
  1.46454244E+00 -2.08078064E-01 -1.17195955E+00  2.79893320E+00 -2.34302836E+00
 -4.46953864E+00  2.33797437E+00 -2.22451729E+00 -4.38270976E+00  3.13161482E+00
  2.49112397E+00 -1.06851098E+00  3.62512578E+00  2.29091706E+00 -3.18183780E+00
  5.74907381E+00  7.85873092E-01 -5.56928186E+00 -1.39448587E+00  1.63570524E+00
 -4.03759508E+00 -3.98777678E+00  1.45738774E-01 -5.93492811E+00 -1.87949518E+00
 -1.67442282E+00  4.36509049E+00 -1.44480388E+00  2.12299851E+00  4.70094187E+00
 -2.29960731E+00 -1.08661221E+00  5.97595179E+00  2.15943032E+00 -2.14787244E+00
  5.64223255E+00  3.01551423E+00  1.07623359E+00  8.03802180E+00  8.57678510E-01
  1.54329715E-01
Force Field                                I                0
Int Atom Types                             I   N=          22
           0           0           0           0           0           0
           0           0           0           0           0           0
           0           0           0           0           0           0
           0           0           0           0
MM charges                                 R   N=          22
  0.00000000E+00  0.00000000E+00  0.00000000E+00  0.00000000E+00  0.00000000E+00
  0.00000000E+00  0.00000000E+00  0.00000000E+00  0.00000000E+00  0.00000000E+00
  0.00000000E+00  0.00000000E+00  0.00000000E+00  0.00000000E+00  0.00000000E+00
  0.00000000E+00  0.00000000E+00  0.00000000E+00  0.00000000E+00  0.00000000E+00
  0.00000000E+00  0.00000000E+00
Integer atomic weights                     I   N=          22
          16          16          14          12          12          12
          12          12          12           1           1           1
           1           1           1           1           1           1
           1           1           1           1
Real atomic weights                        R   N=          22
  1.59949146E+01  1.59949146E+01  1.40030740E+01  1.20000000E+01  1.20000000E+01
  1.20000000E+01  1.20000000E+01  1.20000000E+01  1.20000000E+01  1.00782504E+00
  1.00782504E+00  1.00782504E+00  1.00782504E+00  1.00782504E+00  1.00782504E+00
  1.00782504E+00  1.00782504E+00  1.00782504E+00  1.00782504E+00  1.00782504E+00
  1.00782504E+00  1.00782504E+00
Atom fragment info                         I   N=          22
           0           0           0           0           0           0
           0           0           0           0           0           0
           0           0           0           0           0           0
           0           0           0           0
Atom residue num                           I   N=          22
           0           0           0           0           0           0
           0           0           0           0           0           0
           0           0           0           0           0           0
           0           0           0           0
Nuclear spins                              I   N=          22
           0           0           2           0           0           0
           0           0           0           1           1           1
           1           1           1           1           1           1
           1           1           1           1
Nuclear ZEff                               R   N=          22
 -5.60000000E+00 -5.60000000E+00 -4.55000000E+00 -3.60000000E+00 -3.60000000E+00
 -3.60000000E+00 -3.60000000E+00 -3.60000000E+00 -3.60000000E+00 -1.00000000E+00
 -1.00000000E+00 -1.00000000E+00 -1.00000000E+00 -1.00000000E+00 -1.00000000E+00
 -1.00000000E+00 -1.00000000E+00 -1.00000000E+00 -1.00000000E+00 -1.00000000E+00
 -1.00000000E+00 -1.00000000E+00
Nuclear QMom                               R   N=          22
  0.00000000E+00  0.00000000E+00  2.04400000E+00  0.00000000E+00  0.00000000E+00
  0.00000000E+00  0.00000000E+00  0.00000000E+00  0.00000000E+00  0.00000000E+00
  0.00000000E+00  0.00000000E+00  0.00000000E+00  0.00000000E+00  0.00000000E+00
  0.00000000E+00  0.00000000E+00  0.00000000E+00  0.00000000E+00  0.00000000E+00
  0.00000000E+00  0.00000000E+00
Nuclear GFac                               R   N=          22
  0.00000000E+00  0.00000000E+00  4.03761000E-01  0.00000000E+00  0.00000000E+00
  0.00000000E+00  0.00000000E+00  0.00000000E+00  0.00000000E+00  2.79284600E+00
  2.79284600E+00  2.79284600E+00  2.79284600E+00  2.79284600E+00  2.79284600E+00
  2.79284600E+00  2.79284600E+00  2.79284600E+00  2.79284600E+00  2.79284600E+00
  2.79284600E+00  2.79284600E+00
MicOpt                                     I   N=          22
          -1          -1          -1          -1          -1          -1
          -1          -1          -1          -1          -1          -1
          -1          -1          -1          -1          -1          -1
          -1          -1          -1          -1
Number of contracted shells                I               62
Number of primitive shells                 I              151
Pure/Cartesian d shells                    I                1
Pure/Cartesian f shells                    I                0
Highest angular momentum                   I                2
Largest degree of contraction              I                6
Shell types                                I   N=          62
           0          -1          -1           2           0          -1
          -1           2           0          -1          -1           2
           0          -1          -1           2           0          -1
          -1           2           0          -1          -1           2
           0          -1          -1           2           0          -1
          -1           2           0          -1          -1           2
           0           0           0           0           0           0
           0           0           0           0           0           0
           0           0           0           0           0           0
           0           0           0           0           0           0
           0           0
Number of primitives per shell             I   N=          62
           6           3           1           1           6           3
           1           1           6           3           1           1
           6           3           1           1           6           3
           1           1           6           3           1           1
           6           3           1           1           6           3
           1           1           6           3           1           1
           3           1           3           1           3           1
           3           1           3           1           3           1
           3           1           3           1           3           1
           3           1           3           1           3           1
           3           1
Shell to atom map                          I   N=          62
           1           1           1           1           2           2
           2           2           3           3           3           3
           4           4           4           4           5           5
           5           5           6           6           6           6
           7           7           7           7           8           8
           8           8           9           9           9           9
          10          10          11          11          12          12
          13          13          14          14          15          15
          16          16          17          17          18          18
          19          19          20          20          21          21
          22          22
Primitive exponents                        R   N=         151
  5.48467166E+03  8.25234946E+02  1.88046958E+02  5.29645000E+01  1.68975704E+01
  5.79963534E+00  1.55396162E+01  3.59993359E+00  1.01376175E+00  2.70005823E-01
  8.00000000E-01  5.48467166E+03  8.25234946E+02  1.88046958E+02  5.29645000E+01
  1.68975704E+01  5.79963534E+00  1.55396162E+01  3.59993359E+00  1.01376175E+00
  2.70005823E-01  8.00000000E-01  4.17351146E+03  6.27457911E+02  1.42902093E+02
  4.02343293E+01  1.28202129E+01  4.39043701E+00  1.16263619E+01  2.71627981E+00
  7.72218397E-01  2.12031498E-01  8.00000000E-01  3.04752488E+03  4.57369518E+02
  1.03948685E+02  2.92101553E+01  9.28666296E+00  3.16392696E+00  7.86827235E+00
  1.88128854E+00  5.44249258E-01  1.68714478E-01  8.00000000E-01  3.04752488E+03
  4.57369518E+02  1.03948685E+02  2.92101553E+01  9.28666296E+00  3.16392696E+00
  7.86827235E+00  1.88128854E+00  5.44249258E-01  1.68714478E-01  8.00000000E-01
  3.04752488E+03  4.57369518E+02  1.03948685E+02  2.92101553E+01  9.28666296E+00
  3.16392696E+00  7.86827235E+00  1.88128854E+00  5.44249258E-01  1.68714478E-01
  8.00000000E-01  3.04752488E+03  4.57369518E+02  1.03948685E+02  2.92101553E+01
  9.28666296E+00  3.16392696E+00  7.86827235E+00  1.88128854E+00  5.44249258E-01
  1.68714478E-01  8.00000000E-01  3.04752488E+03  4.57369518E+02  1.03948685E+02
  2.92101553E+01  9.28666296E+00  3.16392696E+00  7.86827235E+00  1.88128854E+00
  5.44249258E-01  1.68714478E-01  8.00000000E-01  3.04752488E+03  4.57369518E+02
  1.03948685E+02  2.92101553E+01  9.28666296E+00  3.16392696E+00  7.86827235E+00
  1.88128854E+00  5.44249258E-01  1.68714478E-01  8.00000000E-01  1.87311370E+01
  2.82539436E+00  6.40121692E-01  1.61277759E-01  1.87311370E+01  2.82539436E+00
  6.40121692E-01  1.61277759E-01  1.87311370E+01  2.82539436E+00  6.40121692E-01
  1.61277759E-01  1.87311370E+01  2.82539436E+00  6.40121692E-01  1.61277759E-01
  1.87311370E+01  2.82539436E+00  6.40121692E-01  1.61277759E-01  1.87311370E+01
  2.82539436E+00  6.40121692E-01  1.61277759E-01  1.87311370E+01  2.82539436E+00
  6.40121692E-01  1.61277759E-01  1.87311370E+01  2.82539436E+00  6.40121692E-01
  1.61277759E-01  1.87311370E+01  2.82539436E+00  6.40121692E-01  1.61277759E-01
  1.87311370E+01  2.82539436E+00  6.40121692E-01  1.61277759E-01  1.87311370E+01
  2.82539436E+00  6.40121692E-01  1.61277759E-01  1.87311370E+01  2.82539436E+00
  6.40121692E-01  1.61277759E-01  1.87311370E+01  2.82539436E+00  6.40121692E-01
  1.61277759E-01
Contraction coefficients                   R   N=         151
  1.83107443E-03  1.39501722E-02  6.84450781E-02  2.32714336E-01  4.70192898E-01
  3.58520853E-01 -1.10777550E-01 -1.48026263E-01  1.13076702E+00  1.00000000E+00
  1.00000000E+00  1.83107443E-03  1.39501722E-02  6.84450781E-02  2.32714336E-01
  4.70192898E-01  3.58520853E-01 -1.10777550E-01 -1.48026263E-01  1.13076702E+00
  1.00000000E+00  1.00000000E+00  1.83477216E-03  1.39946270E-02  6.85865518E-02
  2.32240873E-01  4.69069948E-01  3.60455199E-01 -1.14961182E-01 -1.69117479E-01
  1.14585195E+00  1.00000000E+00  1.00000000E+00  1.83473713E-03  1.40373228E-02
  6.88426223E-02  2.32184443E-01  4.67941348E-01  3.62311985E-01 -1.19332420E-01
 -1.60854152E-01  1.14345644E+00  1.00000000E+00  1.00000000E+00  1.83473713E-03
  1.40373228E-02  6.88426223E-02  2.32184443E-01  4.67941348E-01  3.62311985E-01
 -1.19332420E-01 -1.60854152E-01  1.14345644E+00  1.00000000E+00  1.00000000E+00
  1.83473713E-03  1.40373228E-02  6.88426223E-02  2.32184443E-01  4.67941348E-01
  3.62311985E-01 -1.19332420E-01 -1.60854152E-01  1.14345644E+00  1.00000000E+00
  1.00000000E+00  1.83473713E-03  1.40373228E-02  6.88426223E-02  2.32184443E-01
  4.67941348E-01  3.62311985E-01 -1.19332420E-01 -1.60854152E-01  1.14345644E+00
  1.00000000E+00  1.00000000E+00  1.83473713E-03  1.40373228E-02  6.88426223E-02
  2.32184443E-01  4.67941348E-01  3.62311985E-01 -1.19332420E-01 -1.60854152E-01
  1.14345644E+00  1.00000000E+00  1.00000000E+00  1.83473713E-03  1.40373228E-02
  6.88426223E-02  2.32184443E-01  4.67941348E-01  3.62311985E-01 -1.19332420E-01
 -1.60854152E-01  1.14345644E+00  1.00000000E+00  1.00000000E+00  3.34946043E-02
  2.34726953E-01  8.13757326E-01  1.00000000E+00  3.34946043E-02  2.34726953E-01
  8.13757326E-01  1.00000000E+00  3.34946043E-02  2.34726953E-01  8.13757326E-01
  1.00000000E+00  3.34946043E-02  2.34726953E-01  8.13757326E-01  1.00000000E+00
  3.34946043E-02  2.34726953E-01  8.13757326E-01  1.00000000E+00  3.34946043E-02
  2.34726953E-01  8.13757326E-01  1.00000000E+00  3.34946043E-02  2.34726953E-01
  8.13757326E-01  1.00000000E+00  3.34946043E-02  2.34726953E-01  8.13757326E-01
  1.00000000E+00  3.34946043E-02  2.34726953E-01  8.13757326E-01  1.00000000E+00
  3.34946043E-02  2.34726953E-01  8.13757326E-01  1.00000000E+00  3.34946043E-02
  2.34726953E-01  8.13757326E-01  1.00000000E+00  3.34946043E-02  2.34726953E-01
  8.13757326E-01  1.00000000E+00  3.34946043E-02  2.34726953E-01  8.13757326E-01
  1.00000000E+00
P(S=P) Contraction coefficients            R   N=         151
  0.00000000E+00  0.00000000E+00  0.00000000E+00  0.00000000E+00  0.00000000E+00
  0.00000000E+00  7.08742682E-02  3.39752839E-01  7.27158577E-01  1.00000000E+00
  0.00000000E+00  0.00000000E+00  0.00000000E+00  0.00000000E+00  0.00000000E+00
  0.00000000E+00  0.00000000E+00  7.08742682E-02  3.39752839E-01  7.27158577E-01
  1.00000000E+00  0.00000000E+00  0.00000000E+00  0.00000000E+00  0.00000000E+00
  0.00000000E+00  0.00000000E+00  0.00000000E+00  6.75797439E-02  3.23907296E-01
  7.40895140E-01  1.00000000E+00  0.00000000E+00  0.00000000E+00  0.00000000E+00
  0.00000000E+00  0.00000000E+00  0.00000000E+00  0.00000000E+00  6.89990666E-02
  3.16423961E-01  7.44308291E-01  1.00000000E+00  0.00000000E+00  0.00000000E+00
  0.00000000E+00  0.00000000E+00  0.00000000E+00  0.00000000E+00  0.00000000E+00
  6.89990666E-02  3.16423961E-01  7.44308291E-01  1.00000000E+00  0.00000000E+00
  0.00000000E+00  0.00000000E+00  0.00000000E+00  0.00000000E+00  0.00000000E+00
  0.00000000E+00  6.89990666E-02  3.16423961E-01  7.44308291E-01  1.00000000E+00
  0.00000000E+00  0.00000000E+00  0.00000000E+00  0.00000000E+00  0.00000000E+00
  0.00000000E+00  0.00000000E+00  6.89990666E-02  3.16423961E-01  7.44308291E-01
  1.00000000E+00  0.00000000E+00  0.00000000E+00  0.00000000E+00  0.00000000E+00
  0.00000000E+00  0.00000000E+00  0.00000000E+00  6.89990666E-02  3.16423961E-01
  7.44308291E-01  1.00000000E+00  0.00000000E+00  0.00000000E+00  0.00000000E+00
  0.00000000E+00  0.00000000E+00  0.00000000E+00  0.00000000E+00  6.89990666E-02
  3.16423961E-01  7.44308291E-01  1.00000000E+00  0.00000000E+00  0.00000000E+00
  0.00000000E+00  0.00000000E+00  0.00000000E+00  0.00000000E+00  0.00000000E+00
  0.00000000E+00  0.00000000E+00  0.00000000E+00  0.00000000E+00  0.00000000E+00
  0.00000000E+00  0.00000000E+00  0.00000000E+00  0.00000000E+00  0.00000000E+00
  0.00000000E+00  0.00000000E+00  0.00000000E+00  0.00000000E+00  0.00000000E+00
  0.00000000E+00  0.00000000E+00  0.00000000E+00  0.00000000E+00  0.00000000E+00
  0.00000000E+00  0.00000000E+00  0.00000000E+00  0.00000000E+00  0.00000000E+00
  0.00000000E+00  0.00000000E+00  0.00000000E+00  0.00000000E+00  0.00000000E+00
  0.00000000E+00  0.00000000E+00  0.00000000E+00  0.00000000E+00  0.00000000E+00
  0.00000000E+00  0.00000000E+00  0.00000000E+00  0.00000000E+00  0.00000000E+00
  0.00000000E+00  0.00000000E+00  0.00000000E+00  0.00000000E+00  0.00000000E+00
  0.00000000E+00
Coordinates of each shell                  R   N=         186
  1.79586636E+00  2.32014599E-01 -3.28212842E-01  1.79586636E+00  2.32014599E-01
 -3.28212842E-01  1.79586636E+00  2.32014599E-01 -3.28212842E-01  1.79586636E+00
  2.32014599E-01 -3.28212842E-01  3.15046919E-01 -3.69244688E+00  7.15772009E-01
  3.15046919E-01 -3.69244688E+00  7.15772009E-01  3.15046919E-01 -3.69244688E+00
  7.15772009E-01  3.15046919E-01 -3.69244688E+00  7.15772009E-01 -2.37626953E+00
 -5.26602175E-01 -6.26165314E-01 -2.37626953E+00 -5.26602175E-01 -6.26165314E-01
 -2.37626953E+00 -5.26602175E-01 -6.26165314E-01 -2.37626953E+00 -5.26602175E-01
 -6.26165314E-01 -2.71739775E+00  2.16325002E+00 -1.13641811E+00 -2.71739775E+00
  2.16325002E+00 -1.13641811E+00 -2.71739775E+00  2.16325002E+00 -1.13641811E+00
 -2.71739775E+00  2.16325002E+00 -1.13641811E+00 -2.84957372E+00  3.76277023E+00
  1.25790185E+00 -2.84957372E+00  3.76277023E+00  1.25790185E+00 -2.84957372E+00
  3.76277023E+00  1.25790185E+00 -2.84957372E+00  3.76277023E+00  1.25790185E+00
 -4.61448486E+00 -2.02777015E+00 -9.10588516E-02 -4.61448486E+00 -2.02777015E+00
 -9.10588516E-02 -4.61448486E+00 -2.02777015E+00 -9.10588516E-02 -4.61448486E+00
 -2.02777015E+00 -9.10588516E-02 -7.58558874E-02 -1.52230671E+00 -1.46049052E-03
 -7.58558874E-02 -1.52230671E+00 -1.46049052E-03 -7.58558874E-02 -1.52230671E+00
 -1.46049052E-03 -7.58558874E-02 -1.52230671E+00 -1.46049052E-03  4.30167134E+00
 -7.23736253E-01  1.88483166E-01  4.30167134E+00 -7.23736253E-01  1.88483166E-01
  4.30167134E+00 -7.23736253E-01  1.88483166E-01  4.30167134E+00 -7.23736253E-01
  1.88483166E-01  6.09575817E+00  1.46454244E+00 -2.08078064E-01  6.09575817E+00
  1.46454244E+00 -2.08078064E-01  6.09575817E+00  1.46454244E+00 -2.08078064E-01
  6.09575817E+00  1.46454244E+00 -2.08078064E-01 -1.17195955E+00  2.79893320E+00
 -2.34302836E+00 -1.17195955E+00  2.79893320E+00 -2.34302836E+00 -4.46953864E+00
  2.33797437E+00 -2.22451729E+00 -4.46953864E+00  2.33797437E+00 -2.22451729E+00
 -4.38270976E+00  3.13161482E+00  2.49112397E+00 -4.38270976E+00  3.13161482E+00
  2.49112397E+00 -1.06851098E+00  3.62512578E+00  2.29091706E+00 -1.06851098E+00
  3.62512578E+00  2.29091706E+00 -3.18183780E+00  5.74907381E+00  7.85873092E-01
 -3.18183780E+00  5.74907381E+00  7.85873092E-01 -5.56928186E+00 -1.39448587E+00
  1.63570524E+00 -5.56928186E+00 -1.39448587E+00  1.63570524E+00 -4.03759508E+00
 -3.98777678E+00  1.45738774E-01 -4.03759508E+00 -3.98777678E+00  1.45738774E-01
 -5.93492811E+00 -1.87949518E+00 -1.67442282E+00 -5.93492811E+00 -1.87949518E+00
 -1.67442282E+00  4.36509049E+00 -1.44480388E+00  2.12299851E+00  4.36509049E+00
 -1.44480388E+00  2.12299851E+00  4.70094187E+00 -2.29960731E+00 -1.08661221E+00
  4.70094187E+00 -2.29960731E+00 -1.08661221E+00  5.97595179E+00  2.15943032E+00
 -2.14787244E+00  5.97595179E+00  2.15943032E+00 -2.14787244E+00  5.64223255E+00
  3.01551423E+00  1.07623359E+00  5.64223255E+00  3.01551423E+00  1.07623359E+00
  8.03802180E+00  8.57678510E-01  1.54329715E-01  8.03802180E+00  8.57678510E-01
  1.54329715E-01
Constraint Structure                       R   N=          66
  1.79586636E+00  2.32014599E-01 -3.28212842E-01  3.15046919E-01 -3.69244688E+00
  7.15772009E-01 -2.37626953E+00 -5.26602175E-01 -6.26165314E-01 -2.71739775E+00
  2.16325002E+00 -1.13641811E+00 -2.84957372E+00  3.76277023E+00  1.25790185E+00
 -4.61448486E+00 -2.02777015E+00 -9.10588516E-02 -7.58558874E-02 -1.52230671E+00
 -1.46049052E-03  4.30167134E+00 -7.23736253E-01  1.88483166E-01  6.09575817E+00
  1.46454244E+00 -2.08078064E-01 -1.17195955E+00  2.79893320E+00 -2.34302836E+00
 -4.46953864E+00  2.33797437E+00 -2.22451729E+00 -4.38270976E+00  3.13161482E+00
  2.49112397E+00 -1.06851098E+00  3.62512578E+00  2.29091706E+00 -3.18183780E+00
  5.74907381E+00  7.85873092E-01 -5.56928186E+00 -1.39448587E+00  1.63570524E+00
 -4.03759508E+00 -3.98777678E+00  1.45738774E-01 -5.93492811E+00 -1.87949518E+00
 -1.67442282E+00  4.36509049E+00 -1.44480388E+00  2.12299851E+00  4.70094187E+00
 -2.29960731E+00 -1.08661221E+00  5.97595179E+00  2.15943032E+00 -2.14787244E+00
  5.64223255E+00  3.01551423E+00  1.07623359E+00  8.03802180E+00  8.57678510E-01
  1.54329715E-01
Num ILSW                                   I              100
ILSW                                       I   N=         100
           0           1           0           0           2           0
           0           0           0           0           0          -1
           0           0           0           0           0           0
           0           0           0           0           1           0
           1           0           0           0           0           0
           0           0      100000           0          -1           0
           0           0           0           0           0           0
           0           0           0           1           1           0
           0           0           1           0           0           0
           0           0           4          40           0           0
           0           0           0           0           0           0
           0           0           0           0           0           0
           0           0           0           0           0           0
           0           0           0           0           0           0
           0           0           0           0           0           0
           0           0           0           0           0           0
           0           0           0           0
Num RLSW                                   I               40
RLSW                                       R   N=          40
  1.00000000E+00  1.00000000E+00  1.00000000E+00  1.00000000E+00  1.00000000E+00
  0.00000000E+00  0.00000000E+00  1.00000000E+00  0.00000000E+00  0.00000000E+00
  0.00000000E+00  0.00000000E+00  1.00000000E+00  0.00000000E+00  0.00000000E+00
  0.00000000E+00  0.00000000E+00  1.00000000E+00  0.00000000E+00  0.00000000E+00
  0.00000000E+00  0.00000000E+00  1.00000000E+00  0.00000000E+00  0.00000000E+00
  0.00000000E+00  0.00000000E+00  1.00000000E+00  0.00000000E+00  0.00000000E+00
  0.00000000E+00  0.00000000E+00  0.00000000E+00  0.00000000E+00  0.00000000E+00
  0.00000000E+00  0.00000000E+00  0.00000000E+00  1.00000000E+00  1.00000000E+00
MxBond                                     I                4
NBond                                      I   N=          22
           2           1           3           4           4           4
           3           4           4           1           1           1
           1           1           1           1           1           1
           1           1           1           1
IBond                                      I   N=          88
           7           8           0           0           7           0
           0           0           4           6           7           0
           3           5          10          11           4          12
          13          14           3          15          16          17
           1           2           3           0           1           9
          18          19           8          20          21          22
           4           0           0           0           4           0
           0           0           5           0           0           0
           5           0           0           0           5           0
           0           0           6           0           0           0
           6           0           0           0           6           0
           0           0           8           0           0           0
           8           0           0           0           9           0
           0           0           9           0           0           0
           9           0           0           0
RBond                                      R   N=          88
  1.50000000E+00  1.00000000E+00  0.00000000E+00  0.00000000E+00  2.00000000E+00
  0.00000000E+00  0.00000000E+00  0.00000000E+00  1.00000000E+00  1.00000000E+00
  1.00000000E+00  0.00000000E+00  1.00000000E+00  1.00000000E+00  1.00000000E+00
  1.00000000E+00  1.00000000E+00  1.00000000E+00  1.00000000E+00  1.00000000E+00
  1.00000000E+00  1.00000000E+00  1.00000000E+00  1.00000000E+00  1.50000000E+00
  2.00000000E+00  1.00000000E+00  0.00000000E+00  1.00000000E+00  1.00000000E+00
  1.00000000E+00  1.00000000E+00  1.00000000E+00  1.00000000E+00  1.00000000E+00
  1.00000000E+00  1.00000000E+00  0.00000000E+00  0.00000000E+00  0.00000000E+00
  1.00000000E+00  0.00000000E+00  0.00000000E+00  0.00000000E+00  1.00000000E+00
  0.00000000E+00  0.00000000E+00  0.00000000E+00  1.00000000E+00  0.00000000E+00
  0.00000000E+00  0.00000000E+00  1.00000000E+00  0.00000000E+00  0.00000000E+00
  0.00000000E+00  1.00000000E+00  0.00000000E+00  0.00000000E+00  0.00000000E+00
  1.00000000E+00  0.00000000E+00  0.00000000E+00  0.00000000E+00  1.00000000E+00
  0.00000000E+00  0.00000000E+00  0.00000000E+00  1.00000000E+00  0.00000000E+00
  0.00000000E+00  0.00000000E+00  1.00000000E+00  0.00000000E+00  0.00000000E+00
  0.00000000E+00  1.00000000E+00  0.00000000E+00  0.00000000E+00  0.00000000E+00
  1.00000000E+00  0.00000000E+00  0.00000000E+00  0.00000000E+00  1.00000000E+00
  0.00000000E+00  0.00000000E+00  0.00000000E+00
Virial Ratio                               R      2.002437124000941E+00
SCF Energy                                 R     -4.389734605913766E+02
MP2 Energy                                 R     -4.402706957641795E+02
Total Energy                               R     -4.402706957641795E+02
Post-SCF wavefunction norm                 R      1.675573971322802E+00
RMS Force                                  R      2.643630375125700E-07
RMS Density                                R      2.437276575559922E-09
External E-field                           R   N=          35
  0.00000000E+00  0.00000000E+00  0.00000000E+00  0.00000000E+00  0.00000000E+00
  0.00000000E+00  0.00000000E+00  0.00000000E+00  0.00000000E+00  0.00000000E+00
  0.00000000E+00  0.00000000E+00  0.00000000E+00  0.00000000E+00  0.00000000E+00
  0.00000000E+00  0.00000000E+00  0.00000000E+00  0.00000000E+00  0.00000000E+00
  0.00000000E+00  0.00000000E+00  0.00000000E+00  0.00000000E+00  0.00000000E+00
  0.00000000E+00  0.00000000E+00  0.00000000E+00  0.00000000E+00  0.00000000E+00
  0.00000000E+00  0.00000000E+00  0.00000000E+00  0.00000000E+00  0.00000000E+00
IOpCl                                      I                0
IROHF                                      I                0
Alpha Orbital Energies                     R   N=         161
 -2.05998417E+01 -2.05238063E+01 -1.55870472E+01 -1.13973184E+01 -1.12845529E+01
 -1.12653615E+01 -1.12547190E+01 -1.12233211E+01 -1.12202712E+01 -1.44659103E+00
 -1.33690168E+00 -1.24636940E+00 -1.03683600E+00 -1.02431094E+00 -9.46390788E-01
 -8.76640999E-01 -8.42450818E-01 -7.59767562E-01 -7.11161774E-01 -6.80355984E-01
 -6.69532412E-01 -6.33392982E-01 -6.11414286E-01 -5.93618120E-01 -5.77966916E-01
 -5.66359294E-01 -5.59357010E-01 -5.40161260E-01 -5.34713092E-01 -5.20039741E-01
 -5.07267056E-01 -5.05360512E-01 -4.94394848E-01 -4.51240007E-01 -4.36754832E-01
 -3.69721045E-01  2.25793038E-01  2.29508460E-01  2.41556197E-01  2.72845043E-01
  2.85302262E-01  2.93701670E-01  2.97121697E-01  3.05197093E-01  3.08279681E-01
  3.18337854E-01  3.28713089E-01  3.41599330E-01  3.50444955E-01  3.53366087E-01
  3.72512671E-01  3.78764197E-01  3.99456885E-01  4.18297527E-01  4.33052941E-01
  4.74464911E-01  5.55515416E-01  6.21482670E-01  6.91447716E-01  7.00297822E-01
  7.25662118E-01  7.40091152E-01  7.42012059E-01  7.45645220E-01  7.76159128E-01
  7.86935831E-01  8.09997275E-01  8.27267409E-01  8.53330983E-01  8.97092332E-01
  9.11346847E-01  9.31778787E-01  9.44649371E-01  9.60950142E-01  9.97604843E-01
  1.00648665E+00  1.04680853E+00  1.09735816E+00  1.11436855E+00  1.12304499E+00
  1.12489276E+00  1.14768011E+00  1.15111594E+00  1.16089076E+00  1.17175172E+00
  1.18309891E+00  1.18538597E+00  1.20035818E+00  1.20523213E+00  1.22510504E+00
  1.23321790E+00  1.24304225E+00  1.26115521E+00  1.29985551E+00  1.32935732E+00
  1.33698637E+00  1.40335922E+00  1.42826769E+00  1.46664670E+00  1.49349420E+00
  1.56982308E+00  1.59741415E+00  1.64021967E+00  1.66952715E+00  1.69673952E+00
  1.71501351E+00  1.72586268E+00  1.77399758E+00  1.85609024E+00  1.94878081E+00
  1.95678915E+00  2.03590009E+00  2.05706823E+00  2.08421240E+00  2.09848046E+00
  2.11777590E+00  2.18061963E+00  2.20020983E+00  2.20944618E+00  2.21561211E+00