26107                                                                   
Freq      RMP2-FC                                                     6-31G(d)            
Number of atoms                            I               17
Info1-9                                    I   N=           9
          29          27        1002           0           0         100
           6           2           1
Charge                                     I                0
Multiplicity                               I                1
Number of electrons                        I               50
Number of alpha electrons                  I               25
Number of beta electrons                   I               25
Number of basis functions                  I              112
Number of independent functions            I              112
Number of point charges in /Mol/           I                0
Number of translation vectors              I                0
Atomic numbers                             I   N=          17
           8           7           6           6           6           6
           1           1           1           1           1           1
           1           1           1           1           1
Nuclear charges                            R   N=          17
  8.00000000E+00  7.00000000E+00  6.00000000E+00  6.00000000E+00  6.00000000E+00
  6.00000000E+00  1.00000000E+00  1.00000000E+00  1.00000000E+00  1.00000000E+00
  1.00000000E+00  1.00000000E+00  1.00000000E+00  1.00000000E+00  1.00000000E+00
  1.00000000E+00  1.00000000E+00
Current cartesian coordinates              R   N=          51
  1.03773555E+00  3.14781894E+00 -1.57842472E-01 -4.30294373E+00 -1.55893642E+00
 -1.97314937E-01 -4.36622192E-02  6.90693174E-01 -5.31867026E-01  1.57084384E+00
 -1.35082566E+00  7.04206835E-01 -2.79773076E+00  6.88815374E-01  3.63665244E-01
  4.28091370E+00 -1.37751513E+00 -2.77172674E-01 -1.30359575E-02  4.28614292E-01
 -2.59015473E+00  1.55794956E+00 -1.03025881E+00  2.75836728E+00  6.90881219E-01
 -3.20138156E+00  3.95037903E-01 -2.82633161E+00  9.76623876E-01  2.42010460E+00
 -3.73379851E+00  2.32903858E+00 -4.81125625E-01  5.41284738E+00 -2.81218837E+00
  6.87984538E-01  5.16629760E+00  4.63527203E-01  6.15982348E-03  4.31713279E+00
 -1.79223440E+00 -2.30281934E+00 -3.52957457E+00 -3.11047496E+00  6.35080688E-01
 -4.29897821E+00 -1.89017749E+00 -2.09424010E+00  1.01314462E+00  3.46190843E+00
  1.65655501E+00
Force Field                                I                0
Int Atom Types                             I   N=          17
           0           0           0           0           0           0
           0           0           0           0           0           0
           0           0           0           0           0
MM charges                                 R   N=          17
  0.00000000E+00  0.00000000E+00  0.00000000E+00  0.00000000E+00  0.00000000E+00
  0.00000000E+00  0.00000000E+00  0.00000000E+00  0.00000000E+00  0.00000000E+00
  0.00000000E+00  0.00000000E+00  0.00000000E+00  0.00000000E+00  0.00000000E+00
  0.00000000E+00  0.00000000E+00
Integer atomic weights                     I   N=          17
          16          14          12          12          12          12
           1           1           1           1           1           1
           1           1           1           1           1
Real atomic weights                        R   N=          17
  1.59949146E+01  1.40030740E+01  1.20000000E+01  1.20000000E+01  1.20000000E+01
  1.20000000E+01  1.00782504E+00  1.00782504E+00  1.00782504E+00  1.00782504E+00
  1.00782504E+00  1.00782504E+00  1.00782504E+00  1.00782504E+00  1.00782504E+00
  1.00782504E+00  1.00782504E+00
Atom fragment info                         I   N=          17
           0           0           0           0           0           0
           0           0           0           0           0           0
           0           0           0           0           0
Atom residue num                           I   N=          17
           0           0           0           0           0           0
           0           0           0           0           0           0
           0           0           0           0           0
Nuclear spins                              I   N=          17
           0           2           0           0           0           0
           1           1           1           1           1           1
           1           1           1           1           1
Nuclear ZEff                               R   N=          17
 -5.60000000E+00 -4.55000000E+00 -3.60000000E+00 -3.60000000E+00 -3.60000000E+00
 -3.60000000E+00 -1.00000000E+00 -1.00000000E+00 -1.00000000E+00 -1.00000000E+00
 -1.00000000E+00 -1.00000000E+00 -1.00000000E+00 -1.00000000E+00 -1.00000000E+00
 -1.00000000E+00 -1.00000000E+00
Nuclear QMom                               R   N=          17
  0.00000000E+00  2.04400000E+00  0.00000000E+00  0.00000000E+00  0.00000000E+00
  0.00000000E+00  0.00000000E+00  0.00000000E+00  0.00000000E+00  0.00000000E+00
  0.00000000E+00  0.00000000E+00  0.00000000E+00  0.00000000E+00  0.00000000E+00
  0.00000000E+00  0.00000000E+00
Nuclear GFac                               R   N=          17
  0.00000000E+00  4.03761000E-01  0.00000000E+00  0.00000000E+00  0.00000000E+00
  0.00000000E+00  2.79284600E+00  2.79284600E+00  2.79284600E+00  2.79284600E+00
  2.79284600E+00  2.79284600E+00  2.79284600E+00  2.79284600E+00  2.79284600E+00
  2.79284600E+00  2.79284600E+00
MicOpt                                     I   N=          17
          -1          -1          -1          -1          -1          -1
          -1          -1          -1          -1          -1          -1
          -1          -1          -1          -1          -1
Number of contracted shells                I               46
Number of primitive shells                 I              110
Pure/Cartesian d shells                    I                1
Pure/Cartesian f shells                    I                0
Highest angular momentum                   I                2
Largest degree of contraction              I                6
Shell types                                I   N=          46
           0          -1          -1           2           0          -1
          -1           2           0          -1          -1           2
           0          -1          -1           2           0          -1
          -1           2           0          -1          -1           2
           0           0           0           0           0           0
           0           0           0           0           0           0
           0           0           0           0           0           0
           0           0           0           0
Number of primitives per shell             I   N=          46
           6           3           1           1           6           3
           1           1           6           3           1           1
           6           3           1           1           6           3
           1           1           6           3           1           1
           3           1           3           1           3           1
           3           1           3           1           3           1
           3           1           3           1           3           1
           3           1           3           1
Shell to atom map                          I   N=          46
           1           1           1           1           2           2
           2           2           3           3           3           3
           4           4           4           4           5           5
           5           5           6           6           6           6
           7           7           8           8           9           9
          10          10          11          11          12          12
          13          13          14          14          15          15
          16          16          17          17
Primitive exponents                        R   N=         110
  5.48467166E+03  8.25234946E+02  1.88046958E+02  5.29645000E+01  1.68975704E+01
  5.79963534E+00  1.55396162E+01  3.59993359E+00  1.01376175E+00  2.70005823E-01
  8.00000000E-01  4.17351146E+03  6.27457911E+02  1.42902093E+02  4.02343293E+01
  1.28202129E+01  4.39043701E+00  1.16263619E+01  2.71627981E+00  7.72218397E-01
  2.12031498E-01  8.00000000E-01  3.04752488E+03  4.57369518E+02  1.03948685E+02
  2.92101553E+01  9.28666296E+00  3.16392696E+00  7.86827235E+00  1.88128854E+00
  5.44249258E-01  1.68714478E-01  8.00000000E-01  3.04752488E+03  4.57369518E+02
  1.03948685E+02  2.92101553E+01  9.28666296E+00  3.16392696E+00  7.86827235E+00
  1.88128854E+00  5.44249258E-01  1.68714478E-01  8.00000000E-01  3.04752488E+03
  4.57369518E+02  1.03948685E+02  2.92101553E+01  9.28666296E+00  3.16392696E+00
  7.86827235E+00  1.88128854E+00  5.44249258E-01  1.68714478E-01  8.00000000E-01
  3.04752488E+03  4.57369518E+02  1.03948685E+02  2.92101553E+01  9.28666296E+00
  3.16392696E+00  7.86827235E+00  1.88128854E+00  5.44249258E-01  1.68714478E-01
  8.00000000E-01  1.87311370E+01  2.82539436E+00  6.40121692E-01  1.61277759E-01
  1.87311370E+01  2.82539436E+00  6.40121692E-01  1.61277759E-01  1.87311370E+01
  2.82539436E+00  6.40121692E-01  1.61277759E-01  1.87311370E+01  2.82539436E+00
  6.40121692E-01  1.61277759E-01  1.87311370E+01  2.82539436E+00  6.40121692E-01
  1.61277759E-01  1.87311370E+01  2.82539436E+00  6.40121692E-01  1.61277759E-01
  1.87311370E+01  2.82539436E+00  6.40121692E-01  1.61277759E-01  1.87311370E+01
  2.82539436E+00  6.40121692E-01  1.61277759E-01  1.87311370E+01  2.82539436E+00
  6.40121692E-01  1.61277759E-01  1.87311370E+01  2.82539436E+00  6.40121692E-01
  1.61277759E-01  1.87311370E+01  2.82539436E+00  6.40121692E-01  1.61277759E-01
Contraction coefficients                   R   N=         110
  1.83107443E-03  1.39501722E-02  6.84450781E-02  2.32714336E-01  4.70192898E-01
  3.58520853E-01 -1.10777550E-01 -1.48026263E-01  1.13076702E+00  1.00000000E+00
  1.00000000E+00  1.83477216E-03  1.39946270E-02  6.85865518E-02  2.32240873E-01
  4.69069948E-01  3.60455199E-01 -1.14961182E-01 -1.69117479E-01  1.14585195E+00
  1.00000000E+00  1.00000000E+00  1.83473713E-03  1.40373228E-02  6.88426223E-02
  2.32184443E-01  4.67941348E-01  3.62311985E-01 -1.19332420E-01 -1.60854152E-01
  1.14345644E+00  1.00000000E+00  1.00000000E+00  1.83473713E-03  1.40373228E-02
  6.88426223E-02  2.32184443E-01  4.67941348E-01  3.62311985E-01 -1.19332420E-01
 -1.60854152E-01  1.14345644E+00  1.00000000E+00  1.00000000E+00  1.83473713E-03
  1.40373228E-02  6.88426223E-02  2.32184443E-01  4.67941348E-01  3.62311985E-01
 -1.19332420E-01 -1.60854152E-01  1.14345644E+00  1.00000000E+00  1.00000000E+00
  1.83473713E-03  1.40373228E-02  6.88426223E-02  2.32184443E-01  4.67941348E-01
  3.62311985E-01 -1.19332420E-01 -1.60854152E-01  1.14345644E+00  1.00000000E+00
  1.00000000E+00  3.34946043E-02  2.34726953E-01  8.13757326E-01  1.00000000E+00
  3.34946043E-02  2.34726953E-01  8.13757326E-01  1.00000000E+00  3.34946043E-02
  2.34726953E-01  8.13757326E-01  1.00000000E+00  3.34946043E-02  2.34726953E-01
  8.13757326E-01  1.00000000E+00  3.34946043E-02  2.34726953E-01  8.13757326E-01
  1.00000000E+00  3.34946043E-02  2.34726953E-01  8.13757326E-01  1.00000000E+00
  3.34946043E-02  2.34726953E-01  8.13757326E-01  1.00000000E+00  3.34946043E-02
  2.34726953E-01  8.13757326E-01  1.00000000E+00  3.34946043E-02  2.34726953E-01
  8.13757326E-01  1.00000000E+00  3.34946043E-02  2.34726953E-01  8.13757326E-01
  1.00000000E+00  3.34946043E-02  2.34726953E-01  8.13757326E-01  1.00000000E+00
P(S=P) Contraction coefficients            R   N=         110
  0.00000000E+00  0.00000000E+00  0.00000000E+00  0.00000000E+00  0.00000000E+00
  0.00000000E+00  7.08742682E-02  3.39752839E-01  7.27158577E-01  1.00000000E+00
  0.00000000E+00  0.00000000E+00  0.00000000E+00  0.00000000E+00  0.00000000E+00
  0.00000000E+00  0.00000000E+00  6.75797439E-02  3.23907296E-01  7.40895140E-01
  1.00000000E+00  0.00000000E+00  0.00000000E+00  0.00000000E+00  0.00000000E+00
  0.00000000E+00  0.00000000E+00  0.00000000E+00  6.89990666E-02  3.16423961E-01
  7.44308291E-01  1.00000000E+00  0.00000000E+00  0.00000000E+00  0.00000000E+00
  0.00000000E+00  0.00000000E+00  0.00000000E+00  0.00000000E+00  6.89990666E-02
  3.16423961E-01  7.44308291E-01  1.00000000E+00  0.00000000E+00  0.00000000E+00
  0.00000000E+00  0.00000000E+00  0.00000000E+00  0.00000000E+00  0.00000000E+00
  6.89990666E-02  3.16423961E-01  7.44308291E-01  1.00000000E+00  0.00000000E+00
  0.00000000E+00  0.00000000E+00  0.00000000E+00  0.00000000E+00  0.00000000E+00
  0.00000000E+00  6.89990666E-02  3.16423961E-01  7.44308291E-01  1.00000000E+00
  0.00000000E+00  0.00000000E+00  0.00000000E+00  0.00000000E+00  0.00000000E+00
  0.00000000E+00  0.00000000E+00  0.00000000E+00  0.00000000E+00  0.00000000E+00
  0.00000000E+00  0.00000000E+00  0.00000000E+00  0.00000000E+00  0.00000000E+00
  0.00000000E+00  0.00000000E+00  0.00000000E+00  0.00000000E+00  0.00000000E+00
  0.00000000E+00  0.00000000E+00  0.00000000E+00  0.00000000E+00  0.00000000E+00
  0.00000000E+00  0.00000000E+00  0.00000000E+00  0.00000000E+00  0.00000000E+00
  0.00000000E+00  0.00000000E+00  0.00000000E+00  0.00000000E+00  0.00000000E+00
  0.00000000E+00  0.00000000E+00  0.00000000E+00  0.00000000E+00  0.00000000E+00
  0.00000000E+00  0.00000000E+00  0.00000000E+00  0.00000000E+00  0.00000000E+00
Coordinates of each shell                  R   N=         138
  1.03773555E+00  3.14781894E+00 -1.57842472E-01  1.03773555E+00  3.14781894E+00
 -1.57842472E-01  1.03773555E+00  3.14781894E+00 -1.57842472E-01  1.03773555E+00
  3.14781894E+00 -1.57842472E-01 -4.30294373E+00 -1.55893642E+00 -1.97314937E-01
 -4.30294373E+00 -1.55893642E+00 -1.97314937E-01 -4.30294373E+00 -1.55893642E+00
 -1.97314937E-01 -4.30294373E+00 -1.55893642E+00 -1.97314937E-01 -4.36622192E-02
  6.90693174E-01 -5.31867026E-01 -4.36622192E-02  6.90693174E-01 -5.31867026E-01
 -4.36622192E-02  6.90693174E-01 -5.31867026E-01 -4.36622192E-02  6.90693174E-01
 -5.31867026E-01  1.57084384E+00 -1.35082566E+00  7.04206835E-01  1.57084384E+00
 -1.35082566E+00  7.04206835E-01  1.57084384E+00 -1.35082566E+00  7.04206835E-01
  1.57084384E+00 -1.35082566E+00  7.04206835E-01 -2.79773076E+00  6.88815374E-01
  3.63665244E-01 -2.79773076E+00  6.88815374E-01  3.63665244E-01 -2.79773076E+00
  6.88815374E-01  3.63665244E-01 -2.79773076E+00  6.88815374E-01  3.63665244E-01
  4.28091370E+00 -1.37751513E+00 -2.77172674E-01  4.28091370E+00 -1.37751513E+00
 -2.77172674E-01  4.28091370E+00 -1.37751513E+00 -2.77172674E-01  4.28091370E+00
 -1.37751513E+00 -2.77172674E-01 -1.30359575E-02  4.28614292E-01 -2.59015473E+00
 -1.30359575E-02  4.28614292E-01 -2.59015473E+00  1.55794956E+00 -1.03025881E+00
  2.75836728E+00  1.55794956E+00 -1.03025881E+00  2.75836728E+00  6.90881219E-01
 -3.20138156E+00  3.95037903E-01  6.90881219E-01 -3.20138156E+00  3.95037903E-01
 -2.82633161E+00  9.76623876E-01  2.42010460E+00 -2.82633161E+00  9.76623876E-01
  2.42010460E+00 -3.73379851E+00  2.32903858E+00 -4.81125625E-01 -3.73379851E+00
  2.32903858E+00 -4.81125625E-01  5.41284738E+00 -2.81218837E+00  6.87984538E-01
  5.41284738E+00 -2.81218837E+00  6.87984538E-01  5.16629760E+00  4.63527203E-01
  6.15982348E-03  5.16629760E+00  4.63527203E-01  6.15982348E-03  4.31713279E+00
 -1.79223440E+00 -2.30281934E+00  4.31713279E+00 -1.79223440E+00 -2.30281934E+00
 -3.52957457E+00 -3.11047496E+00  6.35080688E-01 -3.52957457E+00 -3.11047496E+00
  6.35080688E-01 -4.29897821E+00 -1.89017749E+00 -2.09424010E+00 -4.29897821E+00
 -1.89017749E+00 -2.09424010E+00  1.01314462E+00  3.46190843E+00  1.65655501E+00
  1.01314462E+00  3.46190843E+00  1.65655501E+00
Constraint Structure                       R   N=          51
  1.03773555E+00  3.14781894E+00 -1.57842472E-01 -4.30294373E+00 -1.55893642E+00
 -1.97314937E-01 -4.36622192E-02  6.90693174E-01 -5.31867026E-01  1.57084384E+00
 -1.35082566E+00  7.04206835E-01 -2.79773076E+00  6.88815374E-01  3.63665244E-01
  4.28091370E+00 -1.37751513E+00 -2.77172674E-01 -1.30359575E-02  4.28614292E-01
 -2.59015473E+00  1.55794956E+00 -1.03025881E+00  2.75836728E+00  6.90881219E-01
 -3.20138156E+00  3.95037903E-01 -2.82633161E+00  9.76623876E-01  2.42010460E+00
 -3.73379851E+00  2.32903858E+00 -4.81125625E-01  5.41284738E+00 -2.81218837E+00
  6.87984538E-01  5.16629760E+00  4.63527203E-01  6.15982348E-03  4.31713279E+00
 -1.79223440E+00 -2.30281934E+00 -3.52957457E+00 -3.11047496E+00  6.35080688E-01
 -4.29897821E+00 -1.89017749E+00 -2.09424010E+00  1.01314462E+00  3.46190843E+00
  1.65655501E+00
Num ILSW                                   I              100
ILSW                                       I   N=         100
           0           1           0           0           2           0
           0           0           0           0           0          -1
           0           0           0           0           0           0
           0           0           0           0           1           0
           1           0           0           0           0           0
           0           0      100000           0          -1           0
           0           0           0           0           0           0
           0           0           0           1           1           0
           0           0           1           0           0           0
           0           0           4          40           0           0
           0           0           0           0           0           0
           0           0           0           0           0           0
           0           0           0           0           0           0
           0           0           0           0           0           0
           0           0           0           0           0           0
           0           0           0           0           0           0
           0           0           0           0
Num RLSW                                   I               40
RLSW                                       R   N=          40
  1.00000000E+00  1.00000000E+00  1.00000000E+00  1.00000000E+00  1.00000000E+00
  0.00000000E+00  0.00000000E+00  1.00000000E+00  0.00000000E+00  0.00000000E+00
  0.00000000E+00  0.00000000E+00  1.00000000E+00  0.00000000E+00  0.00000000E+00
  0.00000000E+00  0.00000000E+00  1.00000000E+00  0.00000000E+00  0.00000000E+00
  0.00000000E+00  0.00000000E+00  1.00000000E+00  0.00000000E+00  0.00000000E+00
  0.00000000E+00  0.00000000E+00  1.00000000E+00  0.00000000E+00  0.00000000E+00
  0.00000000E+00  0.00000000E+00  0.00000000E+00  0.00000000E+00  0.00000000E+00
  0.00000000E+00  0.00000000E+00  0.00000000E+00  1.00000000E+00  1.00000000E+00
MxBond                                     I                4
NBond                                      I   N=          17
           2           3           4           4           4           4
           1           1           1           1           1           1
           1           1           1           1           1
IBond                                      I   N=          68
           3          17           0           0           5          15
          16           0           1           4           5           7
           3           6           8           9           2           3
          10          11           4          12          13          14
           3           0           0           0           4           0
           0           0           4           0           0           0
           5           0           0           0           5           0
           0           0           6           0           0           0
           6           0           0           0           6           0
           0           0           2           0           0           0
           2           0           0           0           1           0
           0           0
RBond                                      R   N=          68
  1.00000000E+00  1.00000000E+00  0.00000000E+00  0.00000000E+00  1.00000000E+00
  1.00000000E+00  1.00000000E+00  0.00000000E+00  1.00000000E+00  1.00000000E+00
  1.00000000E+00  1.00000000E+00  1.00000000E+00  1.00000000E+00  1.00000000E+00
  1.00000000E+00  1.00000000E+00  1.00000000E+00  1.00000000E+00  1.00000000E+00
  1.00000000E+00  1.00000000E+00  1.00000000E+00  1.00000000E+00  1.00000000E+00
  0.00000000E+00  0.00000000E+00  0.00000000E+00  1.00000000E+00  0.00000000E+00
  0.00000000E+00  0.00000000E+00  1.00000000E+00  0.00000000E+00  0.00000000E+00
  0.00000000E+00  1.00000000E+00  0.00000000E+00  0.00000000E+00  0.00000000E+00
  1.00000000E+00  0.00000000E+00  0.00000000E+00  0.00000000E+00  1.00000000E+00
  0.00000000E+00  0.00000000E+00  0.00000000E+00  1.00000000E+00  0.00000000E+00
  0.00000000E+00  0.00000000E+00  1.00000000E+00  0.00000000E+00  0.00000000E+00
  0.00000000E+00  1.00000000E+00  0.00000000E+00  0.00000000E+00  0.00000000E+00
  1.00000000E+00  0.00000000E+00  0.00000000E+00  0.00000000E+00  1.00000000E+00
  0.00000000E+00  0.00000000E+00  0.00000000E+00
Virial Ratio                               R      2.002003041470938E+00
SCF Energy                                 R     -2.871647033973642E+02
MP2 Energy                                 R     -2.880355972033617E+02
Total Energy                               R     -2.880355972033617E+02
Post-SCF wavefunction norm                 R      1.595033593379482E+00
RMS Force                                  R      1.801708360719925E-07
RMS Density                                R      9.120834747345836E-10
External E-field                           R   N=          35
  0.00000000E+00  0.00000000E+00  0.00000000E+00  0.00000000E+00  0.00000000E+00
  0.00000000E+00  0.00000000E+00  0.00000000E+00  0.00000000E+00  0.00000000E+00
  0.00000000E+00  0.00000000E+00  0.00000000E+00  0.00000000E+00  0.00000000E+00
  0.00000000E+00  0.00000000E+00  0.00000000E+00  0.00000000E+00  0.00000000E+00
  0.00000000E+00  0.00000000E+00  0.00000000E+00  0.00000000E+00  0.00000000E+00
  0.00000000E+00  0.00000000E+00  0.00000000E+00  0.00000000E+00  0.00000000E+00
  0.00000000E+00  0.00000000E+00  0.00000000E+00  0.00000000E+00  0.00000000E+00
IOpCl                                      I                0
IROHF                                      I                0
Alpha Orbital Energies                     R   N=         112
 -2.05627081E+01 -1.55493461E+01 -1.12776540E+01 -1.12498509E+01 -1.12286895E+01
 -1.12152735E+01 -1.35508550E+00 -1.18092686E+00 -1.05434650E+00 -9.57474817E-01
 -8.62426381E-01 -8.04177684E-01 -6.75137484E-01 -6.55510048E-01 -6.43587075E-01
 -6.30343013E-01 -5.80098376E-01 -5.54177972E-01 -5.41151461E-01 -5.19664030E-01
 -5.00762631E-01 -4.87985284E-01 -4.78372931E-01 -4.50286250E-01 -3.82692896E-01
  2.12280206E-01  2.17875971E-01  2.53582949E-01  2.68542116E-01  2.86604002E-01
  3.09358984E-01  3.16641083E-01  3.27183204E-01  3.30284583E-01  3.43451325E-01
  3.61793856E-01  4.15701618E-01  4.30177134E-01  4.41455100E-01  4.57444959E-01
  4.81309774E-01  7.06235117E-01  7.25872896E-01  7.59461483E-01  7.71196211E-01
  8.17252437E-01  8.42604841E-01  8.61051233E-01  9.04734033E-01  9.43066004E-01
  9.70340993E-01  9.78708187E-01  1.01840638E+00  1.06199851E+00  1.07179854E+00
  1.11567031E+00  1.13627827E+00  1.14686344E+00  1.15206131E+00  1.17185744E+00
  1.17919987E+00  1.18984339E+00  1.20631458E+00  1.21495288E+00  1.23013835E+00
  1.24342696E+00  1.26871471E+00  1.30614184E+00  1.33229310E+00  1.37413848E+00
  1.42352679E+00  1.54622010E+00  1.61890644E+00  1.64622705E+00  1.73809356E+00
  1.78698319E+00  1.84246962E+00  1.87190500E+00  1.94655814E+00  1.95636577E+00
  2.03969695E+00  2.10592120E+00  2.14931628E+00  2.20056110E+00  2.21948615E+00
  2.27939652E+00  2.31571253E+00  2.33221537E+00  2.36316914E+00  2.40335667E+00
  2.41173356E+00  2.48526165E+00  2.54661211E+00  2.57102631E+00  2.62228674E+00
  2.66722983E+00  2.69067248E+00  2.74433889E+00  2.79797684E+00  2.81699769E+00
  2.85019331E+00  2.95652354E+00  3.04617249E+00  3.07972381E+00  3.16617069E+00
  3.27965114E+00  4.13779222E+00  4.27398574E+00  4.59540772E+00  4.73364512E+00
  4.83233246E+00  4.98077084E+00
Alpha MO coefficients                      R   N=       12544
  9.94665361E-01  2.11491252E-02 -4.27323069E-04 -7.44660895E-04  9.62937840E-04
  3.85087779E-03  2.30147154E-04  3.92788074E-04 -5.01557835E-04 -3.88584797E-03
 -4.11412221E-03 -4.09162229E-03 -1.40777187E-04  1.26564666E-06 -6.14984472E-05
 -3.41785199E-07 -6.20552855E-06  3.20702748E-06  3.69229237E-06 -4.21316820E-06
  3.79262941E-05  4.46499488E-05  2.97787468E-05  5.86678848E-05  3.77179982E-06
  1.04521132E-05 -1.03039089E-06  1.15082691E-05  1.19094645E-05  7.62728610E-06
 -3.29672285E-05  1.52743631E-04  1.44076755E-04  3.36365876E-04  1.02659052E-05
  4.16596806E-04 -9.79112196E-05 -2.29399274E-04  4.99988332E-04 -2.65857212E-05
  4.80246222E-05 -7.75486778E-05  4.20491552E-05  1.50948154E-05  2.34756770E-05
 -5.02603054E-06  2.58294273E-05  9.40882992E-06 -5.09931939E-05  1.34929553E-05
 -1.43831904E-04  2.54222639E-04 -1.00448655E-04 -7.32670091E-05 -2.41388354E-05
 -7.25032673E-05 -1.71407762E-05  1.98975309E-05 -6.97667319E-06 -2.45766901E-06
 -2.59258690E-06  4.29292027E-05 -3.82235339E-05 -2.19076872E-05  1.59175240E-05
 -2.39745760E-04 -1.50143744E-04  1.47586958E-04 -1.16281845E-04 -6.77179211E-05
 -3.72697165E-05 -1.69436920E-05 -2.52329351E-05 -7.74773095E-06 -3.21947144E-06
  4.99208657E-06  1.87546783E-05 -8.87343246E-06  1.73409749E-06 -9.91713693E-06
 -1.49021552E-04  1.42571831E-04  1.94313983E-05  8.91681501E-06  1.54713718E-06
  6.22395759E-06  1.01790503E-05  1.31296342E-06  6.69038491E-06 -2.53258849E-06
  3.18833775E-05  7.13624801E-05  2.14167523E-06  4.78398249E-05  1.26645504E-05
  1.29440521E-05  1.20524392E-05  6.37911931E-05 -1.04875860E-06 -1.25179180E-04
  2.01342435E-06 -3.30202450E-05  2.91923431E-05 -1.12971499E-04  6.55376300E-06
  3.90853993E-05 -1.03034660E-05  2.00166853E-05  5.83667852E-06  2.68333948E-05
  4.09967319E-04 -2.33730193E-04 -2.97556970E-05 -1.31674252E-04  1.16662712E-05
  1.62044529E-05  1.11162471E-05  6.97374137E-04 -1.59587213E-04 -2.52971691E-04
 -6.05014033E-05 -8.76838517E-05 -4.15786501E-05 -9.19661253E-05  3.54828454E-05
  6.13200871E-06  7.69288982E-06  9.95040502E-01  2.48641054E-02  1.41273625E-03
 -1.68996741E-04 -4.75672977E-04 -2.54537148E-03 -1.22040846E-03 -1.10364291E-04
  2.90576016E-04 -3.22103833E-03 -3.38017720E-03 -3.34355278E-03 -8.68831103E-05
 -8.62871113E-05  1.35295150E-05 -1.92772354E-05 -1.75436212E-05  8.34446099E-05
  4.22756273E-05  1.02310994E-06 -2.19900842E-04  4.49888465E-06 -6.07705827E-04
 -1.55838785E-04 -8.47292558E-05 -1.04613085E-04 -4.88630716E-05 -4.74375842E-05
 -6.22779164E-06 -1.08866705E-05  1.32857324E-05  6.53774538E-05  1.23426734E-05
  3.58674879E-06  7.15897608E-06 -4.41805922E-04  1.73024277E-04  2.85793368E-05
  1.19963467E-04 -1.68290835E-05  4.43078289E-05  8.04924859E-06 -2.19403725E-06
 -1.07651214E-05  3.80863942E-08 -2.12222892E-05  1.70972219E-04 -1.56083301E-04
 -1.95071799E-04 -5.41550234E-05  1.60649824E-03  3.27415540E-05 -4.65611723E-04
 -1.72092245E-04 -1.19058880E-04 -1.56235663E-04 -1.05115071E-04 -4.92703498E-05
 -2.74754677E-05 -9.44616597E-06 -1.45429864E-06 -1.17307253E-05 -8.01473254E-06
 -1.17487184E-06  1.05781917E-06  4.84450983E-05 -2.25219363E-05  5.37642900E-07
 -2.20685930E-05  7.96487048E-06 -3.07233565E-07 -2.74437945E-06  1.00106936E-06
  2.63767465E-07  1.16848405E-06 -2.08046135E-05 -1.36998424E-04  3.00415102E-05
 -3.07800981E-05  1.08922799E-07  1.14845064E-04 -8.26059312E-05 -1.21688060E-04
 -7.16306278E-05 -6.50969773E-05 -2.90034938E-07 -3.87317283E-06 -1.69102717E-06
 -5.85794823E-06 -4.75214399E-06 -1.27637620E-05  3.05672286E-04  5.83217401E-04
  3.13502063E-04  5.64458928E-04 -2.17005023E-05  8.31659259E-05 -1.85848491E-04
 -8.70477091E-05 -5.15977330E-05 -9.82350457E-05  2.46222119E-05  3.00394619E-03
 -1.77283304E-04 -5.69550330E-04 -1.04328573E-04 -2.31808058E-04 -7.19805409E-04
 -1.06597121E-04 -3.23791189E-04 -8.04929872E-05 -1.77952452E-04 -6.54239911E-05
 -2.48751961E-04 -7.26154149E-05 -3.32978397E-05  1.99276868E-05  1.26996417E-03
  1.54520015E-04  1.90809651E-04 -3.97021360E-05 -1.33934177E-04 -1.27232977E-04
 -1.77008541E-04  6.31779084E-06 -3.45831620E-05  4.34361285E-05  9.95962178E-01
  2.78933654E-02  3.61695295E-04  6.30294491E-04  2.21833879E-04 -1.81123744E-02
 -1.26761344E-04  3.34487572E-04 -1.19887800E-03 -1.29416194E-03 -1.22950262E-03
 -1.21417350E-03  4.45712603E-05 -7.33428854E-06  2.84528174E-05  6.15195051E-03
  1.23245354E-04 -1.21478490E-04  4.22016286E-05 -4.85852104E-05  4.56305852E-03
 -1.33165002E-03  2.00168595E-03 -5.71154468E-04 -2.40899910E-04 -2.80880970E-04
 -2.11610344E-04  9.63495947E-05 -6.32079795E-05  1.44016979E-04  1.06308553E-02
  3.24990985E-04  1.33293557E-04 -2.30500666E-05 -2.94726191E-05  3.83464346E-03
  2.33207118E-03  4.41392689E-04 -2.83856680E-04 -3.74416045E-04 -1.82340356E-04
 -1.59596602E-04 -3.49170597E-05  1.29188482E-04 -7.43929115E-08 -1.25235493E-04
 -2.37208185E-04  1.25039915E-04 -6.84366755E-05  4.82834356E-05  5.67851860E-04
 -3.27787254E-04  1.60413166E-04 -3.90613056E-04 -5.03915263E-05 -5.36362181E-05
 -8.38152250E-05 -2.13628799E-05  4.64404163E-06 -4.86871796E-05  2.57278867E-04
  2.72037944E-03 -2.27843456E-04 -8.75965526E-05 -1.20953931E-04  2.21668715E-04
 -1.91151975E-04 -2.27261425E-05 -1.40032734E-04  1.48932005E-05 -1.23719343E-05
  3.84830184E-04 -5.34994380E-05 -6.97984766E-05 -4.88799569E-05 -4.28791013E-04
 -3.60653862E-05 -2.26489645E-04 -9.02673669E-05 -1.80723020E-04  2.37429547E-05
  3.43517576E-04 -3.17236664E-05 -2.08423157E-04  4.71882454E-05  4.30551973E-05