097_PH3 Gaussian SP Calculation on node35.bme.utexas.edu                
Freq      RMP2-FC                                                     6-31G(d)            
Number of atoms                            I                4
Info1-9                                    I   N=           9
          15          14        1002           0           0         100
           6           2           1
Charge                                     I                0
Multiplicity                               I                1
Number of electrons                        I               18
Number of alpha electrons                  I                9
Number of beta electrons                   I                9
Number of basis functions                  I               25
Number of independent functions            I               25
Number of point charges in /Mol/           I                0
Number of translation vectors              I                0
Atomic numbers                             I   N=           4
          15           1           1           1
Nuclear charges                            R   N=           4
  1.50000000E+01  1.00000000E+00  1.00000000E+00  1.00000000E+00
Current cartesian coordinates              R   N=          12
  1.41302950E-07 -2.20398204E-06 -2.35472278E-01  1.98769618E+00 -1.09494256E+00
  1.17736878E+00 -1.94211208E+00 -1.17389853E+00  1.17736773E+00 -4.55862138E-02
  2.26887415E+00  1.17734765E+00
Force Field                                I                0
Int Atom Types                             I   N=           4
           0           0           0           0
MM charges                                 R   N=           4
  0.00000000E+00  0.00000000E+00  0.00000000E+00  0.00000000E+00
Integer atomic weights                     I   N=           4
          31           1           1           1
Real atomic weights                        R   N=           4
  3.09737634E+01  1.00782504E+00  1.00782504E+00  1.00782504E+00
Atom fragment info                         I   N=           4
           0           0           0           0
Atom residue num                           I   N=           4
           0           0           0           0
Nuclear spins                              I   N=           4
           1           1           1           1
Nuclear ZEff                               R   N=           4
 -1.29400000E+01 -1.00000000E+00 -1.00000000E+00 -1.00000000E+00
Nuclear QMom                               R   N=           4
  0.00000000E+00  0.00000000E+00  0.00000000E+00  0.00000000E+00
Nuclear GFac                               R   N=           4
  1.13160000E+00  2.79284600E+00  2.79284600E+00  2.79284600E+00
MicOpt                                     I   N=           4
          -1          -1          -1          -1
Number of contracted shells                I               11
Number of primitive shells                 I               29
Pure/Cartesian d shells                    I                1
Pure/Cartesian f shells                    I                0
Highest angular momentum                   I                2
Largest degree of contraction              I                6
Shell types                                I   N=          11
           0          -1          -1          -1           2           0
           0           0           0           0           0
Number of primitives per shell             I   N=          11
           6           6           3           1           1           3
           1           3           1           3           1
Shell to atom map                          I   N=          11
           1           1           1           1           1           2
           2           3           3           4           4
Primitive exponents                        R   N=          29
  1.94133000E+04  2.90942000E+03  6.61364000E+02  1.85759000E+02  5.91943000E+01
  2.00310000E+01  3.39478000E+02  8.10101000E+01  2.58780000E+01  9.45221000E+00
  3.66566000E+00  1.46746000E+00  2.15623000E+00  7.48997000E-01  2.83145000E-01
  9.98317000E-02  5.50000000E-01  1.87311370E+01  2.82539436E+00  6.40121692E-01
  1.61277759E-01  1.87311370E+01  2.82539436E+00  6.40121692E-01  1.61277759E-01
  1.87311370E+01  2.82539436E+00  6.40121692E-01  1.61277759E-01
Contraction coefficients                   R   N=          29
  1.85159892E-03  1.42061917E-02  6.99994593E-02  2.40078860E-01  4.84761718E-01
  3.35199805E-01 -2.78217010E-03 -3.60499014E-02 -1.16631004E-01  9.68328036E-02
  6.14418023E-01  4.03798015E-01 -2.52924114E-01  3.28518447E-02  1.08125476E+00
  1.00000000E+00  1.00000000E+00  3.34946043E-02  2.34726953E-01  8.13757326E-01
  1.00000000E+00  3.34946043E-02  2.34726953E-01  8.13757326E-01  1.00000000E+00
  3.34946043E-02  2.34726953E-01  8.13757326E-01  1.00000000E+00
P(S=P) Contraction coefficients            R   N=          29
  0.00000000E+00  0.00000000E+00  0.00000000E+00  0.00000000E+00  0.00000000E+00
  0.00000000E+00  4.56461619E-03  3.36935719E-02  1.39754883E-01  3.39361717E-01
  4.50920624E-01  2.38585801E-01 -1.77653127E-02  2.74058196E-01  7.85421563E-01
  1.00000000E+00  0.00000000E+00  0.00000000E+00  0.00000000E+00  0.00000000E+00
  0.00000000E+00  0.00000000E+00  0.00000000E+00  0.00000000E+00  0.00000000E+00
  0.00000000E+00  0.00000000E+00  0.00000000E+00  0.00000000E+00
Coordinates of each shell                  R   N=          33
  1.41302950E-07 -2.20398204E-06 -2.35472278E-01  1.41302950E-07 -2.20398204E-06
 -2.35472278E-01  1.41302950E-07 -2.20398204E-06 -2.35472278E-01  1.41302950E-07
 -2.20398204E-06 -2.35472278E-01  1.41302950E-07 -2.20398204E-06 -2.35472278E-01
  1.98769618E+00 -1.09494256E+00  1.17736878E+00  1.98769618E+00 -1.09494256E+00
  1.17736878E+00 -1.94211208E+00 -1.17389853E+00  1.17736773E+00 -1.94211208E+00
 -1.17389853E+00  1.17736773E+00 -4.55862138E-02  2.26887415E+00  1.17734765E+00
 -4.55862138E-02  2.26887415E+00  1.17734765E+00
Constraint Structure                       R   N=          12
  1.41302950E-07 -2.20398204E-06 -2.35472278E-01  1.98769618E+00 -1.09494256E+00
  1.17736878E+00 -1.94211208E+00 -1.17389853E+00  1.17736773E+00 -4.55862138E-02
  2.26887415E+00  1.17734765E+00
Num ILSW                                   I              100
ILSW                                       I   N=         100
           0           1           0           0           2           0
           0           0           0           0           0          -1
           0           0           0           0           0           0
           0           0           0           0           1           0
           1           0           0           0           0           0
           0           0      100000           0          -1           0
           0           0           0           0           0           0
           0           0           0           1           1           0
           0           0           1           0           0           0
           0           0           4          40           0           0
           0           0           0           0           0           0
           0           0           0           0           0           0
           0           0           0           0           0           0
           0           0           0           0           0           0
           0           0           0           0           0           0
           0           0           0           0           0           0
           0           0           0           0
Num RLSW                                   I               40
RLSW                                       R   N=          40
  1.00000000E+00  1.00000000E+00  1.00000000E+00  1.00000000E+00  1.00000000E+00
  0.00000000E+00  0.00000000E+00  1.00000000E+00  0.00000000E+00  0.00000000E+00
  0.00000000E+00  0.00000000E+00  1.00000000E+00  0.00000000E+00  0.00000000E+00
  0.00000000E+00  0.00000000E+00  1.00000000E+00  0.00000000E+00  0.00000000E+00
  0.00000000E+00  0.00000000E+00  1.00000000E+00  0.00000000E+00  0.00000000E+00
  0.00000000E+00  0.00000000E+00  1.00000000E+00  0.00000000E+00  0.00000000E+00
  0.00000000E+00  0.00000000E+00  0.00000000E+00  0.00000000E+00  0.00000000E+00
  0.00000000E+00  0.00000000E+00  0.00000000E+00  1.00000000E+00  1.00000000E+00
MxBond                                     I                3
NBond                                      I   N=           4
           3           1           1           1
IBond                                      I   N=          12
           2           3           4           1           0           0
           1           0           0           1           0           0
RBond                                      R   N=          12
  1.00000000E+00  1.00000000E+00  1.00000000E+00  1.00000000E+00  0.00000000E+00
  0.00000000E+00  1.00000000E+00  0.00000000E+00  0.00000000E+00  1.00000000E+00
  0.00000000E+00  0.00000000E+00
Virial Ratio                               R      2.000331347212025E+00
SCF Energy                                 R     -3.424477489602788E+02
MP2 Energy                                 R     -3.425517050599943E+02
Total Energy                               R     -3.425517050599943E+02
Post-SCF wavefunction norm                 R      1.447060424145201E+00
RMS Force                                  R      4.591609417956589E-06
RMS Density                                R      3.784502127544474E-10
External E-field                           R   N=          35
  0.00000000E+00  0.00000000E+00  0.00000000E+00  0.00000000E+00  0.00000000E+00
  0.00000000E+00  0.00000000E+00  0.00000000E+00  0.00000000E+00  0.00000000E+00
  0.00000000E+00  0.00000000E+00  0.00000000E+00  0.00000000E+00  0.00000000E+00
  0.00000000E+00  0.00000000E+00  0.00000000E+00  0.00000000E+00  0.00000000E+00
  0.00000000E+00  0.00000000E+00  0.00000000E+00  0.00000000E+00  0.00000000E+00
  0.00000000E+00  0.00000000E+00  0.00000000E+00  0.00000000E+00  0.00000000E+00
  0.00000000E+00  0.00000000E+00  0.00000000E+00  0.00000000E+00  0.00000000E+00
IOpCl                                      I                0
IROHF                                      I                0
Alpha Orbital Energies                     R   N=          25
 -7.99343458E+01 -7.48809647E+00 -5.38214139E+00 -5.38214139E+00 -5.38042937E+00
 -8.58187672E-01 -5.25757987E-01 -5.25756981E-01 -3.84073398E-01  1.67366378E-01
  1.67367044E-01  2.72212418E-01  4.45687376E-01  4.45687679E-01  4.52490765E-01
  5.26998379E-01  8.90989159E-01  8.90989966E-01  9.10255699E-01  9.10255852E-01
  9.34317418E-01  1.20200560E+00  1.46060217E+00  1.46060262E+00  3.78782071E+00
Alpha MO coefficients                      R   N=         625
  9.96429226E-01  1.35103464E-02 -2.92047099E-11  4.41485482E-10  8.18824264E-05
 -2.15863675E-02  3.78975684E-11 -5.81194977E-10 -7.49367875E-05  4.09953970E-03
 -3.14080547E-10  4.92653350E-09  4.75032610E-04  7.41446309E-03  7.41446276E-03
  7.40073888E-03  5.24776509E-13 -3.10189335E-12  4.04878383E-11  1.94929708E-04
 -5.47887471E-04  1.94929700E-04 -5.47887503E-04  1.94929454E-04 -5.47888068E-04
 -2.76099972E-01  1.03066771E+00 -9.49127226E-10  1.33516428E-08  5.89742185E-03
  1.90452615E-02 -4.42442061E-10  6.91393264E-09  1.14432770E-03 -6.80615161E-03
  9.90007885E-10 -1.55766665E-08 -1.64183273E-03 -1.57406208E-03 -1.57406212E-03
 -1.81381137E-03 -4.69671680E-12  1.12700752E-10 -1.65372764E-09 -5.97403521E-05
  1.44348208E-03 -5.97403177E-05  1.44348221E-03 -5.97393269E-05  1.44348472E-03
 -4.60814123E-09  1.63347218E-08 -3.04400620E-02  9.93728608E-01 -5.19913490E-06
 -1.08761119E-08 -6.17921222E-04  2.01722904E-02 -1.05598698E-07  1.82330080E-08
  1.52362392E-04 -4.97393240E-03  3.45238304E-08 -3.13791518E-04  3.13809967E-04
 -4.38197442E-09 -1.07448887E-05 -2.93248286E-05  9.57311244E-04  1.90304198E-04
 -3.31550680E-04  1.83483993E-04 -3.19668924E-04 -3.73786935E-04  6.51199140E-04
  1.67267403E-10 -6.03750858E-10  9.93728606E-01  3.04400620E-02  1.93852090E-07
  3.82945056E-10  2.01722976E-02  6.17920989E-04  3.91624250E-09 -4.92107440E-10
 -4.97393458E-03 -1.52362344E-04 -1.18310228E-09  9.30441773E-06 -9.30503348E-06
  1.65756343E-10 -3.62338326E-04  9.57320652E-04  2.93244982E-05 -3.21745568E-04
  5.60535096E-04  3.25682944E-04 -5.67394492E-04 -3.93737484E-06  6.85990817E-06
  1.90855027E-03 -7.33946220E-03 -3.53085297E-07  5.19295427E-06  9.94618283E-01
  5.74322100E-03 -6.60241478E-09  9.67065351E-08  1.86183366E-02 -1.82151270E-03
  1.66544717E-09 -2.42135396E-08 -4.62325961E-03 -1.70345213E-03 -1.70345305E-03
 -8.96000558E-04 -2.62056800E-12 -3.23603934E-10  4.92123055E-09 -5.99541558E-05
  5.87122906E-04 -5.99540859E-05  5.87122839E-04 -5.99517696E-05  5.87120293E-04
  6.03769843E-02 -2.82767315E-01  3.52279963E-08 -5.77637820E-07 -4.95186007E-02
  5.26770259E-01 -8.13241139E-08  1.33299149E-06  1.15402218E-01  2.25101472E-01
 -1.75996835E-09  2.39890760E-08  6.55158757E-03  2.12445549E-02  2.12442383E-02
  1.31500594E-02 -7.93765908E-10 -1.03964476E-08  1.85026084E-07  1.36424667E-01
  6.90422926E-02  1.36424680E-01  6.90422997E-02  1.36425033E-01  6.90424771E-02
  7.62765743E-09 -3.68694022E-08 -1.79631987E-01  3.02961053E-04 -5.34554320E-08
  7.31233374E-08  4.52193293E-01 -7.62653287E-04  1.34321232E-07  9.61081610E-08
  9.03739874E-02 -1.52421720E-04  3.56344635E-08  3.35258604E-03 -3.35264273E-03
  5.66696607E-08 -6.24066932E-02  8.40929003E-02 -1.41828357E-04  2.39694440E-01
  2.80662612E-01 -2.33741432E-01 -2.73692143E-01 -5.95303840E-03 -6.97052927E-03
 -1.26042887E-07  6.11325468E-07 -3.02960370E-04 -1.79631983E-01  7.75361396E-07
 -1.19784183E-06  7.62651993E-04  4.52193319E-01 -1.94991959E-06 -1.64301382E-06
  1.52423264E-04  9.03748673E-02 -5.48772244E-07 -5.40467668E-02  5.40476141E-02
 -8.54961085E-07 -3.87136556E-03  1.41826003E-04  8.40919236E-02 -1.31513582E-01
 -1.53991718E-01 -1.41824531E-01 -1.66065013E-01  2.73338576E-01  3.20057692E-01
 -2.93170228E-02  1.34324868E-01  7.06534289E-08 -1.07936357E-06 -2.07051675E-01
 -3.25094934E-01 -1.85018391E-07  2.82785714E-06  5.38369365E-01 -2.85803954E-01
 -1.30637884E-07  2.00955577E-06  3.28557930E-01  1.68137551E-03  1.68069110E-03
  1.20417212E-02 -2.97681077E-10 -1.86847164E-10 -2.48193804E-10  9.63085169E-02
  1.09427137E-01  9.63084693E-02  1.09427053E-01  9.63074646E-02  1.09425264E-01
 -1.91579819E-07  8.10185419E-07 -1.58979339E-04 -1.11165072E-01  1.26400377E-06
 -2.37997666E-06  3.94157982E-04  2.75611845E-01 -3.25815911E-06 -3.67555092E-06
  1.83486905E-03  1.28302385E+00 -1.16333153E-05  6.83188485E-02 -6.83196279E-02
  5.95294284E-07  4.87335541E-03 -1.18790782E-04 -8.30644901E-02  7.07437143E-02
  5.46674444E-01  7.62222576E-02  5.89010131E-01 -1.46964454E-01 -1.13567489E+00
  1.12456258E-08 -4.79756853E-08 -1.11164980E-01  1.58977742E-04 -7.95635416E-08
  1.38234940E-07  2.75611637E-01 -3.94153800E-04  2.04438250E-07  2.33022619E-07
  1.28303036E+00 -1.83487772E-03  7.49483723E-07 -4.22033423E-03  4.22038601E-03
 -4.09623302E-08  7.88865898E-02 -8.30659538E-02  1.18794453E-04 -1.28856365E-01
 -9.95750741E-01  1.25693278E-01  9.71307753E-01  3.16299451E-03  2.44424059E-02
  5.39679501E-02 -1.86474356E-01  4.99185790E-08 -7.83173430E-07 -7.92082157E-02
  8.28532555E-01 -1.45234905E-07  2.26293215E-06  2.54510980E-01  1.29468871E+00
 -1.15672448E-06  1.89806633E-05  1.18225515E+00  1.46620693E-02  1.46624993E-02
  5.56675672E-02  2.48158039E-09  4.00594267E-08 -7.06209820E-07 -3.08649865E-02
 -1.18001358E+00 -3.08650114E-02 -1.18001403E+00 -3.08656005E-02 -1.18002439E+00
 -2.35779243E-08 -1.13414069E-07 -2.87493256E-01  3.52816794E-04  2.81545507E-07
 -9.72494027E-07  1.23498459E+00 -1.51559494E-03 -1.27271956E-06  3.54115434E-06
 -1.04342571E+00  1.28050411E-03  2.80667607E-06  2.23952347E-03 -2.23975408E-03
  4.04800785E-08 -4.20016129E-02  6.56908278E-02 -8.06164569E-05  9.21666394E-02
 -2.38674931E-01 -8.99256560E-02  2.32868341E-01 -2.24150686E-03  5.80289480E-03
  4.27651988E-07  2.00920840E-06 -3.52817138E-04 -2.87493317E-01 -5.22951712E-06
  1.75133717E-05  1.51559620E-03  1.23498478E+00  2.35881225E-05 -6.32335904E-05
 -1.28051772E-03 -1.04342562E+00 -5.07002164E-05 -3.63732925E-02  3.63772814E-02
 -6.19842193E-07 -2.58617239E-03  8.06163453E-05  6.56898983E-02 -5.06213078E-02
  1.31118753E-01 -5.45034033E-02  1.41171802E-01  1.05133977E-01 -2.72224744E-01
 -1.02048198E-02 -6.36682976E-02  3.75006493E-07 -7.01484260E-06  2.50915833E-01
 -4.62850315E-01 -1.59375409E-06  2.98844414E-05 -1.11076230E+00  1.84770350E+00
  6.80468241E-07 -1.47333569E-05  1.89246536E+00 -4.91116499E-02 -4.91071418E-02
 -1.43657415E-03 -4.88518701E-09 -6.75288651E-08  1.27269080E-06 -9.36110604E-02
 -6.65775964E-01 -9.36108607E-02 -6.65776603E-01 -9.36061070E-02 -6.65791324E-01
 -4.71538186E-02 -9.23076161E-02  1.00094062E-07 -1.72047383E-06 -1.34775194E-01
 -1.60460524E+00 -4.11643409E-07  7.14961446E-06  5.36404511E-01  4.68197187E+00
 -9.33837066E-07  1.44432767E-05  1.21820244E+00 -1.06761384E-01 -1.06756151E-01
  7.84840089E-02  3.24126626E-09  7.38295028E-08 -1.25212439E-06 -9.96543959E-02
 -1.57118321E+00 -9.96543653E-02 -1.57118356E+00 -9.96536348E-02 -1.57119139E+00
 -1.06938959E-07 -1.40451629E-07  5.10462571E-06 -1.01330095E-01  8.21403785E-07
 -3.62145194E-06 -1.83057205E-05  3.63379832E-01 -2.96870223E-06  1.08466312E-05
  5.23845368E-05 -1.03985446E+00  1.08170971E-05  5.65837609E-01 -5.65843693E-01
  6.35330353E-06  3.93917085E-02  1.90447021E-05 -3.77622574E-01  2.69814759E-01
 -6.83228820E-01  2.89220193E-01 -7.32367369E-01 -5.59031557E-01  1.41558106E+00
  6.66230718E-09  8.38281879E-09 -1.01329851E-01 -5.10308172E-06 -5.26872014E-08
  2.23406960E-07  3.63378936E-01  1.83001327E-05  1.90409556E-07 -6.92330350E-07
 -1.03985513E+00 -5.23674307E-05 -6.95275481E-07 -3.41140755E-02  3.41144696E-02
 -4.08100779E-07  6.53378020E-01 -3.77626026E-01 -1.89959623E-05 -4.89736270E-01
  1.24011399E+00  4.78532452E-01 -1.21174330E+00  1.12036142E-02 -2.83697348E-02
  1.07700215E-09  2.50386611E-08  3.26224903E-02 -7.67069973E-06  7.49879019E-09
  1.04919717E-07 -1.17987536E-01  2.77430531E-05 -1.93836539E-08 -5.65059309E-07
  2.91367579E-01 -6.85110330E-05 -1.56836739E-07 -3.26134526E-02  3.26146603E-02
 -1.18223513E-06  6.21689172E-01  7.60260671E-01 -1.78766103E-04  1.36683074E-01
 -3.40585071E-01 -1.33512015E-01  3.32684175E-01 -3.17087897E-03  7.90152305E-03
 -1.57396477E-08 -3.99708339E-07  7.67228205E-06  3.26212239E-02 -1.07151248E-07
 -1.62637445E-06 -2.77487766E-05 -1.17983017E-01  2.61417358E-07  8.99218843E-06
  6.85239782E-05  2.91353167E-01  2.57250925E-06  5.38383604E-01 -5.38403826E-01
  1.97986081E-05  3.76590740E-02  1.78807107E-04  7.60267220E-01 -7.52501713E-02
  1.87501409E-01 -8.07421769E-02  2.01186299E-01  1.55989379E-01 -3.88697643E-01
 -9.07136692E-03 -2.60593894E-02 -3.55377607E-08  5.90685229E-07 -7.30531470E-03
 -3.50203871E-01  1.23992904E-07 -2.04344167E-06  2.56875995E-02  1.27132804E+00
 -6.99115720E-07  1.13925507E-05  5.11139350E-01  4.96898566E-01  4.96866009E-01
 -9.93679454E-01 -1.61557877E-08 -5.62551406E-07  9.90757522E-06  1.48377475E-02
 -5.22978673E-01  1.48379744E-02 -5.22979273E-01  1.48428326E-02 -5.22992226E-01
 -3.63279031E-02  5.99328400E-02 -6.14527957E-08  9.49840645E-07  1.07128899E-01
 -8.80702628E-01  2.15086951E-07 -3.34460648E-06 -3.64594223E-01  2.94037588E+00
 -9.24067810E-07  1.46698626E-05  1.28828438E+00  9.04896105E-03  9.05458524E-03
  8.96629924E-02 -5.68696607E-09 -1.53254310E-07  2.65929920E-06  7.99022291E-01
 -1.63653063E+00  7.99022191E-01 -1.63653074E+00  7.99019447E-01 -1.63653290E+00
 -1.21956767E-07  4.56008594E-07  1.05621930E-03  9.01948497E-02 -6.71592209E-08
 -2.20314519E-06 -3.51657500E-03 -3.00295097E-01 -9.28492390E-09  5.00894625E-06
  2.85441738E-03  2.43750749E-01  9.05825082E-07  4.36431375E-01 -4.36437881E-01
  6.87041246E-06  3.63354177E-02 -7.31908800E-03 -6.25001504E-01 -4.76429737E-01
  3.67700627E-01 -5.31989671E-01  4.10580984E-01  1.00842805E+00 -7.78291475E-01
  7.84276512E-09 -3.04485809E-08  9.01952212E-02 -1.05621731E-03  1.02026204E-08
  1.38356425E-07 -3.00295988E-01  3.51657594E-03 -1.95057458E-08 -3.05037613E-07
  2.43751201E-01 -2.85441660E-03 -3.37580718E-08 -3.14665938E-02  3.14670904E-02
 -5.21853220E-07  5.03938885E-01 -6.25009950E-01  7.31902342E-03  8.89360991E-01
 -6.86395571E-01 -8.57283818E-01  6.61639000E-01 -3.20777452E-02  2.47571933E-02
  1.69076655E-01 -6.77456297E-01 -2.65589699E-09  4.65254096E-08  1.91546201E-03
  7.12619476E+00  9.31086511E-09 -1.61184628E-07 -8.37450632E-03 -2.21712202E-01
 -1.07443815E-07  1.73337632E-06  1.44106519E-01 -2.96401422E+00 -2.96401452E+00
 -2.97023802E+00  6.60143995E-10  6.80703087E-11 -1.59123030E-08  6.18337818E-02
 -1.75478220E-01  6.18337999E-02 -1.75478253E-01  6.18343117E-02 -1.75479093E-01
Total SCF Density                          R   N=         325
  2.14722182E+00 -5.84259743E-01  2.32102569E+00 -2.82162044E-09  1.29650711E-08
  2.04138176E+00  4.30034529E-08 -1.99211134E-07 -2.38196773E-10  2.04138177E+00
  6.86389186E-03 -3.00610437E-02 -1.45965722E-08  2.34499540E-07  2.06924560E+00
  2.91577858E-02 -3.46652402E-01 -3.70361654E-08  5.62157707E-07  9.40987751E-02
  7.68070600E-01  8.04134681E-09 -3.69839012E-08 -1.22328024E-01  5.18471463E-10
  3.86163530E-08  9.88580907E-08  4.09773318E-01 -1.23640510E-07  5.72255996E-07
  5.25707414E-10 -1.22328044E-01 -6.18796557E-07 -1.51674625E-06 -1.13263474E-09
  4.09773365E-01 -1.83416662E-02  8.14523581E-02  3.81931148E-08 -6.11132338E-07
 -1.97319909E-01 -2.28200713E-01 -9.94407013E-08  1.58819899E-06  6.07014406E-01
  5.58609441E-02 -2.17976085E-01 -5.88480660E-08  9.64363575E-07  9.23559294E-02
  4.22523196E-01  1.53546456E-07 -2.50209134E-06 -2.55865787E-01  2.64842042E-01
  7.61825300E-09 -3.85594308E-08 -4.23629681E-02 -6.08294244E-10  4.46581661E-08
  9.60002435E-08  8.15323947E-02  1.52485071E-09 -1.17392021E-07  9.07401256E-08
  1.63844881E-02 -1.19343469E-07  6.05025629E-07 -3.92367077E-10 -4.23632793E-02
 -6.91065081E-07 -1.49882729E-06  9.85693780E-10  8.15331953E-02  1.81692619E-06
 -1.43472222E-06  5.47005687E-10  1.63848062E-02 -1.66379052E-02  8.12581836E-02
  3.32341395E-08 -4.99177693E-07 -1.45921835E-01 -2.06858826E-01 -9.12816970E-08
  1.37981349E-06  3.55107201E-01 -1.84813681E-01 -7.95903799E-08  1.22156064E-06
  2.16035065E-01  1.81054623E-02 -1.45822179E-02 -1.13411659E-03  1.87959605E-02
 -6.20626626E-03  2.08892900E-02  2.95035522E-03 -4.88968699E-02  6.64580678E-03
  8.69187596E-03  5.89308461E-04 -9.76683406E-03  1.41125310E-03  6.89380641E-03
  1.81054362E-02 -1.45820901E-02  1.13413997E-03 -1.87963201E-02 -6.20579149E-03
  2.08891415E-02 -2.95041335E-03  4.88977686E-02  6.64457325E-03  8.69176817E-03
 -5.89319493E-04  9.76700301E-03  1.41068014E-03 -4.83586686E-03  6.89395886E-03
  1.66286585E-02 -7.72755698E-03 -1.59813017E-08  2.47957738E-07 -8.09140090E-03
  5.62582427E-03  4.33785920E-08 -6.70523016E-07  1.59622552E-02 -8.74314083E-04
  6.77558822E-09 -1.05306971E-07  8.10638557E-03  7.17828131E-04  7.17617720E-04
  7.53581558E-04 -5.09065643E-11  2.27854017E-10  2.17033445E-02  1.30961434E-03
  8.36401687E-10 -4.95194955E-10 -5.64602863E-02 -3.40690323E-03 -2.17179130E-09
  5.38672908E-10 -1.12774624E-02 -6.80506725E-04 -4.04518327E-10  2.19324690E-08
 -2.14863927E-08 -4.81440229E-10  7.81942846E-03 -6.64050376E-11  3.67148726E-11
 -2.83072163E-02  7.32657443E-10 -7.62981400E-09  1.12902494E-09  7.60913662E-02
 -1.91237363E-09  1.94389936E-08  1.11218836E-08  1.51901324E-02 -1.56303313E-10
  5.57687288E-09  5.48562670E-04 -5.48572850E-04  9.01129261E-09 -1.04977109E-02
  1.41451066E-02  2.16049189E-09 -5.32860015E-09  7.36840105E-10 -2.83068834E-02
  1.12023719E-07 -6.41355211E-09 -1.91810668E-09  7.60904869E-02 -2.85567971E-07
 -1.92874695E-07 -5.71883890E-11  1.51901040E-02 -9.00174029E-08 -9.09133654E-03
  9.09149479E-03 -1.38957089E-07 -6.33440899E-04 -6.72983810E-10  1.41447781E-02
  1.12481259E-02 -5.13967924E-02 -8.66849081E-02  4.77515944E-02 -5.35129641E-02
  8.10990632E-02  2.16562564E-01 -1.19296545E-01  1.35184707E-01  6.37118494E-03
  4.32874262E-02 -2.38455157E-02  6.50745475E-02  2.19465420E-02 -9.69959587E-03
  5.91088704E-03 -2.88985717E-02  4.02752672E-02 -2.21860551E-02  2.05272904E-01
  3.43064185E-05 -6.69636695E-03 -9.96044141E-02  5.48686078E-02 -5.09673022E-02
  1.67622778E-03  2.53615590E-01 -1.39708029E-01  1.33785628E-01 -3.14920938E-02
  5.06765489E-02 -2.79159499E-02  7.28004801E-02  2.18144712E-02 -1.52412522E-02
  4.43709971E-03 -3.38385338E-02  4.71608773E-02 -2.59791078E-02  2.14965271E-01
  2.38458480E-01  1.12481256E-02 -5.13967901E-02  8.46969436E-02  5.11949423E-02
 -5.35129106E-02  8.10990631E-02 -2.11596086E-01 -1.27898970E-01  1.35184572E-01
  6.37116082E-03 -4.22947347E-02 -2.55650227E-02  6.50744939E-02  1.98866366E-02
 -7.63965356E-03  5.91085020E-03  3.02719286E-02 -3.93516087E-02 -2.37858721E-02
 -1.89753536E-02 -4.76099028E-02  2.05272908E-01  3.43066545E-05 -6.69636716E-03
  9.73201580E-02  5.88251579E-02 -5.09672283E-02  1.67623776E-03 -2.47799350E-01
 -1.49782310E-01  1.33785437E-01 -3.14921094E-02 -4.95144067E-02 -2.99289779E-02
  7.28003987E-02  1.94024439E-02 -1.28291824E-02  4.43705568E-03  3.54466578E-02
 -4.60793059E-02 -2.78524380E-02 -4.76099135E-02 -6.89977414E-02  2.14965280E-01
  2.38458498E-01  1.12481250E-02 -5.13967669E-02  1.98804481E-03 -9.89477993E-02
 -5.35118997E-02  8.10991271E-02 -4.96667838E-03  2.47198659E-01  1.35182014E-01
  6.37057359E-03 -9.92773696E-04  4.94118031E-02  6.50733988E-02 -2.34620950E-02
  3.57097790E-02  5.91015121E-03 -1.37335761E-03 -9.23671982E-04  4.59721565E-02
 -1.89754024E-02 -4.76100633E-02 -1.89754046E-02 -4.76100819E-02  2.05273037E-01
  3.43119299E-05 -6.69636802E-03  2.28433905E-03 -1.13695081E-01 -5.09657949E-02
  1.67646194E-03 -5.81644764E-03  2.89493616E-01  1.33781728E-01 -3.14925534E-02
 -1.16223921E-03  5.78464306E-02  7.27987115E-02 -3.13564598E-02  3.79305178E-02
  4.43621625E-03 -1.60812443E-03 -1.08158557E-03  5.38317838E-02 -4.76103101E-02
 -6.89982801E-02 -4.76103188E-02 -6.89983073E-02  2.14965460E-01  2.38458838E-01
Total MP2 Density                          R   N=         325
  2.14731834E+00 -5.84541431E-01  2.32179434E+00 -2.70414142E-09  1.24166711E-08
  2.04383691E+00  4.13357457E-08 -1.91109336E-07 -1.95036146E-10  2.04383694E+00
  6.51843915E-03 -2.84602778E-02 -1.27113516E-08  2.04085818E-07  2.06899728E+00
  3.14248529E-02 -3.53862893E-01 -3.53653110E-08  5.39163318E-07  8.92277487E-02
  8.25601658E-01  7.56175830E-09 -3.46833019E-08 -1.30588551E-01  3.85889169E-10
  3.32228200E-08  9.31255259E-08  4.38858867E-01 -1.16549015E-07  5.37428858E-07
  3.93833231E-10 -1.30588636E-01 -5.31436801E-07 -1.43349385E-06 -7.56419005E-10
  4.38859092E-01 -1.71480862E-02  7.57539845E-02  3.28539158E-08 -5.24790810E-07
 -1.97892301E-01 -2.14770380E-01 -8.49688509E-08  1.35337280E-06  6.15399244E-01
  5.56550597E-02 -2.18849084E-01 -5.76359159E-08  9.40664992E-07  8.91418142E-02
  4.03115185E-01  1.47070789E-07 -2.38760157E-06 -2.42393548E-01  2.96880039E-01
  6.88638226E-09 -3.51824858E-08 -4.67706064E-02 -5.72929084E-10  3.87380053E-08
  8.67891390E-08  9.15078576E-02  1.44900401E-09 -9.99310872E-08  8.41640043E-08
  2.52770086E-02 -1.07770661E-07  5.51498840E-07 -3.56860002E-10 -4.67709118E-02
 -5.98067305E-07 -1.35478181E-06  9.11572283E-10  9.15086462E-02  1.54251956E-06
 -1.32910944E-06  5.51885201E-10  2.52773210E-02 -1.56986817E-02  7.70100344E-02
  2.88627804E-08 -4.32806856E-07 -1.41710820E-01 -1.92409488E-01 -7.79578812E-08
  1.17588513E-06  3.38266007E-01 -1.78204838E-01 -7.40189259E-08  1.13448936E-06
  2.20122939E-01  1.81136107E-02 -1.46257583E-02 -1.00702476E-03  1.66896554E-02
 -4.31598719E-03  1.63509142E-02  2.67136107E-03 -4.42730795E-02  2.81419488E-03
  1.21149521E-02  4.80110171E-04 -7.95706937E-03 -4.87290511E-03  1.15851042E-02
  1.81135849E-02 -1.46256396E-02  1.00704520E-03 -1.66899696E-02 -4.31556780E-03
  1.63507340E-02 -2.67141262E-03  4.42738761E-02  2.81308517E-03  1.21149581E-02
 -4.80114430E-04  7.95713339E-03 -4.87332109E-03 -4.08487783E-03  1.15852249E-02
  1.59766434E-02 -5.10456047E-03 -1.35761511E-08  2.10545090E-07 -1.00133517E-02
 -7.47755015E-03  3.77761186E-08 -5.83840219E-07  2.15516845E-02  3.16741836E-03
  2.51663152E-09 -3.88080196E-08  1.42592708E-02 -8.54362167E-04 -8.54538688E-04
  8.22908899E-03 -4.50541667E-11  2.03741340E-10  1.92712128E-02  1.16285672E-03
  7.35175393E-10 -4.44216761E-10 -5.11212283E-02 -3.08473878E-03 -1.93804744E-09
  4.51894347E-10 -9.18771449E-03 -5.54408345E-04 -3.37468943E-10  1.68728397E-08
 -1.65243008E-08 -3.73548674E-10  1.04463837E-02  3.32457820E-10 -1.89162952E-09
 -2.59803338E-02  6.44279560E-10 -5.08462853E-09  4.94485853E-09  7.09603739E-02
 -1.70477522E-09  1.32673490E-08  1.66653066E-08  1.33042067E-02 -1.15182789E-10
  1.24934121E-09  4.24202995E-04 -4.24211612E-04  7.16042090E-09 -8.11787805E-03
  1.78336646E-02 -4.20385887E-09  2.54872819E-08  6.48965897E-10 -2.59800427E-02
  7.29090571E-08 -6.67314322E-08 -1.71098530E-09  7.09595903E-02 -1.90601135E-07
 -2.81487956E-07 -2.60743151E-11  1.33042190E-02 -2.36740892E-08 -7.03036148E-03
  7.03049514E-03 -1.10047641E-07 -4.89842455E-04 -5.24329768E-10  1.78334121E-02
  1.08263187E-02 -4.93846890E-02 -8.53348415E-02  4.70078883E-02 -5.32325553E-02
  7.72771452E-02  2.11672459E-01 -1.16602768E-01  1.33571061E-01  4.06016534E-03
  4.54782624E-02 -2.50523871E-02  6.38554656E-02  1.89659900E-02 -8.95252760E-03
  6.48116804E-03 -2.54945522E-02  3.77798375E-02 -2.08114218E-02  2.11217727E-01
 -6.01997294E-04 -3.45526958E-03 -9.40760300E-02  5.18232013E-02 -4.97559674E-02
 -3.56354974E-04  2.37491705E-01 -1.30825929E-01  1.29211894E-01 -4.22897184E-02
  5.25477627E-02 -2.89467869E-02  7.03349436E-02  1.71248358E-02 -1.34644428E-02