7674                                                                    
Freq      RMP2-FC                                                     6-31G(d)            
Number of atoms                            I               19
Info1-9                                    I   N=           9
          31          29        1002           0           0         100
           6           2           1
Charge                                     I                0
Multiplicity                               I                1
Number of electrons                        I               66
Number of alpha electrons                  I               33
Number of beta electrons                   I               33
Number of basis functions                  I              155
Number of independent functions            I              155
Number of point charges in /Mol/           I                0
Number of translation vectors              I                0
Atomic numbers                             I   N=          19
           8           6           6           6           6           6
           6           6           6           1           1           1
           1           1           1           1           1           1
           1
Nuclear charges                            R   N=          19
  8.00000000E+00  6.00000000E+00  6.00000000E+00  6.00000000E+00  6.00000000E+00
  6.00000000E+00  6.00000000E+00  6.00000000E+00  6.00000000E+00  1.00000000E+00
  1.00000000E+00  1.00000000E+00  1.00000000E+00  1.00000000E+00  1.00000000E+00
  1.00000000E+00  1.00000000E+00  1.00000000E+00  1.00000000E+00
Current cartesian coordinates              R   N=          57
  2.41221833E+00 -1.05450029E+00 -2.58571125E-05 -9.94608760E-02 -4.08801083E-01
 -1.63185237E-05  4.21096736E+00  9.62069855E-01 -8.52911982E-06 -1.02374145E+00
  2.06844431E+00  6.00009611E-06 -1.78433175E+00 -2.45286239E+00  9.21876272E-06
  6.80046207E+00 -2.50337276E-01  2.20593482E-05 -3.63776817E+00  2.47173080E+00
 -6.57141993E-06 -4.37655148E+00 -2.02111566E+00 -3.91223503E-06 -5.32173535E+00
  4.48526175E-01  2.00545645E-05  3.94168972E+00  2.14919316E+00 -1.68018014E+00
  3.94165664E+00  2.14918781E+00  1.68016274E+00  2.42361765E-01  3.68016632E+00
 -2.54898136E-05 -1.00873803E+00 -4.35411999E+00 -1.50283563E-05  8.27024667E+00
  1.20267290E+00  1.28189009E-05  7.03462415E+00 -1.43098922E+00  1.67580069E+00
  7.03465374E+00 -1.43103935E+00 -1.67571734E+00 -4.34753598E+00  4.40065379E+00
  1.27023945E-05 -5.66633866E+00 -3.62099035E+00  2.23787420E-05 -7.34740875E+00
  7.85338856E-01  1.51679157E-06
Force Field                                I                0
Int Atom Types                             I   N=          19
           0           0           0           0           0           0
           0           0           0           0           0           0
           0           0           0           0           0           0
           0
MM charges                                 R   N=          19
  0.00000000E+00  0.00000000E+00  0.00000000E+00  0.00000000E+00  0.00000000E+00
  0.00000000E+00  0.00000000E+00  0.00000000E+00  0.00000000E+00  0.00000000E+00
  0.00000000E+00  0.00000000E+00  0.00000000E+00  0.00000000E+00  0.00000000E+00
  0.00000000E+00  0.00000000E+00  0.00000000E+00  0.00000000E+00
Integer atomic weights                     I   N=          19
          16          12          12          12          12          12
          12          12          12           1           1           1
           1           1           1           1           1           1
           1
Real atomic weights                        R   N=          19
  1.59949146E+01  1.20000000E+01  1.20000000E+01  1.20000000E+01  1.20000000E+01
  1.20000000E+01  1.20000000E+01  1.20000000E+01  1.20000000E+01  1.00782504E+00
  1.00782504E+00  1.00782504E+00  1.00782504E+00  1.00782504E+00  1.00782504E+00
  1.00782504E+00  1.00782504E+00  1.00782504E+00  1.00782504E+00
Atom fragment info                         I   N=          19
           0           0           0           0           0           0
           0           0           0           0           0           0
           0           0           0           0           0           0
           0
Atom residue num                           I   N=          19
           0           0           0           0           0           0
           0           0           0           0           0           0
           0           0           0           0           0           0
           0
Nuclear spins                              I   N=          19
           0           0           0           0           0           0
           0           0           0           1           1           1
           1           1           1           1           1           1
           1
Nuclear ZEff                               R   N=          19
 -5.60000000E+00 -3.60000000E+00 -3.60000000E+00 -3.60000000E+00 -3.60000000E+00
 -3.60000000E+00 -3.60000000E+00 -3.60000000E+00 -3.60000000E+00 -1.00000000E+00
 -1.00000000E+00 -1.00000000E+00 -1.00000000E+00 -1.00000000E+00 -1.00000000E+00
 -1.00000000E+00 -1.00000000E+00 -1.00000000E+00 -1.00000000E+00
Nuclear QMom                               R   N=          19
  0.00000000E+00  0.00000000E+00  0.00000000E+00  0.00000000E+00  0.00000000E+00
  0.00000000E+00  0.00000000E+00  0.00000000E+00  0.00000000E+00  0.00000000E+00
  0.00000000E+00  0.00000000E+00  0.00000000E+00  0.00000000E+00  0.00000000E+00
  0.00000000E+00  0.00000000E+00  0.00000000E+00  0.00000000E+00
Nuclear GFac                               R   N=          19
  0.00000000E+00  0.00000000E+00  0.00000000E+00  0.00000000E+00  0.00000000E+00
  0.00000000E+00  0.00000000E+00  0.00000000E+00  0.00000000E+00  2.79284600E+00
  2.79284600E+00  2.79284600E+00  2.79284600E+00  2.79284600E+00  2.79284600E+00
  2.79284600E+00  2.79284600E+00  2.79284600E+00  2.79284600E+00
MicOpt                                     I   N=          19
          -1          -1          -1          -1          -1          -1
          -1          -1          -1          -1          -1          -1
          -1          -1          -1          -1          -1          -1
          -1
Number of contracted shells                I               56
Number of primitive shells                 I              139
Pure/Cartesian d shells                    I                1
Pure/Cartesian f shells                    I                0
Highest angular momentum                   I                2
Largest degree of contraction              I                6
Shell types                                I   N=          56
           0          -1          -1           2           0          -1
          -1           2           0          -1          -1           2
           0          -1          -1           2           0          -1
          -1           2           0          -1          -1           2
           0          -1          -1           2           0          -1
          -1           2           0          -1          -1           2
           0           0           0           0           0           0
           0           0           0           0           0           0
           0           0           0           0           0           0
           0           0
Number of primitives per shell             I   N=          56
           6           3           1           1           6           3
           1           1           6           3           1           1
           6           3           1           1           6           3
           1           1           6           3           1           1
           6           3           1           1           6           3
           1           1           6           3           1           1
           3           1           3           1           3           1
           3           1           3           1           3           1
           3           1           3           1           3           1
           3           1
Shell to atom map                          I   N=          56
           1           1           1           1           2           2
           2           2           3           3           3           3
           4           4           4           4           5           5
           5           5           6           6           6           6
           7           7           7           7           8           8
           8           8           9           9           9           9
          10          10          11          11          12          12
          13          13          14          14          15          15
          16          16          17          17          18          18
          19          19
Primitive exponents                        R   N=         139
  5.48467166E+03  8.25234946E+02  1.88046958E+02  5.29645000E+01  1.68975704E+01
  5.79963534E+00  1.55396162E+01  3.59993359E+00  1.01376175E+00  2.70005823E-01
  8.00000000E-01  3.04752488E+03  4.57369518E+02  1.03948685E+02  2.92101553E+01
  9.28666296E+00  3.16392696E+00  7.86827235E+00  1.88128854E+00  5.44249258E-01
  1.68714478E-01  8.00000000E-01  3.04752488E+03  4.57369518E+02  1.03948685E+02
  2.92101553E+01  9.28666296E+00  3.16392696E+00  7.86827235E+00  1.88128854E+00
  5.44249258E-01  1.68714478E-01  8.00000000E-01  3.04752488E+03  4.57369518E+02
  1.03948685E+02  2.92101553E+01  9.28666296E+00  3.16392696E+00  7.86827235E+00
  1.88128854E+00  5.44249258E-01  1.68714478E-01  8.00000000E-01  3.04752488E+03
  4.57369518E+02  1.03948685E+02  2.92101553E+01  9.28666296E+00  3.16392696E+00
  7.86827235E+00  1.88128854E+00  5.44249258E-01  1.68714478E-01  8.00000000E-01
  3.04752488E+03  4.57369518E+02  1.03948685E+02  2.92101553E+01  9.28666296E+00
  3.16392696E+00  7.86827235E+00  1.88128854E+00  5.44249258E-01  1.68714478E-01
  8.00000000E-01  3.04752488E+03  4.57369518E+02  1.03948685E+02  2.92101553E+01
  9.28666296E+00  3.16392696E+00  7.86827235E+00  1.88128854E+00  5.44249258E-01
  1.68714478E-01  8.00000000E-01  3.04752488E+03  4.57369518E+02  1.03948685E+02
  2.92101553E+01  9.28666296E+00  3.16392696E+00  7.86827235E+00  1.88128854E+00
  5.44249258E-01  1.68714478E-01  8.00000000E-01  3.04752488E+03  4.57369518E+02
  1.03948685E+02  2.92101553E+01  9.28666296E+00  3.16392696E+00  7.86827235E+00
  1.88128854E+00  5.44249258E-01  1.68714478E-01  8.00000000E-01  1.87311370E+01
  2.82539436E+00  6.40121692E-01  1.61277759E-01  1.87311370E+01  2.82539436E+00
  6.40121692E-01  1.61277759E-01  1.87311370E+01  2.82539436E+00  6.40121692E-01
  1.61277759E-01  1.87311370E+01  2.82539436E+00  6.40121692E-01  1.61277759E-01
  1.87311370E+01  2.82539436E+00  6.40121692E-01  1.61277759E-01  1.87311370E+01
  2.82539436E+00  6.40121692E-01  1.61277759E-01  1.87311370E+01  2.82539436E+00
  6.40121692E-01  1.61277759E-01  1.87311370E+01  2.82539436E+00  6.40121692E-01
  1.61277759E-01  1.87311370E+01  2.82539436E+00  6.40121692E-01  1.61277759E-01
  1.87311370E+01  2.82539436E+00  6.40121692E-01  1.61277759E-01
Contraction coefficients                   R   N=         139
  1.83107443E-03  1.39501722E-02  6.84450781E-02  2.32714336E-01  4.70192898E-01
  3.58520853E-01 -1.10777550E-01 -1.48026263E-01  1.13076702E+00  1.00000000E+00
  1.00000000E+00  1.83473713E-03  1.40373228E-02  6.88426223E-02  2.32184443E-01
  4.67941348E-01  3.62311985E-01 -1.19332420E-01 -1.60854152E-01  1.14345644E+00
  1.00000000E+00  1.00000000E+00  1.83473713E-03  1.40373228E-02  6.88426223E-02
  2.32184443E-01  4.67941348E-01  3.62311985E-01 -1.19332420E-01 -1.60854152E-01
  1.14345644E+00  1.00000000E+00  1.00000000E+00  1.83473713E-03  1.40373228E-02
  6.88426223E-02  2.32184443E-01  4.67941348E-01  3.62311985E-01 -1.19332420E-01
 -1.60854152E-01  1.14345644E+00  1.00000000E+00  1.00000000E+00  1.83473713E-03
  1.40373228E-02  6.88426223E-02  2.32184443E-01  4.67941348E-01  3.62311985E-01
 -1.19332420E-01 -1.60854152E-01  1.14345644E+00  1.00000000E+00  1.00000000E+00
  1.83473713E-03  1.40373228E-02  6.88426223E-02  2.32184443E-01  4.67941348E-01
  3.62311985E-01 -1.19332420E-01 -1.60854152E-01  1.14345644E+00  1.00000000E+00
  1.00000000E+00  1.83473713E-03  1.40373228E-02  6.88426223E-02  2.32184443E-01
  4.67941348E-01  3.62311985E-01 -1.19332420E-01 -1.60854152E-01  1.14345644E+00
  1.00000000E+00  1.00000000E+00  1.83473713E-03  1.40373228E-02  6.88426223E-02
  2.32184443E-01  4.67941348E-01  3.62311985E-01 -1.19332420E-01 -1.60854152E-01
  1.14345644E+00  1.00000000E+00  1.00000000E+00  1.83473713E-03  1.40373228E-02
  6.88426223E-02  2.32184443E-01  4.67941348E-01  3.62311985E-01 -1.19332420E-01
 -1.60854152E-01  1.14345644E+00  1.00000000E+00  1.00000000E+00  3.34946043E-02
  2.34726953E-01  8.13757326E-01  1.00000000E+00  3.34946043E-02  2.34726953E-01
  8.13757326E-01  1.00000000E+00  3.34946043E-02  2.34726953E-01  8.13757326E-01
  1.00000000E+00  3.34946043E-02  2.34726953E-01  8.13757326E-01  1.00000000E+00
  3.34946043E-02  2.34726953E-01  8.13757326E-01  1.00000000E+00  3.34946043E-02
  2.34726953E-01  8.13757326E-01  1.00000000E+00  3.34946043E-02  2.34726953E-01
  8.13757326E-01  1.00000000E+00  3.34946043E-02  2.34726953E-01  8.13757326E-01
  1.00000000E+00  3.34946043E-02  2.34726953E-01  8.13757326E-01  1.00000000E+00
  3.34946043E-02  2.34726953E-01  8.13757326E-01  1.00000000E+00
P(S=P) Contraction coefficients            R   N=         139
  0.00000000E+00  0.00000000E+00  0.00000000E+00  0.00000000E+00  0.00000000E+00
  0.00000000E+00  7.08742682E-02  3.39752839E-01  7.27158577E-01  1.00000000E+00
  0.00000000E+00  0.00000000E+00  0.00000000E+00  0.00000000E+00  0.00000000E+00
  0.00000000E+00  0.00000000E+00  6.89990666E-02  3.16423961E-01  7.44308291E-01
  1.00000000E+00  0.00000000E+00  0.00000000E+00  0.00000000E+00  0.00000000E+00
  0.00000000E+00  0.00000000E+00  0.00000000E+00  6.89990666E-02  3.16423961E-01
  7.44308291E-01  1.00000000E+00  0.00000000E+00  0.00000000E+00  0.00000000E+00
  0.00000000E+00  0.00000000E+00  0.00000000E+00  0.00000000E+00  6.89990666E-02
  3.16423961E-01  7.44308291E-01  1.00000000E+00  0.00000000E+00  0.00000000E+00
  0.00000000E+00  0.00000000E+00  0.00000000E+00  0.00000000E+00  0.00000000E+00
  6.89990666E-02  3.16423961E-01  7.44308291E-01  1.00000000E+00  0.00000000E+00
  0.00000000E+00  0.00000000E+00  0.00000000E+00  0.00000000E+00  0.00000000E+00
  0.00000000E+00  6.89990666E-02  3.16423961E-01  7.44308291E-01  1.00000000E+00
  0.00000000E+00  0.00000000E+00  0.00000000E+00  0.00000000E+00  0.00000000E+00
  0.00000000E+00  0.00000000E+00  6.89990666E-02  3.16423961E-01  7.44308291E-01
  1.00000000E+00  0.00000000E+00  0.00000000E+00  0.00000000E+00  0.00000000E+00
  0.00000000E+00  0.00000000E+00  0.00000000E+00  6.89990666E-02  3.16423961E-01
  7.44308291E-01  1.00000000E+00  0.00000000E+00  0.00000000E+00  0.00000000E+00
  0.00000000E+00  0.00000000E+00  0.00000000E+00  0.00000000E+00  6.89990666E-02
  3.16423961E-01  7.44308291E-01  1.00000000E+00  0.00000000E+00  0.00000000E+00
  0.00000000E+00  0.00000000E+00  0.00000000E+00  0.00000000E+00  0.00000000E+00
  0.00000000E+00  0.00000000E+00  0.00000000E+00  0.00000000E+00  0.00000000E+00
  0.00000000E+00  0.00000000E+00  0.00000000E+00  0.00000000E+00  0.00000000E+00
  0.00000000E+00  0.00000000E+00  0.00000000E+00  0.00000000E+00  0.00000000E+00
  0.00000000E+00  0.00000000E+00  0.00000000E+00  0.00000000E+00  0.00000000E+00
  0.00000000E+00  0.00000000E+00  0.00000000E+00  0.00000000E+00  0.00000000E+00
  0.00000000E+00  0.00000000E+00  0.00000000E+00  0.00000000E+00  0.00000000E+00
  0.00000000E+00  0.00000000E+00  0.00000000E+00  0.00000000E+00
Coordinates of each shell                  R   N=         168
  2.41221833E+00 -1.05450029E+00 -2.58571125E-05  2.41221833E+00 -1.05450029E+00
 -2.58571125E-05  2.41221833E+00 -1.05450029E+00 -2.58571125E-05  2.41221833E+00
 -1.05450029E+00 -2.58571125E-05 -9.94608760E-02 -4.08801083E-01 -1.63185237E-05
 -9.94608760E-02 -4.08801083E-01 -1.63185237E-05 -9.94608760E-02 -4.08801083E-01
 -1.63185237E-05 -9.94608760E-02 -4.08801083E-01 -1.63185237E-05  4.21096736E+00
  9.62069855E-01 -8.52911982E-06  4.21096736E+00  9.62069855E-01 -8.52911982E-06
  4.21096736E+00  9.62069855E-01 -8.52911982E-06  4.21096736E+00  9.62069855E-01
 -8.52911982E-06 -1.02374145E+00  2.06844431E+00  6.00009611E-06 -1.02374145E+00
  2.06844431E+00  6.00009611E-06 -1.02374145E+00  2.06844431E+00  6.00009611E-06
 -1.02374145E+00  2.06844431E+00  6.00009611E-06 -1.78433175E+00 -2.45286239E+00
  9.21876272E-06 -1.78433175E+00 -2.45286239E+00  9.21876272E-06 -1.78433175E+00
 -2.45286239E+00  9.21876272E-06 -1.78433175E+00 -2.45286239E+00  9.21876272E-06
  6.80046207E+00 -2.50337276E-01  2.20593482E-05  6.80046207E+00 -2.50337276E-01
  2.20593482E-05  6.80046207E+00 -2.50337276E-01  2.20593482E-05  6.80046207E+00
 -2.50337276E-01  2.20593482E-05 -3.63776817E+00  2.47173080E+00 -6.57141993E-06
 -3.63776817E+00  2.47173080E+00 -6.57141993E-06 -3.63776817E+00  2.47173080E+00
 -6.57141993E-06 -3.63776817E+00  2.47173080E+00 -6.57141993E-06 -4.37655148E+00
 -2.02111566E+00 -3.91223503E-06 -4.37655148E+00 -2.02111566E+00 -3.91223503E-06
 -4.37655148E+00 -2.02111566E+00 -3.91223503E-06 -4.37655148E+00 -2.02111566E+00
 -3.91223503E-06 -5.32173535E+00  4.48526175E-01  2.00545645E-05 -5.32173535E+00
  4.48526175E-01  2.00545645E-05 -5.32173535E+00  4.48526175E-01  2.00545645E-05
 -5.32173535E+00  4.48526175E-01  2.00545645E-05  3.94168972E+00  2.14919316E+00
 -1.68018014E+00  3.94168972E+00  2.14919316E+00 -1.68018014E+00  3.94165664E+00
  2.14918781E+00  1.68016274E+00  3.94165664E+00  2.14918781E+00  1.68016274E+00
  2.42361765E-01  3.68016632E+00 -2.54898136E-05  2.42361765E-01  3.68016632E+00
 -2.54898136E-05 -1.00873803E+00 -4.35411999E+00 -1.50283563E-05 -1.00873803E+00
 -4.35411999E+00 -1.50283563E-05  8.27024667E+00  1.20267290E+00  1.28189009E-05
  8.27024667E+00  1.20267290E+00  1.28189009E-05  7.03462415E+00 -1.43098922E+00
  1.67580069E+00  7.03462415E+00 -1.43098922E+00  1.67580069E+00  7.03465374E+00
 -1.43103935E+00 -1.67571734E+00  7.03465374E+00 -1.43103935E+00 -1.67571734E+00
 -4.34753598E+00  4.40065379E+00  1.27023945E-05 -4.34753598E+00  4.40065379E+00
  1.27023945E-05 -5.66633866E+00 -3.62099035E+00  2.23787420E-05 -5.66633866E+00
 -3.62099035E+00  2.23787420E-05 -7.34740875E+00  7.85338856E-01  1.51679157E-06
 -7.34740875E+00  7.85338856E-01  1.51679157E-06
Constraint Structure                       R   N=          57
  2.41221833E+00 -1.05450029E+00 -2.58571125E-05 -9.94608760E-02 -4.08801083E-01
 -1.63185237E-05  4.21096736E+00  9.62069855E-01 -8.52911982E-06 -1.02374145E+00
  2.06844431E+00  6.00009611E-06 -1.78433175E+00 -2.45286239E+00  9.21876272E-06
  6.80046207E+00 -2.50337276E-01  2.20593482E-05 -3.63776817E+00  2.47173080E+00
 -6.57141993E-06 -4.37655148E+00 -2.02111566E+00 -3.91223503E-06 -5.32173535E+00
  4.48526175E-01  2.00545645E-05  3.94168972E+00  2.14919316E+00 -1.68018014E+00
  3.94165664E+00  2.14918781E+00  1.68016274E+00  2.42361765E-01  3.68016632E+00
 -2.54898136E-05 -1.00873803E+00 -4.35411999E+00 -1.50283563E-05  8.27024667E+00
  1.20267290E+00  1.28189009E-05  7.03462415E+00 -1.43098922E+00  1.67580069E+00
  7.03465374E+00 -1.43103935E+00 -1.67571734E+00 -4.34753598E+00  4.40065379E+00
  1.27023945E-05 -5.66633866E+00 -3.62099035E+00  2.23787420E-05 -7.34740875E+00
  7.85338856E-01  1.51679157E-06
Num ILSW                                   I              100
ILSW                                       I   N=         100
           0           1           0           0           2           0
           0           0           0           0           0          -1
           0           0           0           0           0           0
           0           0           0           0           1           0
           1           0           0           0           0           0
           0           0      100000           0          -1           0
           0           0           0           0           0           0
           0           0           0           1           1           0
           0           0           1           0           0           0
           0           0           4          40           0           0
           0           0           0           0           0           0
           0           0           0           0           0           0
           0           0           0           0           0           0
           0           0           0           0           0           0
           0           0           0           0           0           0
           0           0           0           0           0           0
           0           0           0           0
Num RLSW                                   I               40
RLSW                                       R   N=          40
  1.00000000E+00  1.00000000E+00  1.00000000E+00  1.00000000E+00  1.00000000E+00
  0.00000000E+00  0.00000000E+00  1.00000000E+00  0.00000000E+00  0.00000000E+00
  0.00000000E+00  0.00000000E+00  1.00000000E+00  0.00000000E+00  0.00000000E+00
  0.00000000E+00  0.00000000E+00  1.00000000E+00  0.00000000E+00  0.00000000E+00
  0.00000000E+00  0.00000000E+00  1.00000000E+00  0.00000000E+00  0.00000000E+00
  0.00000000E+00  0.00000000E+00  1.00000000E+00  0.00000000E+00  0.00000000E+00
  0.00000000E+00  0.00000000E+00  0.00000000E+00  0.00000000E+00  0.00000000E+00
  0.00000000E+00  0.00000000E+00  0.00000000E+00  1.00000000E+00  1.00000000E+00
MxBond                                     I                4
NBond                                      I   N=          19
           2           3           4           3           3           4
           3           3           3           1           1           1
           1           1           1           1           1           1
           1
IBond                                      I   N=          76
           2           3           0           0           1           4
           5           0           1           6          10          11
           2           7          12           0           2           8
          13           0           3          14          15          16
           4           9          17           0           5           9
          18           0           7           8          19           0
           3           0           0           0           3           0
           0           0           4           0           0           0
           5           0           0           0           6           0
           0           0           6           0           0           0
           6           0           0           0           7           0
           0           0           8           0           0           0
           9           0           0           0
RBond                                      R   N=          76
  1.50000000E+00  1.00000000E+00  0.00000000E+00  0.00000000E+00  1.50000000E+00
  1.50000000E+00  1.50000000E+00  0.00000000E+00  1.00000000E+00  1.00000000E+00
  1.00000000E+00  1.00000000E+00  1.50000000E+00  1.50000000E+00  1.00000000E+00
  0.00000000E+00  1.50000000E+00  1.50000000E+00  1.00000000E+00  0.00000000E+00
  1.00000000E+00  1.00000000E+00  1.00000000E+00  1.00000000E+00  1.50000000E+00
  1.50000000E+00  1.00000000E+00  0.00000000E+00  1.50000000E+00  1.50000000E+00
  1.00000000E+00  0.00000000E+00  1.50000000E+00  1.50000000E+00  1.00000000E+00
  0.00000000E+00  1.00000000E+00  0.00000000E+00  0.00000000E+00  0.00000000E+00
  1.00000000E+00  0.00000000E+00  0.00000000E+00  0.00000000E+00  1.00000000E+00
  0.00000000E+00  0.00000000E+00  0.00000000E+00  1.00000000E+00  0.00000000E+00
  0.00000000E+00  0.00000000E+00  1.00000000E+00  0.00000000E+00  0.00000000E+00
  0.00000000E+00  1.00000000E+00  0.00000000E+00  0.00000000E+00  0.00000000E+00
  1.00000000E+00  0.00000000E+00  0.00000000E+00  0.00000000E+00  1.00000000E+00
  0.00000000E+00  0.00000000E+00  0.00000000E+00  1.00000000E+00  0.00000000E+00
  0.00000000E+00  0.00000000E+00  1.00000000E+00  0.00000000E+00  0.00000000E+00
  0.00000000E+00
Virial Ratio                               R      2.002112600921643E+00
SCF Energy                                 R     -3.836205426377451E+02
MP2 Energy                                 R     -3.848170651729873E+02
Total Energy                               R     -3.848170651729873E+02
Post-SCF wavefunction norm                 R      1.681300397234648E+00
RMS Force                                  R      4.218803461835591E-07
RMS Density                                R      1.770368956117402E-09
External E-field                           R   N=          35
  0.00000000E+00  0.00000000E+00  0.00000000E+00  0.00000000E+00  0.00000000E+00
  0.00000000E+00  0.00000000E+00  0.00000000E+00  0.00000000E+00  0.00000000E+00
  0.00000000E+00  0.00000000E+00  0.00000000E+00  0.00000000E+00  0.00000000E+00
  0.00000000E+00  0.00000000E+00  0.00000000E+00  0.00000000E+00  0.00000000E+00
  0.00000000E+00  0.00000000E+00  0.00000000E+00  0.00000000E+00  0.00000000E+00
  0.00000000E+00  0.00000000E+00  0.00000000E+00  0.00000000E+00  0.00000000E+00
  0.00000000E+00  0.00000000E+00  0.00000000E+00  0.00000000E+00  0.00000000E+00
IOpCl                                      I                0
IROHF                                      I                0
Alpha Orbital Energies                     R   N=         155
 -2.05837222E+01 -1.12967017E+01 -1.12870088E+01 -1.12377526E+01 -1.12360781E+01
 -1.12293938E+01 -1.12245005E+01 -1.12239712E+01 -1.12213296E+01 -1.39818150E+00
 -1.13919987E+00 -1.04149619E+00 -1.01015397E+00 -9.81697702E-01 -8.66540295E-01
 -8.18678383E-01 -7.96640496E-01 -7.16879909E-01 -6.65039062E-01 -6.61078181E-01
 -6.42705179E-01 -6.10197036E-01 -5.82041641E-01 -5.57091104E-01 -5.55873941E-01
 -5.43299530E-01 -5.10823209E-01 -5.01411076E-01 -4.97820141E-01 -4.74103515E-01
 -4.56385764E-01 -3.32795035E-01 -3.04402601E-01  1.44252691E-01  1.62520092E-01
  2.36379123E-01  2.42892534E-01  2.80143266E-01  3.00021120E-01  3.03187574E-01
  3.03505968E-01  3.17644346E-01  3.31617304E-01  3.39845496E-01  3.44950834E-01
  3.69406799E-01  3.75902717E-01  4.06026496E-01  4.46129487E-01  4.78511205E-01
  4.95879016E-01  5.30244672E-01  5.50231457E-01  6.59961552E-01  7.16513443E-01
  7.42026906E-01  7.47706087E-01  7.54778349E-01  7.61540459E-01  7.86543538E-01
  8.10474771E-01  8.20921462E-01  8.25866038E-01  8.34564175E-01  8.35231219E-01
  8.42077317E-01  8.48865108E-01  8.87094385E-01  8.92879807E-01  9.16539201E-01
  9.49240284E-01  9.61531241E-01  1.01479136E+00  1.02788217E+00  1.10989641E+00
  1.11268105E+00  1.11724028E+00  1.12653796E+00  1.13006665E+00  1.15064889E+00
  1.17420823E+00  1.18400979E+00  1.18486947E+00  1.19364431E+00  1.20814131E+00
  1.21301080E+00  1.23875237E+00  1.27413870E+00  1.30399239E+00  1.33288057E+00
  1.36301483E+00  1.38590189E+00  1.43043497E+00  1.45667816E+00  1.51462428E+00
  1.53523477E+00  1.59139413E+00  1.63252059E+00  1.66838436E+00  1.70582083E+00
  1.71742724E+00  1.72703151E+00  1.73973527E+00  1.77376092E+00  1.78308647E+00
  1.79617919E+00  1.94067097E+00  2.03766648E+00  2.08712326E+00  2.13469265E+00
  2.14924845E+00  2.18421400E+00  2.19220806E+00  2.21200451E+00  2.27518969E+00
  2.28874018E+00  2.29798755E+00  2.31208692E+00  2.39013963E+00  2.40247865E+00
  2.43663019E+00  2.44546632E+00  2.46842318E+00  2.48644948E+00  2.49821351E+00
  2.55072741E+00  2.58650907E+00  2.61100641E+00  2.63861050E+00  2.64478036E+00
  2.71990932E+00  2.73317697E+00  2.86145841E+00  2.88548246E+00  2.91580599E+00
  2.96810382E+00  3.01404702E+00  3.01602407E+00  3.01887591E+00  3.08883514E+00
  3.10782364E+00  3.14629604E+00  3.26360459E+00  3.38914623E+00  3.55900064E+00
  3.80648958E+00  4.48846559E+00  4.51983747E+00  4.54393652E+00  4.60149710E+00
  4.69791391E+00  4.75613696E+00  4.85464503E+00  4.88587056E+00  5.17646020E+00
Alpha MO coefficients                      R   N=       24025
  9.94653670E-01  2.12692194E-02 -4.56205730E-04  1.20522090E-03  9.41975607E-09
  3.65707985E-03  1.72463762E-04 -9.09803598E-04 -7.03826318E-09 -4.18557052E-03
 -4.09903566E-03 -3.85963139E-03 -5.67817831E-05 -2.29965207E-10 -2.99706885E-09
 -9.06071686E-06  3.06631283E-04  3.54680463E-04 -1.19646381E-04 -1.45772700E-09
  5.44133998E-04 -2.62259277E-05  8.53547495E-04  7.52586561E-09 -4.80149510E-06
  2.43658683E-05 -6.79311422E-05 -1.68884520E-06 -4.40672269E-10  4.60164065E-10
 -2.00935694E-05  1.68007026E-04 -2.58590895E-04 -3.12722846E-04 -2.94116066E-09
  4.26858972E-04 -3.39714139E-05  3.93258412E-05  6.29965029E-09  5.95490778E-05
  4.55326876E-05 -4.77190227E-05  9.59769170E-05  1.24122266E-09  8.03441665E-10
  9.75517841E-06  9.61148922E-05 -2.67039150E-05  2.36630798E-05  5.40110176E-10
 -8.64793778E-04 -2.16639039E-04  5.12995598E-04  3.80975471E-09 -5.15661733E-05
 -3.15326653E-05  8.51835758E-06  6.06656852E-05  5.35014116E-10 -5.89125209E-10
 -4.91744210E-06  2.46387262E-05  1.25709930E-05  3.80898574E-07  2.28298527E-10
  6.33149333E-04 -2.19336516E-04  4.32991962E-05 -5.64617385E-09 -6.38350846E-05
 -2.70742463E-05 -1.87647156E-05 -3.80447097E-05  7.10160068E-10 -3.55369930E-10
  1.07756198E-05  9.91593641E-05 -1.23712996E-05 -2.73321456E-05  5.46881750E-10
 -1.84245601E-04  3.10990233E-04  1.62399718E-04 -2.83290725E-09 -6.08273864E-05
  1.69071779E-05 -4.92676341E-06 -1.38419877E-06 -7.32409117E-10 -7.52892759E-10
 -3.16218241E-06 -1.71588505E-05  1.83894376E-05  1.27362180E-05  3.90316105E-10
  8.11742380E-05 -3.38533610E-05 -2.40717515E-04 -1.52509261E-09  2.13149572E-05
 -5.38800836E-06 -6.84643092E-06  6.09211251E-06  6.00966039E-11 -4.76004237E-10