opt=Tight                                                               
Freq      RMP2-FC                                                     6-31G(d)            
Number of atoms                            I               10
Info1-9                                    I   N=           9
          19          19        1002           0           0         100
           6           2           1
Charge                                     I                1
Multiplicity                               I                1
Number of electrons                        I               36
Number of alpha electrons                  I               18
Number of beta electrons                   I               18
Number of basis functions                  I               85
Number of independent functions            I               85
Number of point charges in /Mol/           I                0
Number of translation vectors              I                0
Atomic numbers                             I   N=          10
           6           6           7           6           7           1
           1           1           1           1
Nuclear charges                            R   N=          10
  6.00000000E+00  6.00000000E+00  7.00000000E+00  6.00000000E+00  7.00000000E+00
  1.00000000E+00  1.00000000E+00  1.00000000E+00  1.00000000E+00  1.00000000E+00
Current cartesian coordinates              R   N=          30
 -1.29508602E+00  1.84099449E+00  5.33452529E-08  1.29508694E+00  1.84099387E+00
  1.54227264E-05  2.02798071E+00 -6.51123551E-01 -2.23597350E-05 -4.99873472E-07
 -2.16007532E+00  2.42017770E-05 -2.02798103E+00 -6.51122593E-01 -1.09544949E-05
 -3.84484765E+00 -1.28075559E+00 -2.19221072E-05  3.84484701E+00 -1.28075749E+00
 -4.24563595E-05 -2.63950645E+00  3.37200146E+00 -2.75557565E-06  2.63950801E+00
  3.37200026E+00  2.49577702E-05 -1.12905985E-06 -4.19824388E+00  3.73087897E-05
Force Field                                I                0
Int Atom Types                             I   N=          10
           0           0           0           0           0           0
           0           0           0           0
MM charges                                 R   N=          10
  0.00000000E+00  0.00000000E+00  0.00000000E+00  0.00000000E+00  0.00000000E+00
  0.00000000E+00  0.00000000E+00  0.00000000E+00  0.00000000E+00  0.00000000E+00
Integer atomic weights                     I   N=          10
          12          12          14          12          14           1
           1           1           1           1
Real atomic weights                        R   N=          10
  1.20000000E+01  1.20000000E+01  1.40030740E+01  1.20000000E+01  1.40030740E+01
  1.00782504E+00  1.00782504E+00  1.00782504E+00  1.00782504E+00  1.00782504E+00
Atom fragment info                         I   N=          10
           0           0           0           0           0           0
           0           0           0           0
Atom residue num                           I   N=          10
           0           0           0           0           0           0
           0           0           0           0
Nuclear spins                              I   N=          10
           0           0           2           0           2           1
           1           1           1           1
Nuclear ZEff                               R   N=          10
 -3.60000000E+00 -3.60000000E+00 -4.55000000E+00 -3.60000000E+00 -4.55000000E+00
 -1.00000000E+00 -1.00000000E+00 -1.00000000E+00 -1.00000000E+00 -1.00000000E+00
Nuclear QMom                               R   N=          10
  0.00000000E+00  0.00000000E+00  2.04400000E+00  0.00000000E+00  2.04400000E+00
  0.00000000E+00  0.00000000E+00  0.00000000E+00  0.00000000E+00  0.00000000E+00
Nuclear GFac                               R   N=          10
  0.00000000E+00  0.00000000E+00  4.03761000E-01  0.00000000E+00  4.03761000E-01
  2.79284600E+00  2.79284600E+00  2.79284600E+00  2.79284600E+00  2.79284600E+00
MicOpt                                     I   N=          10
          -1          -1          -1          -1          -1          -1
          -1          -1          -1          -1
Number of contracted shells                I               30
Number of primitive shells                 I               75
Pure/Cartesian d shells                    I                1
Pure/Cartesian f shells                    I                0
Highest angular momentum                   I                2
Largest degree of contraction              I                6
Shell types                                I   N=          30
           0          -1          -1           2           0          -1
          -1           2           0          -1          -1           2
           0          -1          -1           2           0          -1
          -1           2           0           0           0           0
           0           0           0           0           0           0
Number of primitives per shell             I   N=          30
           6           3           1           1           6           3
           1           1           6           3           1           1
           6           3           1           1           6           3
           1           1           3           1           3           1
           3           1           3           1           3           1
Shell to atom map                          I   N=          30
           1           1           1           1           2           2
           2           2           3           3           3           3
           4           4           4           4           5           5
           5           5           6           6           7           7
           8           8           9           9          10          10
Primitive exponents                        R   N=          75
  3.04752488E+03  4.57369518E+02  1.03948685E+02  2.92101553E+01  9.28666296E+00
  3.16392696E+00  7.86827235E+00  1.88128854E+00  5.44249258E-01  1.68714478E-01
  8.00000000E-01  3.04752488E+03  4.57369518E+02  1.03948685E+02  2.92101553E+01
  9.28666296E+00  3.16392696E+00  7.86827235E+00  1.88128854E+00  5.44249258E-01
  1.68714478E-01  8.00000000E-01  4.17351146E+03  6.27457911E+02  1.42902093E+02
  4.02343293E+01  1.28202129E+01  4.39043701E+00  1.16263619E+01  2.71627981E+00
  7.72218397E-01  2.12031498E-01  8.00000000E-01  3.04752488E+03  4.57369518E+02
  1.03948685E+02  2.92101553E+01  9.28666296E+00  3.16392696E+00  7.86827235E+00
  1.88128854E+00  5.44249258E-01  1.68714478E-01  8.00000000E-01  4.17351146E+03
  6.27457911E+02  1.42902093E+02  4.02343293E+01  1.28202129E+01  4.39043701E+00
  1.16263619E+01  2.71627981E+00  7.72218397E-01  2.12031498E-01  8.00000000E-01
  1.87311370E+01  2.82539436E+00  6.40121692E-01  1.61277759E-01  1.87311370E+01
  2.82539436E+00  6.40121692E-01  1.61277759E-01  1.87311370E+01  2.82539436E+00
  6.40121692E-01  1.61277759E-01  1.87311370E+01  2.82539436E+00  6.40121692E-01
  1.61277759E-01  1.87311370E+01  2.82539436E+00  6.40121692E-01  1.61277759E-01
Contraction coefficients                   R   N=          75
  1.83473713E-03  1.40373228E-02  6.88426223E-02  2.32184443E-01  4.67941348E-01
  3.62311985E-01 -1.19332420E-01 -1.60854152E-01  1.14345644E+00  1.00000000E+00
  1.00000000E+00  1.83473713E-03  1.40373228E-02  6.88426223E-02  2.32184443E-01
  4.67941348E-01  3.62311985E-01 -1.19332420E-01 -1.60854152E-01  1.14345644E+00
  1.00000000E+00  1.00000000E+00  1.83477216E-03  1.39946270E-02  6.85865518E-02
  2.32240873E-01  4.69069948E-01  3.60455199E-01 -1.14961182E-01 -1.69117479E-01
  1.14585195E+00  1.00000000E+00  1.00000000E+00  1.83473713E-03  1.40373228E-02
  6.88426223E-02  2.32184443E-01  4.67941348E-01  3.62311985E-01 -1.19332420E-01
 -1.60854152E-01  1.14345644E+00  1.00000000E+00  1.00000000E+00  1.83477216E-03
  1.39946270E-02  6.85865518E-02  2.32240873E-01  4.69069948E-01  3.60455199E-01
 -1.14961182E-01 -1.69117479E-01  1.14585195E+00  1.00000000E+00  1.00000000E+00
  3.34946043E-02  2.34726953E-01  8.13757326E-01  1.00000000E+00  3.34946043E-02
  2.34726953E-01  8.13757326E-01  1.00000000E+00  3.34946043E-02  2.34726953E-01
  8.13757326E-01  1.00000000E+00  3.34946043E-02  2.34726953E-01  8.13757326E-01
  1.00000000E+00  3.34946043E-02  2.34726953E-01  8.13757326E-01  1.00000000E+00
P(S=P) Contraction coefficients            R   N=          75
  0.00000000E+00  0.00000000E+00  0.00000000E+00  0.00000000E+00  0.00000000E+00
  0.00000000E+00  6.89990666E-02  3.16423961E-01  7.44308291E-01  1.00000000E+00
  0.00000000E+00  0.00000000E+00  0.00000000E+00  0.00000000E+00  0.00000000E+00
  0.00000000E+00  0.00000000E+00  6.89990666E-02  3.16423961E-01  7.44308291E-01
  1.00000000E+00  0.00000000E+00  0.00000000E+00  0.00000000E+00  0.00000000E+00
  0.00000000E+00  0.00000000E+00  0.00000000E+00  6.75797439E-02  3.23907296E-01
  7.40895140E-01  1.00000000E+00  0.00000000E+00  0.00000000E+00  0.00000000E+00
  0.00000000E+00  0.00000000E+00  0.00000000E+00  0.00000000E+00  6.89990666E-02
  3.16423961E-01  7.44308291E-01  1.00000000E+00  0.00000000E+00  0.00000000E+00
  0.00000000E+00  0.00000000E+00  0.00000000E+00  0.00000000E+00  0.00000000E+00
  6.75797439E-02  3.23907296E-01  7.40895140E-01  1.00000000E+00  0.00000000E+00
  0.00000000E+00  0.00000000E+00  0.00000000E+00  0.00000000E+00  0.00000000E+00
  0.00000000E+00  0.00000000E+00  0.00000000E+00  0.00000000E+00  0.00000000E+00
  0.00000000E+00  0.00000000E+00  0.00000000E+00  0.00000000E+00  0.00000000E+00
  0.00000000E+00  0.00000000E+00  0.00000000E+00  0.00000000E+00  0.00000000E+00
Coordinates of each shell                  R   N=          90
 -1.29508602E+00  1.84099449E+00  5.33452529E-08 -1.29508602E+00  1.84099449E+00
  5.33452529E-08 -1.29508602E+00  1.84099449E+00  5.33452529E-08 -1.29508602E+00
  1.84099449E+00  5.33452529E-08  1.29508694E+00  1.84099387E+00  1.54227264E-05
  1.29508694E+00  1.84099387E+00  1.54227264E-05  1.29508694E+00  1.84099387E+00
  1.54227264E-05  1.29508694E+00  1.84099387E+00  1.54227264E-05  2.02798071E+00
 -6.51123551E-01 -2.23597350E-05  2.02798071E+00 -6.51123551E-01 -2.23597350E-05
  2.02798071E+00 -6.51123551E-01 -2.23597350E-05  2.02798071E+00 -6.51123551E-01
 -2.23597350E-05 -4.99873472E-07 -2.16007532E+00  2.42017770E-05 -4.99873472E-07
 -2.16007532E+00  2.42017770E-05 -4.99873472E-07 -2.16007532E+00  2.42017770E-05
 -4.99873472E-07 -2.16007532E+00  2.42017770E-05 -2.02798103E+00 -6.51122593E-01
 -1.09544949E-05 -2.02798103E+00 -6.51122593E-01 -1.09544949E-05 -2.02798103E+00
 -6.51122593E-01 -1.09544949E-05 -2.02798103E+00 -6.51122593E-01 -1.09544949E-05
 -3.84484765E+00 -1.28075559E+00 -2.19221072E-05 -3.84484765E+00 -1.28075559E+00
 -2.19221072E-05  3.84484701E+00 -1.28075749E+00 -4.24563595E-05  3.84484701E+00
 -1.28075749E+00 -4.24563595E-05 -2.63950645E+00  3.37200146E+00 -2.75557565E-06
 -2.63950645E+00  3.37200146E+00 -2.75557565E-06  2.63950801E+00  3.37200026E+00
  2.49577702E-05  2.63950801E+00  3.37200026E+00  2.49577702E-05 -1.12905985E-06
 -4.19824388E+00  3.73087897E-05 -1.12905985E-06 -4.19824388E+00  3.73087897E-05
Constraint Structure                       R   N=          30
 -1.29508602E+00  1.84099449E+00  5.33452529E-08  1.29508694E+00  1.84099387E+00
  1.54227264E-05  2.02798071E+00 -6.51123551E-01 -2.23597350E-05 -4.99873472E-07
 -2.16007532E+00  2.42017770E-05 -2.02798103E+00 -6.51122593E-01 -1.09544949E-05
 -3.84484765E+00 -1.28075559E+00 -2.19221072E-05  3.84484701E+00 -1.28075749E+00
 -4.24563595E-05 -2.63950645E+00  3.37200146E+00 -2.75557565E-06  2.63950801E+00
  3.37200026E+00  2.49577702E-05 -1.12905985E-06 -4.19824388E+00  3.73087897E-05
Num ILSW                                   I              100
ILSW                                       I   N=         100
           0           1           0           0           2           0
           0           0           0           0           0          -1
           0           0           0           0           0           0
           0           0           0           0           1           0
           1           0           0           0           0           0
           0           0      100000           0          -1           0
           0           0           0           0           0           0
           0           0           0           1           1           0
           0           0           1           0           0           0
           0           0           4          40           0           0
           0           0           0           0           0           0
           0           0           0           0           0           0
           0           0           0           0           0           0
           0           0           0           0           0           0
           0           0           0           0           0           0
           0           0           0           0           0           0
           0           0           0           0
Num RLSW                                   I               40
RLSW                                       R   N=          40
  1.00000000E+00  1.00000000E+00  1.00000000E+00  1.00000000E+00  1.00000000E+00
  0.00000000E+00  0.00000000E+00  1.00000000E+00  0.00000000E+00  0.00000000E+00
  0.00000000E+00  0.00000000E+00  1.00000000E+00  0.00000000E+00  0.00000000E+00
  0.00000000E+00  0.00000000E+00  1.00000000E+00  0.00000000E+00  0.00000000E+00
  0.00000000E+00  0.00000000E+00  1.00000000E+00  0.00000000E+00  0.00000000E+00
  0.00000000E+00  0.00000000E+00  1.00000000E+00  0.00000000E+00  0.00000000E+00
  0.00000000E+00  0.00000000E+00  0.00000000E+00  0.00000000E+00  0.00000000E+00
  0.00000000E+00  0.00000000E+00  0.00000000E+00  1.00000000E+00  1.00000000E+00
MxBond                                     I                3
NBond                                      I   N=          10
           3           3           3           3           3           1
           1           1           1           1
IBond                                      I   N=          30
           2           5           8           1           3           9
           2           4           7           3           5          10
           1           4           6           5           0           0
           3           0           0           1           0           0
           2           0           0           4           0           0
RBond                                      R   N=          30
  1.50000000E+00  1.00000000E+00  1.00000000E+00  1.50000000E+00  1.00000000E+00
  1.00000000E+00  1.00000000E+00  1.50000000E+00  1.00000000E+00  1.50000000E+00
  1.50000000E+00  1.00000000E+00  1.00000000E+00  1.50000000E+00  1.00000000E+00
  1.00000000E+00  0.00000000E+00  0.00000000E+00  1.00000000E+00  0.00000000E+00
  0.00000000E+00  1.00000000E+00  0.00000000E+00  0.00000000E+00  1.00000000E+00
  0.00000000E+00  0.00000000E+00  1.00000000E+00  0.00000000E+00  0.00000000E+00
Virial Ratio                               R      2.003519173801685E+00
SCF Energy                                 R     -2.252832311356860E+02
MP2 Energy                                 R     -2.259815130686951E+02
Total Energy                               R     -2.259815130686951E+02
Post-SCF wavefunction norm                 R      1.570479244402351E+00
RMS Force                                  R      1.729136569671350E-06
RMS Density                                R      1.001032506201025E-09
External E-field                           R   N=          35
  0.00000000E+00  0.00000000E+00  0.00000000E+00  0.00000000E+00  0.00000000E+00
  0.00000000E+00  0.00000000E+00  0.00000000E+00  0.00000000E+00  0.00000000E+00
  0.00000000E+00  0.00000000E+00  0.00000000E+00  0.00000000E+00  0.00000000E+00
  0.00000000E+00  0.00000000E+00  0.00000000E+00  0.00000000E+00  0.00000000E+00
  0.00000000E+00  0.00000000E+00  0.00000000E+00  0.00000000E+00  0.00000000E+00
  0.00000000E+00  0.00000000E+00  0.00000000E+00  0.00000000E+00  0.00000000E+00
  0.00000000E+00  0.00000000E+00  0.00000000E+00  0.00000000E+00  0.00000000E+00
IOpCl                                      I                0
IROHF                                      I                0
Alpha Orbital Energies                     R   N=          85
 -1.56869698E+01 -1.56869350E+01 -1.13852255E+01 -1.13132251E+01 -1.13118427E+01
 -1.42605637E+00 -1.26165650E+00 -1.07850256E+00 -9.25402464E-01 -8.77692219E-01
 -8.22729621E-01 -7.25159662E-01 -6.69248411E-01 -6.65405056E-01 -6.50985933E-01
 -6.37859713E-01 -4.93251332E-01 -3.75690527E-01  1.21975556E-01  1.67993682E-01
  1.97538680E-01  2.39457241E-01  2.65579381E-01  2.86629470E-01  2.87822706E-01
  3.54152394E-01  3.55958986E-01  4.44537950E-01  4.58287411E-01  6.15919270E-01
  6.52671042E-01  7.10286491E-01  7.50197508E-01  7.59931403E-01  7.72814866E-01
  7.88024379E-01  7.96463940E-01  8.20419796E-01  8.23995928E-01  9.72774154E-01
  9.91614424E-01  9.94464386E-01  1.03141808E+00  1.07227667E+00  1.07816555E+00
  1.10029019E+00  1.16314008E+00  1.17130639E+00  1.19208841E+00  1.39280479E+00
  1.42696396E+00  1.48877344E+00  1.50953549E+00  1.51146769E+00  1.54779965E+00
  1.57666963E+00  1.61701067E+00  1.75221319E+00  1.76399618E+00  1.85291900E+00
  2.02967275E+00  2.19077864E+00  2.25689210E+00  2.33145442E+00  2.33207417E+00
  2.41961718E+00  2.48022243E+00  2.48264587E+00  2.50889557E+00  2.56858382E+00
  2.60632887E+00  2.60935114E+00  2.83929353E+00  2.85514968E+00  2.94670922E+00
  2.97992312E+00  3.00266103E+00  3.26213132E+00  3.35260934E+00  3.36442563E+00
  4.23707782E+00  4.36325532E+00  4.48277550E+00  4.60728830E+00  4.74440351E+00
Alpha MO coefficients                      R   N=        7225
  2.20983155E-06 -8.97132301E-05  3.59936829E-05  1.45795811E-04  1.81564559E-09
 -2.81185291E-03 -1.04895085E-03  1.53814940E-03 -6.51658499E-09  5.86764688E-05
  9.76577311E-05  7.36449989E-05 -7.59174587E-06 -7.86391628E-10  7.19462935E-10
 -2.20765104E-06  8.97252639E-05  3.60033022E-05 -1.45812072E-04 -2.94263795E-09
  2.81191015E-03 -1.04895829E-03 -1.53818851E-03 -1.45296040E-08 -5.86783678E-05
 -9.76612836E-05 -7.36476394E-05 -7.58984877E-06  1.15325878E-09  8.83327646E-10
  7.03576655E-01  1.79032246E-02 -2.84455757E-04 -3.44292472E-05  2.56390702E-08
 -2.49570714E-03  8.94272323E-04 -5.28590894E-04 -3.40456314E-08 -2.37707035E-03
 -2.44366424E-03 -2.41867499E-03  2.99648344E-05  2.18696676E-09  1.66489998E-10
  2.28188473E-09  1.45460981E-08  2.91613405E-04  6.02783193E-09 -2.89643534E-11
  1.13040708E-07  4.31696021E-04  7.17742915E-08 -1.15550508E-09 -7.79950607E-09
 -6.71840952E-09 -2.51159643E-09 -8.98433654E-05  6.30429200E-09 -4.57359346E-10
 -7.03517618E-01 -1.79017269E-02 -2.84435177E-04  3.44300828E-05 -1.45994469E-08
  2.49547137E-03  8.94177148E-04  5.28574857E-04  1.49812634E-08  2.37687752E-03
  2.44346387E-03  2.41846942E-03  2.99665685E-05 -9.73320063E-12 -1.64507217E-09
 -1.09350856E-04  2.73753792E-05  1.09356682E-04 -2.73740814E-05 -4.77851821E-05
 -4.76732254E-04  4.77838851E-05  4.76740764E-04  9.48538827E-10  1.73716808E-08
  2.59277277E-05  1.43388715E-04 -1.15491924E-04 -1.93522475E-04  3.32083368E-10
  6.81296531E-04  7.97910562E-05 -4.71095365E-04 -3.10897760E-09 -2.26459112E-05
 -4.24976843E-05 -3.15376598E-05 -2.28155196E-05 -1.35202642E-09  1.56529821E-09
  2.59279149E-05  1.43381191E-04  1.15488811E-04 -1.93510284E-04 -7.39854364E-10
  6.81060731E-04 -7.97034031E-05 -4.70966360E-04 -8.90020535E-09 -2.26409726E-05
 -4.24895199E-05 -3.15314782E-05  2.28161420E-05  2.62969192E-09  1.86857678E-10
  7.03530724E-01  1.78465595E-02 -2.44548621E-04  8.41414649E-06  2.58212325E-08
 -2.80620669E-03  1.13560605E-03 -1.85182916E-04 -3.37740712E-08 -2.29819051E-03
 -2.38753377E-03 -2.44959118E-03 -2.02601339E-05  2.38136556E-09 -1.87045317E-09
  5.42928794E-05  3.46397755E-04 -1.22058393E-08  1.45548020E-04 -2.21132196E-09
  2.69289497E-03 -1.76207883E-08  1.70907260E-03 -2.80292578E-08 -1.84875226E-04
 -1.60957472E-04 -6.00204657E-05  3.77146538E-09  4.52043340E-10  3.35951833E-11
  7.03589760E-01  1.78480617E-02  2.44572452E-04  8.41115939E-06  1.64773350E-08
 -2.80641583E-03 -1.13568109E-03 -1.85226775E-04 -2.17356483E-08 -2.29838994E-03
 -2.38773884E-03 -2.44979413E-03  2.02575726E-05 -2.86164402E-09 -8.08526141E-10
  6.94811416E-05  1.59604350E-05  6.94719791E-05  1.59627207E-05 -1.55326019E-05
  1.01065678E-04 -1.55365950E-05  1.01025746E-04  2.20022511E-05  4.11806903E-04
 -2.36407980E-04 -2.22850565E-04 -1.85082763E-04 -1.88508085E-04 -3.80085054E-10
  5.20331143E-04  9.61094832E-04 -1.26792447E-03 -9.37932707E-10  2.04641887E-05
  3.19371891E-04 -4.06335364E-05 -3.94609666E-05 -2.35977601E-09  4.36071770E-10
 -2.36407971E-04 -2.22850579E-04  1.85082670E-04 -1.88508180E-04 -3.52747583E-09
  5.20331570E-04 -9.61095756E-04 -1.26792435E-03 -3.55876649E-10  2.04642358E-05
  3.19371872E-04 -4.06335393E-05  3.94611431E-05  2.94302840E-09  1.14045069E-09
 -2.91214308E-04  4.39833817E-04 -2.94646794E-05  4.59896924E-05 -4.00598338E-10
 -1.40761845E-03  2.30491579E-03 -5.93586513E-04 -5.37079818E-08 -4.88878423E-04
 -2.74687650E-04  2.06249838E-04 -1.56910483E-04  2.16318256E-08  2.03696434E-09
  9.95655972E-01  2.67962170E-02  3.71307944E-10  1.33697022E-03 -3.66910722E-08
 -5.24081993E-03  7.84737186E-10  1.85401031E-03 -1.14334431E-08 -1.50041036E-03
 -1.19324975E-03 -2.58085838E-03  1.92679324E-10 -2.32337494E-09 -2.75399180E-08
 -2.91214298E-04  4.39833757E-04  2.94647366E-05  4.59896604E-05  8.31310632E-10
 -1.40761753E-03 -2.30491580E-03 -5.93585524E-04 -3.63914468E-08 -4.88878278E-04
 -2.74687789E-04  2.06249792E-04  1.56910585E-04 -1.53826325E-08  4.14309599E-09
 -2.24831795E-04 -6.62646258E-04 -2.24831762E-04 -6.62646229E-04  8.99544149E-05
  7.80800290E-04  8.99544303E-05  7.80800476E-04 -1.86618224E-04  2.42035067E-03
  7.03829749E-01  1.92352601E-02 -2.29868863E-04 -9.62297238E-04  3.97282141E-10
 -3.77866218E-03  5.00756967E-04 -2.57833746E-04 -1.23380758E-08 -1.39422722E-03
 -1.18890770E-03 -1.78258578E-03 -4.24231470E-05 -2.46705747E-09  2.14484499E-09
  7.03829442E-01  1.92352517E-02  2.29868470E-04 -9.62296996E-04 -1.57416810E-08
 -3.77865709E-03 -5.00758413E-04 -2.57834093E-04 -3.97515664E-09 -1.39422687E-03
 -1.18890734E-03 -1.78258508E-03  4.24231935E-05  4.25092692E-09  8.23343816E-09
 -9.27628099E-05  5.66508880E-04 -6.90593049E-05  9.40915793E-05  1.88875242E-09
 -3.57378409E-03  2.78663246E-03 -4.90776384E-04 -7.02957496E-08 -3.48118409E-05
 -3.19085112E-04  2.90747226E-04  1.11871831E-06  1.70617743E-08 -1.09722209E-08
  3.23264261E-04 -3.67447765E-04  3.62336405E-11  1.42559689E-04 -9.65517124E-09
  4.66750519E-03  1.70769981E-09  5.12929304E-03 -4.99605257E-08  2.40808875E-04
  4.12802858E-04 -1.14041042E-04  3.98069467E-11 -3.25617768E-10 -1.02019573E-08
 -9.27629207E-05  5.66508848E-04  6.90593207E-05  9.40915534E-05  9.35814236E-10
 -3.57378222E-03 -2.78663247E-03 -4.90775302E-04 -4.15548836E-08 -3.48119960E-05
 -3.19085404E-04  2.90747171E-04 -1.11898746E-06 -1.23239480E-08 -2.48192466E-09
 -2.48250548E-04 -6.22687783E-04 -2.48250501E-04 -6.22687667E-04 -2.12035610E-04
  1.31140593E-03 -2.12035505E-04  1.31140563E-03  1.97251872E-04  1.97477410E-03
  7.04212654E-01  1.94708992E-02  1.17117928E-04 -9.43084540E-04 -6.18503278E-10
 -1.03213093E-02 -2.31671414E-03  4.23201984E-04 -1.19665033E-08 -8.98476641E-04
 -8.16187482E-04 -1.67190029E-03 -1.44541073E-04  3.34735222E-09  1.87802797E-09
 -7.04212960E-01 -1.94709076E-02  1.17118283E-04  9.43084955E-04  2.15952304E-08
  1.03213109E-02 -2.31671411E-03 -4.23200652E-04 -2.49920450E-08  8.98477178E-04
  8.16188078E-04  1.67190110E-03 -1.44541126E-04 -3.24659846E-09 -1.04323033E-08
  2.34940401E-04 -1.48447041E-04 -5.26782926E-05  2.35816320E-05  3.63353299E-09
 -1.91267915E-03 -2.92050764E-04  5.55584385E-04  1.90666242E-09  3.16678224E-04
  6.59992379E-04 -7.17882245E-06 -2.28776883E-04 -4.23599371E-09  1.17882622E-08
 -6.49252231E-11  8.03088949E-11 -5.32580267E-05 -2.65441323E-11  1.61852281E-09
 -9.89719863E-10  6.84737587E-04 -1.27650811E-09 -1.12954947E-08 -1.02199766E-10
 -6.08107081E-11  2.29474734E-11 -1.07462135E-04  2.39257061E-10 -1.70939058E-09
 -2.34940347E-04  1.48446803E-04 -5.26783234E-05 -2.35816239E-05 -2.67071068E-09
  1.91268077E-03 -2.92049734E-04 -5.55583934E-04  7.57820894E-09 -3.16678393E-04
 -6.59992028E-04  7.17869991E-06 -2.28777075E-04 -2.40120070E-09 -4.51776621E-09
 -9.97641855E-05 -3.49414707E-04  9.97643098E-05  3.49415003E-04 -1.71250256E-04
  1.08590352E-03  1.71250330E-04 -1.08590414E-03 -2.86576738E-11 -4.37067349E-10
 -6.36421437E-02  1.19171592E-01  2.21048599E-02 -7.23044148E-02 -1.00956320E-07
  3.34305244E-02 -1.61952739E-03  1.06437448E-02  1.26454349E-07  2.16737816E-03
  1.19820173E-02 -7.74232960E-03  7.57911885E-04  9.01963048E-08  3.74274454E-08
 -6.36421468E-02  1.19171598E-01 -2.21048926E-02 -7.23044101E-02 -9.71240642E-07
  3.34305201E-02  1.61953593E-03  1.06437494E-02  2.32411400E-07  2.16737649E-03
  1.19820191E-02 -7.74233000E-03 -7.57906727E-04 -3.62887757E-08  2.63813273E-07
 -1.21907651E-01  2.49872852E-01 -7.15320802E-02  4.69929546E-03  1.71279623E-06
  2.66181797E-01 -5.15366354E-02  6.44712960E-03  1.25561354E-06  1.41908100E-02
  5.82279631E-03 -9.82806541E-03 -4.60696279E-04 -5.49081604E-07  8.30011664E-08
 -1.01902397E-01  2.01140422E-01  3.14050649E-08  1.05940902E-01 -2.28734744E-06
  6.39716845E-03 -1.47759983E-08 -4.97785255E-02  8.63056578E-07  1.05082281E-02
  9.26489155E-03 -1.29027726E-02  1.23048950E-09 -7.20574942E-08 -4.38297576E-07
 -1.21907641E-01  2.49872832E-01  7.15320790E-02  4.69926128E-03  9.44680455E-07
  2.66181771E-01  5.15366370E-02  6.44710519E-03  7.63026585E-07  1.41908107E-02
  5.82279513E-03 -9.82806456E-03  4.60691218E-04  3.60218282E-07 -3.73882746E-08
  4.55362505E-02  9.06763008E-04  4.55362542E-02  9.06761697E-04  1.32230526E-02
 -6.22210690E-03  1.32230528E-02 -6.22210962E-03  2.32746894E-02 -1.96827453E-02
  4.78025846E-02 -9.44169529E-02  4.92832487E-02  7.58753001E-02  2.71977833E-07
  1.01784022E-03  1.75522535E-02 -2.92565373E-02  1.77544122E-08  5.69414032E-03
 -1.58959926E-02  5.46226295E-03 -6.64327978E-03 -3.36996301E-08 -9.05487797E-08
 -4.78025813E-02  9.44169466E-02  4.92832120E-02 -7.58753216E-02 -9.86379493E-07
 -1.01784510E-03  1.75522667E-02  2.92565300E-02  3.12078114E-07 -5.69414649E-03
  1.58959975E-02 -5.46226260E-03 -6.64326755E-03 -1.15222858E-07  3.05786621E-07
 -1.44846651E-01  3.06236080E-01  1.36701606E-03  1.00521352E-02  1.48363673E-06
  3.32738155E-01 -7.10586312E-03  1.39532452E-02  9.89792069E-07  1.11618206E-02
  8.83944724E-03 -8.80655289E-03 -4.71325139E-03 -4.30210822E-07  1.42904585E-07
  2.52545469E-09 -4.89584717E-09  1.63554083E-01 -3.84480196E-08 -3.84105203E-07
 -9.49617061E-10  2.99084017E-03 -9.64134662E-10 -2.02074954E-08  9.93948115E-09
 -1.11599729E-08  2.23450560E-10  2.56135166E-02 -6.11306601E-07 -6.15593897E-08
  1.44846658E-01 -3.06236095E-01  1.36700818E-03 -1.00521371E-02 -8.84211868E-07
 -3.32738171E-01 -7.10587329E-03 -1.39532415E-02 -4.57281017E-07 -1.11618264E-02
 -8.83944292E-03  8.80655350E-03 -4.71325000E-03 -2.56262665E-07  2.37014189E-08
 -8.69288449E-02  2.17285933E-03  8.69288405E-02 -2.17285960E-03 -1.85827748E-02
  8.73111855E-03  1.85827725E-02 -8.73111876E-03 -3.71641513E-09 -1.23692243E-09
 -1.27836753E-01  2.53157794E-01  8.40134211E-02 -1.01634763E-02  3.03888670E-07
  1.69398685E-01  1.13745078E-02  6.42768195E-03  1.00600634E-07  1.51525960E-02
  1.80339175E-03 -1.06433342E-02 -3.65191165E-03  1.65629583E-07  3.05647947E-08
 -1.27836756E-01  2.53157800E-01 -8.40134234E-02 -1.01634388E-02 -1.17374488E-06
  1.69398685E-01 -1.13745020E-02  6.42769014E-03  5.37933757E-08  1.51525980E-02
  1.80339023E-03 -1.06433345E-02  3.65190400E-03  9.57390133E-08  2.28343799E-07
  2.34008424E-02 -5.29652018E-02  1.90961181E-02  1.77524233E-01 -1.03184663E-07
 -5.39233045E-02 -3.80845051E-03  7.18948626E-02  1.85203373E-07 -8.36776676E-03
  6.71469176E-03 -2.48607581E-04 -1.17360924E-02  1.34046847E-07  3.78022541E-07
  1.10241910E-01 -2.31673071E-01 -5.25546003E-09 -5.96832663E-03  2.04045113E-06
 -1.46168800E-01  7.78001248E-10  3.05330296E-03 -1.97598424E-08 -1.28707769E-02
 -3.17079955E-03  1.08497248E-02  8.38776596E-10  8.80674600E-08  3.82966958E-07
  2.34008416E-02 -5.29651999E-02 -1.90960331E-02  1.77524228E-01 -5.31100262E-07
 -5.39233039E-02  3.80848166E-03  7.18948556E-02 -1.23326178E-08 -8.36775724E-03
  6.71468218E-03 -2.48607516E-04  1.17361010E-02 -1.06951871E-07  1.90040503E-07
 -3.14090731E-02  3.46385433E-03 -3.14090771E-02  3.46385554E-03  6.44717259E-02
  7.41765584E-03  6.44717283E-02  7.41765492E-03 -7.50117019E-02 -1.25666295E-02
  2.49659193E-02 -4.65921506E-02 -1.34315591E-01 -3.08175168E-02 -1.21479172E-06
 -4.13918191E-02 -1.66276844E-02 -1.06562280E-02 -3.90511697E-07 -5.03769774E-03
  4.87034621E-03  1.95592070E-03  1.03318681E-02 -1.15534847E-07  1.50184945E-07
  2.49659185E-02 -4.65921486E-02  1.34315576E-01 -3.08175851E-02 -8.03767307E-07
 -4.13918165E-02  1.66276770E-02 -1.06562380E-02 -2.18456801E-07 -5.03770697E-03
  4.87035488E-03  1.95592065E-03 -1.03318630E-02 -1.85402113E-07  2.34196843E-07
 -6.32940946E-02  1.43504118E-01  2.71109943E-01  4.26116808E-02 -3.41016628E-06
  1.70546534E-01  1.60810728E-01  9.07315476E-03 -2.03228368E-06  1.02792616E-02
  2.26263470E-03 -1.48814319E-03 -1.22167065E-02  1.87815442E-07  2.70371855E-07
  9.82105462E-02 -2.08348863E-01 -4.72253890E-09 -4.19586334E-02  9.03470429E-07
 -1.09412822E-01  1.33851351E-08  4.03529838E-02 -7.00278459E-07  5.28759523E-03
 -1.93288180E-02  1.07994284E-02 -7.31301749E-09  3.95538153E-08  4.08366782E-07
 -6.32940949E-02  1.43504118E-01 -2.71109925E-01  4.26118130E-02 -2.49560766E-06
  1.70546539E-01 -1.60810722E-01  9.07323340E-03 -1.45519781E-06  1.02792723E-02