58862802                                                                
Freq      RMP2-FC                                                     6-31G(d)            
Number of atoms                            I               24
Info1-9                                    I   N=           9
          36          34        1002           0           0         100
           6           2           1
Charge                                     I                1
Multiplicity                               I                1
Number of electrons                        I               64
Number of alpha electrons                  I               32
Number of beta electrons                   I               32
Number of basis functions                  I              152
Number of independent functions            I              152
Number of point charges in /Mol/           I                0
Number of translation vectors              I                0
Atomic numbers                             I   N=          24
           7           6           6           6           6           6
           6           6           1           1           1           1
           1           1           1           1           1           1
           1           1           1           1           1           1
Nuclear charges                            R   N=          24
  7.00000000E+00  6.00000000E+00  6.00000000E+00  6.00000000E+00  6.00000000E+00
  6.00000000E+00  6.00000000E+00  6.00000000E+00  1.00000000E+00  1.00000000E+00
  1.00000000E+00  1.00000000E+00  1.00000000E+00  1.00000000E+00  1.00000000E+00
  1.00000000E+00  1.00000000E+00  1.00000000E+00  1.00000000E+00  1.00000000E+00
  1.00000000E+00  1.00000000E+00  1.00000000E+00  1.00000000E+00
Current cartesian coordinates              R   N=          72
 -2.74942867E+00 -1.19360503E-02 -7.39485298E-01  1.45519803E+00 -1.28877456E+00
  6.25422032E-01  1.58505273E+00  1.30941700E+00 -6.56427442E-01 -1.09087576E+00
 -2.33459484E+00 -2.49560847E-01 -1.09070605E+00  2.28657925E+00 -2.83255820E-01
  3.63640426E+00 -3.06882172E+00  2.16224902E-02  3.57808274E+00  3.09195927E+00
  4.09047090E-01 -5.15652705E+00  2.19375503E-02  7.43307905E-01  1.37709269E+00
 -9.77871584E-01  2.67746438E+00  1.92661481E+00  1.03068213E+00 -2.68834438E+00
 -3.22923994E+00 -1.64994541E-02 -2.61941795E+00 -9.25179641E-01 -3.36026057E+00
 -2.03555856E+00 -2.04207257E+00 -3.54068502E+00  1.12808098E+00 -1.39858888E+00
  2.87502982E+00  1.67504969E+00 -1.68547017E+00  3.80419859E+00 -1.55138095E+00
  5.41916973E+00 -2.29260338E+00  7.13504602E-01  3.36928278E+00 -4.91017651E+00
  9.20562793E-01  3.80156238E+00 -3.35809671E+00 -2.01983860E+00  5.47012981E+00
  2.32214081E+00  1.14883959E-01  3.50351645E+00  4.93643620E+00 -5.18870889E-01
  3.30018602E+00  3.37023451E+00  2.43970772E+00 -4.67677014E+00 -7.04242318E-02
  2.74368598E+00 -6.16539702E+00  1.77074809E+00  3.31330980E-01 -6.29860908E+00
 -1.60551207E+00  2.04604871E-01
Force Field                                I                0
Int Atom Types                             I   N=          24
           0           0           0           0           0           0
           0           0           0           0           0           0
           0           0           0           0           0           0
           0           0           0           0           0           0
MM charges                                 R   N=          24
  0.00000000E+00  0.00000000E+00  0.00000000E+00  0.00000000E+00  0.00000000E+00
  0.00000000E+00  0.00000000E+00  0.00000000E+00  0.00000000E+00  0.00000000E+00
  0.00000000E+00  0.00000000E+00  0.00000000E+00  0.00000000E+00  0.00000000E+00
  0.00000000E+00  0.00000000E+00  0.00000000E+00  0.00000000E+00  0.00000000E+00
  0.00000000E+00  0.00000000E+00  0.00000000E+00  0.00000000E+00
Integer atomic weights                     I   N=          24
          14          12          12          12          12          12
          12          12           1           1           1           1
           1           1           1           1           1           1
           1           1           1           1           1           1
Real atomic weights                        R   N=          24
  1.40030740E+01  1.20000000E+01  1.20000000E+01  1.20000000E+01  1.20000000E+01
  1.20000000E+01  1.20000000E+01  1.20000000E+01  1.00782504E+00  1.00782504E+00
  1.00782504E+00  1.00782504E+00  1.00782504E+00  1.00782504E+00  1.00782504E+00
  1.00782504E+00  1.00782504E+00  1.00782504E+00  1.00782504E+00  1.00782504E+00
  1.00782504E+00  1.00782504E+00  1.00782504E+00  1.00782504E+00
Atom fragment info                         I   N=          24
           0           0           0           0           0           0
           0           0           0           0           0           0
           0           0           0           0           0           0
           0           0           0           0           0           0
Atom residue num                           I   N=          24
           0           0           0           0           0           0
           0           0           0           0           0           0
           0           0           0           0           0           0
           0           0           0           0           0           0
Nuclear spins                              I   N=          24
           2           0           0           0           0           0
           0           0           1           1           1           1
           1           1           1           1           1           1
           1           1           1           1           1           1
Nuclear ZEff                               R   N=          24
 -4.55000000E+00 -3.60000000E+00 -3.60000000E+00 -3.60000000E+00 -3.60000000E+00
 -3.60000000E+00 -3.60000000E+00 -3.60000000E+00 -1.00000000E+00 -1.00000000E+00
 -1.00000000E+00 -1.00000000E+00 -1.00000000E+00 -1.00000000E+00 -1.00000000E+00
 -1.00000000E+00 -1.00000000E+00 -1.00000000E+00 -1.00000000E+00 -1.00000000E+00
 -1.00000000E+00 -1.00000000E+00 -1.00000000E+00 -1.00000000E+00
Nuclear QMom                               R   N=          24
  2.04400000E+00  0.00000000E+00  0.00000000E+00  0.00000000E+00  0.00000000E+00
  0.00000000E+00  0.00000000E+00  0.00000000E+00  0.00000000E+00  0.00000000E+00
  0.00000000E+00  0.00000000E+00  0.00000000E+00  0.00000000E+00  0.00000000E+00
  0.00000000E+00  0.00000000E+00  0.00000000E+00  0.00000000E+00  0.00000000E+00
  0.00000000E+00  0.00000000E+00  0.00000000E+00  0.00000000E+00
Nuclear GFac                               R   N=          24
  4.03761000E-01  0.00000000E+00  0.00000000E+00  0.00000000E+00  0.00000000E+00
  0.00000000E+00  0.00000000E+00  0.00000000E+00  2.79284600E+00  2.79284600E+00
  2.79284600E+00  2.79284600E+00  2.79284600E+00  2.79284600E+00  2.79284600E+00
  2.79284600E+00  2.79284600E+00  2.79284600E+00  2.79284600E+00  2.79284600E+00
  2.79284600E+00  2.79284600E+00  2.79284600E+00  2.79284600E+00
MicOpt                                     I   N=          24
          -1          -1          -1          -1          -1          -1
          -1          -1          -1          -1          -1          -1
          -1          -1          -1          -1          -1          -1
          -1          -1          -1          -1          -1          -1
Number of contracted shells                I               64
Number of primitive shells                 I              152
Pure/Cartesian d shells                    I                1
Pure/Cartesian f shells                    I                0
Highest angular momentum                   I                2
Largest degree of contraction              I                6
Shell types                                I   N=          64
           0          -1          -1           2           0          -1
          -1           2           0          -1          -1           2
           0          -1          -1           2           0          -1
          -1           2           0          -1          -1           2
           0          -1          -1           2           0          -1
          -1           2           0           0           0           0
           0           0           0           0           0           0
           0           0           0           0           0           0
           0           0           0           0           0           0
           0           0           0           0           0           0
           0           0           0           0
Number of primitives per shell             I   N=          64
           6           3           1           1           6           3
           1           1           6           3           1           1
           6           3           1           1           6           3
           1           1           6           3           1           1
           6           3           1           1           6           3
           1           1           3           1           3           1
           3           1           3           1           3           1
           3           1           3           1           3           1
           3           1           3           1           3           1
           3           1           3           1           3           1
           3           1           3           1
Shell to atom map                          I   N=          64
           1           1           1           1           2           2
           2           2           3           3           3           3
           4           4           4           4           5           5
           5           5           6           6           6           6
           7           7           7           7           8           8
           8           8           9           9          10          10
          11          11          12          12          13          13
          14          14          15          15          16          16
          17          17          18          18          19          19
          20          20          21          21          22          22
          23          23          24          24
Primitive exponents                        R   N=         152
  4.17351146E+03  6.27457911E+02  1.42902093E+02  4.02343293E+01  1.28202129E+01
  4.39043701E+00  1.16263619E+01  2.71627981E+00  7.72218397E-01  2.12031498E-01
  8.00000000E-01  3.04752488E+03  4.57369518E+02  1.03948685E+02  2.92101553E+01
  9.28666296E+00  3.16392696E+00  7.86827235E+00  1.88128854E+00  5.44249258E-01
  1.68714478E-01  8.00000000E-01  3.04752488E+03  4.57369518E+02  1.03948685E+02
  2.92101553E+01  9.28666296E+00  3.16392696E+00  7.86827235E+00  1.88128854E+00
  5.44249258E-01  1.68714478E-01  8.00000000E-01  3.04752488E+03  4.57369518E+02
  1.03948685E+02  2.92101553E+01  9.28666296E+00  3.16392696E+00  7.86827235E+00
  1.88128854E+00  5.44249258E-01  1.68714478E-01  8.00000000E-01  3.04752488E+03
  4.57369518E+02  1.03948685E+02  2.92101553E+01  9.28666296E+00  3.16392696E+00
  7.86827235E+00  1.88128854E+00  5.44249258E-01  1.68714478E-01  8.00000000E-01
  3.04752488E+03  4.57369518E+02  1.03948685E+02  2.92101553E+01  9.28666296E+00
  3.16392696E+00  7.86827235E+00  1.88128854E+00  5.44249258E-01  1.68714478E-01
  8.00000000E-01  3.04752488E+03  4.57369518E+02  1.03948685E+02  2.92101553E+01
  9.28666296E+00  3.16392696E+00  7.86827235E+00  1.88128854E+00  5.44249258E-01
  1.68714478E-01  8.00000000E-01  3.04752488E+03  4.57369518E+02  1.03948685E+02
  2.92101553E+01  9.28666296E+00  3.16392696E+00  7.86827235E+00  1.88128854E+00
  5.44249258E-01  1.68714478E-01  8.00000000E-01  1.87311370E+01  2.82539436E+00
  6.40121692E-01  1.61277759E-01  1.87311370E+01  2.82539436E+00  6.40121692E-01
  1.61277759E-01  1.87311370E+01  2.82539436E+00  6.40121692E-01  1.61277759E-01
  1.87311370E+01  2.82539436E+00  6.40121692E-01  1.61277759E-01  1.87311370E+01
  2.82539436E+00  6.40121692E-01  1.61277759E-01  1.87311370E+01  2.82539436E+00
  6.40121692E-01  1.61277759E-01  1.87311370E+01  2.82539436E+00  6.40121692E-01
  1.61277759E-01  1.87311370E+01  2.82539436E+00  6.40121692E-01  1.61277759E-01
  1.87311370E+01  2.82539436E+00  6.40121692E-01  1.61277759E-01  1.87311370E+01
  2.82539436E+00  6.40121692E-01  1.61277759E-01  1.87311370E+01  2.82539436E+00
  6.40121692E-01  1.61277759E-01  1.87311370E+01  2.82539436E+00  6.40121692E-01
  1.61277759E-01  1.87311370E+01  2.82539436E+00  6.40121692E-01  1.61277759E-01
  1.87311370E+01  2.82539436E+00  6.40121692E-01  1.61277759E-01  1.87311370E+01
  2.82539436E+00  6.40121692E-01  1.61277759E-01  1.87311370E+01  2.82539436E+00
  6.40121692E-01  1.61277759E-01
Contraction coefficients                   R   N=         152
  1.83477216E-03  1.39946270E-02  6.85865518E-02  2.32240873E-01  4.69069948E-01
  3.60455199E-01 -1.14961182E-01 -1.69117479E-01  1.14585195E+00  1.00000000E+00
  1.00000000E+00  1.83473713E-03  1.40373228E-02  6.88426223E-02  2.32184443E-01
  4.67941348E-01  3.62311985E-01 -1.19332420E-01 -1.60854152E-01  1.14345644E+00
  1.00000000E+00  1.00000000E+00  1.83473713E-03  1.40373228E-02  6.88426223E-02
  2.32184443E-01  4.67941348E-01  3.62311985E-01 -1.19332420E-01 -1.60854152E-01
  1.14345644E+00  1.00000000E+00  1.00000000E+00  1.83473713E-03  1.40373228E-02
  6.88426223E-02  2.32184443E-01  4.67941348E-01  3.62311985E-01 -1.19332420E-01
 -1.60854152E-01  1.14345644E+00  1.00000000E+00  1.00000000E+00  1.83473713E-03
  1.40373228E-02  6.88426223E-02  2.32184443E-01  4.67941348E-01  3.62311985E-01
 -1.19332420E-01 -1.60854152E-01  1.14345644E+00  1.00000000E+00  1.00000000E+00
  1.83473713E-03  1.40373228E-02  6.88426223E-02  2.32184443E-01  4.67941348E-01
  3.62311985E-01 -1.19332420E-01 -1.60854152E-01  1.14345644E+00  1.00000000E+00
  1.00000000E+00  1.83473713E-03  1.40373228E-02  6.88426223E-02  2.32184443E-01
  4.67941348E-01  3.62311985E-01 -1.19332420E-01 -1.60854152E-01  1.14345644E+00
  1.00000000E+00  1.00000000E+00  1.83473713E-03  1.40373228E-02  6.88426223E-02
  2.32184443E-01  4.67941348E-01  3.62311985E-01 -1.19332420E-01 -1.60854152E-01
  1.14345644E+00  1.00000000E+00  1.00000000E+00  3.34946043E-02  2.34726953E-01
  8.13757326E-01  1.00000000E+00  3.34946043E-02  2.34726953E-01  8.13757326E-01
  1.00000000E+00  3.34946043E-02  2.34726953E-01  8.13757326E-01  1.00000000E+00
  3.34946043E-02  2.34726953E-01  8.13757326E-01  1.00000000E+00  3.34946043E-02
  2.34726953E-01  8.13757326E-01  1.00000000E+00  3.34946043E-02  2.34726953E-01
  8.13757326E-01  1.00000000E+00  3.34946043E-02  2.34726953E-01  8.13757326E-01
  1.00000000E+00  3.34946043E-02  2.34726953E-01  8.13757326E-01  1.00000000E+00
  3.34946043E-02  2.34726953E-01  8.13757326E-01  1.00000000E+00  3.34946043E-02
  2.34726953E-01  8.13757326E-01  1.00000000E+00  3.34946043E-02  2.34726953E-01
  8.13757326E-01  1.00000000E+00  3.34946043E-02  2.34726953E-01  8.13757326E-01
  1.00000000E+00  3.34946043E-02  2.34726953E-01  8.13757326E-01  1.00000000E+00
  3.34946043E-02  2.34726953E-01  8.13757326E-01  1.00000000E+00  3.34946043E-02
  2.34726953E-01  8.13757326E-01  1.00000000E+00  3.34946043E-02  2.34726953E-01
  8.13757326E-01  1.00000000E+00
P(S=P) Contraction coefficients            R   N=         152
  0.00000000E+00  0.00000000E+00  0.00000000E+00  0.00000000E+00  0.00000000E+00
  0.00000000E+00  6.75797439E-02  3.23907296E-01  7.40895140E-01  1.00000000E+00
  0.00000000E+00  0.00000000E+00  0.00000000E+00  0.00000000E+00  0.00000000E+00
  0.00000000E+00  0.00000000E+00  6.89990666E-02  3.16423961E-01  7.44308291E-01
  1.00000000E+00  0.00000000E+00  0.00000000E+00  0.00000000E+00  0.00000000E+00
  0.00000000E+00  0.00000000E+00  0.00000000E+00  6.89990666E-02  3.16423961E-01
  7.44308291E-01  1.00000000E+00  0.00000000E+00  0.00000000E+00  0.00000000E+00
  0.00000000E+00  0.00000000E+00  0.00000000E+00  0.00000000E+00  6.89990666E-02
  3.16423961E-01  7.44308291E-01  1.00000000E+00  0.00000000E+00  0.00000000E+00
  0.00000000E+00  0.00000000E+00  0.00000000E+00  0.00000000E+00  0.00000000E+00
  6.89990666E-02  3.16423961E-01  7.44308291E-01  1.00000000E+00  0.00000000E+00
  0.00000000E+00  0.00000000E+00  0.00000000E+00  0.00000000E+00  0.00000000E+00
  0.00000000E+00  6.89990666E-02  3.16423961E-01  7.44308291E-01  1.00000000E+00
  0.00000000E+00  0.00000000E+00  0.00000000E+00  0.00000000E+00  0.00000000E+00
  0.00000000E+00  0.00000000E+00  6.89990666E-02  3.16423961E-01  7.44308291E-01
  1.00000000E+00  0.00000000E+00  0.00000000E+00  0.00000000E+00  0.00000000E+00
  0.00000000E+00  0.00000000E+00  0.00000000E+00  6.89990666E-02  3.16423961E-01
  7.44308291E-01  1.00000000E+00  0.00000000E+00  0.00000000E+00  0.00000000E+00
  0.00000000E+00  0.00000000E+00  0.00000000E+00  0.00000000E+00  0.00000000E+00
  0.00000000E+00  0.00000000E+00  0.00000000E+00  0.00000000E+00  0.00000000E+00
  0.00000000E+00  0.00000000E+00  0.00000000E+00  0.00000000E+00  0.00000000E+00
  0.00000000E+00  0.00000000E+00  0.00000000E+00  0.00000000E+00  0.00000000E+00
  0.00000000E+00  0.00000000E+00  0.00000000E+00  0.00000000E+00  0.00000000E+00
  0.00000000E+00  0.00000000E+00  0.00000000E+00  0.00000000E+00  0.00000000E+00
  0.00000000E+00  0.00000000E+00  0.00000000E+00  0.00000000E+00  0.00000000E+00
  0.00000000E+00  0.00000000E+00  0.00000000E+00  0.00000000E+00  0.00000000E+00
  0.00000000E+00  0.00000000E+00  0.00000000E+00  0.00000000E+00  0.00000000E+00
  0.00000000E+00  0.00000000E+00  0.00000000E+00  0.00000000E+00  0.00000000E+00
  0.00000000E+00  0.00000000E+00  0.00000000E+00  0.00000000E+00  0.00000000E+00
  0.00000000E+00  0.00000000E+00  0.00000000E+00  0.00000000E+00  0.00000000E+00
  0.00000000E+00  0.00000000E+00
Coordinates of each shell                  R   N=         192
 -2.74942867E+00 -1.19360503E-02 -7.39485298E-01 -2.74942867E+00 -1.19360503E-02
 -7.39485298E-01 -2.74942867E+00 -1.19360503E-02 -7.39485298E-01 -2.74942867E+00
 -1.19360503E-02 -7.39485298E-01  1.45519803E+00 -1.28877456E+00  6.25422032E-01
  1.45519803E+00 -1.28877456E+00  6.25422032E-01  1.45519803E+00 -1.28877456E+00
  6.25422032E-01  1.45519803E+00 -1.28877456E+00  6.25422032E-01  1.58505273E+00
  1.30941700E+00 -6.56427442E-01  1.58505273E+00  1.30941700E+00 -6.56427442E-01
  1.58505273E+00  1.30941700E+00 -6.56427442E-01  1.58505273E+00  1.30941700E+00
 -6.56427442E-01 -1.09087576E+00 -2.33459484E+00 -2.49560847E-01 -1.09087576E+00
 -2.33459484E+00 -2.49560847E-01 -1.09087576E+00 -2.33459484E+00 -2.49560847E-01
 -1.09087576E+00 -2.33459484E+00 -2.49560847E-01 -1.09070605E+00  2.28657925E+00
 -2.83255820E-01 -1.09070605E+00  2.28657925E+00 -2.83255820E-01 -1.09070605E+00
  2.28657925E+00 -2.83255820E-01 -1.09070605E+00  2.28657925E+00 -2.83255820E-01
  3.63640426E+00 -3.06882172E+00  2.16224902E-02  3.63640426E+00 -3.06882172E+00
  2.16224902E-02  3.63640426E+00 -3.06882172E+00  2.16224902E-02  3.63640426E+00
 -3.06882172E+00  2.16224902E-02  3.57808274E+00  3.09195927E+00  4.09047090E-01
  3.57808274E+00  3.09195927E+00  4.09047090E-01  3.57808274E+00  3.09195927E+00
  4.09047090E-01  3.57808274E+00  3.09195927E+00  4.09047090E-01 -5.15652705E+00
  2.19375503E-02  7.43307905E-01 -5.15652705E+00  2.19375503E-02  7.43307905E-01
 -5.15652705E+00  2.19375503E-02  7.43307905E-01 -5.15652705E+00  2.19375503E-02
  7.43307905E-01  1.37709269E+00 -9.77871584E-01  2.67746438E+00  1.37709269E+00
 -9.77871584E-01  2.67746438E+00  1.92661481E+00  1.03068213E+00 -2.68834438E+00
  1.92661481E+00  1.03068213E+00 -2.68834438E+00 -3.22923994E+00 -1.64994541E-02
 -2.61941795E+00 -3.22923994E+00 -1.64994541E-02 -2.61941795E+00 -9.25179641E-01
 -3.36026057E+00 -2.03555856E+00 -9.25179641E-01 -3.36026057E+00 -2.03555856E+00
 -2.04207257E+00 -3.54068502E+00  1.12808098E+00 -2.04207257E+00 -3.54068502E+00
  1.12808098E+00 -1.39858888E+00  2.87502982E+00  1.67504969E+00 -1.39858888E+00
  2.87502982E+00  1.67504969E+00 -1.68547017E+00  3.80419859E+00 -1.55138095E+00
 -1.68547017E+00  3.80419859E+00 -1.55138095E+00  5.41916973E+00 -2.29260338E+00
  7.13504602E-01  5.41916973E+00 -2.29260338E+00  7.13504602E-01  3.36928278E+00
 -4.91017651E+00  9.20562793E-01  3.36928278E+00 -4.91017651E+00  9.20562793E-01
  3.80156238E+00 -3.35809671E+00 -2.01983860E+00  3.80156238E+00 -3.35809671E+00
 -2.01983860E+00  5.47012981E+00  2.32214081E+00  1.14883959E-01  5.47012981E+00
  2.32214081E+00  1.14883959E-01  3.50351645E+00  4.93643620E+00 -5.18870889E-01
  3.50351645E+00  4.93643620E+00 -5.18870889E-01  3.30018602E+00  3.37023451E+00
  2.43970772E+00  3.30018602E+00  3.37023451E+00  2.43970772E+00 -4.67677014E+00
 -7.04242318E-02  2.74368598E+00 -4.67677014E+00 -7.04242318E-02  2.74368598E+00
 -6.16539702E+00  1.77074809E+00  3.31330980E-01 -6.16539702E+00  1.77074809E+00
  3.31330980E-01 -6.29860908E+00 -1.60551207E+00  2.04604871E-01 -6.29860908E+00
 -1.60551207E+00  2.04604871E-01
Constraint Structure                       R   N=          72
 -2.74942867E+00 -1.19360503E-02 -7.39485298E-01  1.45519803E+00 -1.28877456E+00
  6.25422032E-01  1.58505273E+00  1.30941700E+00 -6.56427442E-01 -1.09087576E+00
 -2.33459484E+00 -2.49560847E-01 -1.09070605E+00  2.28657925E+00 -2.83255820E-01
  3.63640426E+00 -3.06882172E+00  2.16224902E-02  3.57808274E+00  3.09195927E+00
  4.09047090E-01 -5.15652705E+00  2.19375503E-02  7.43307905E-01  1.37709269E+00
 -9.77871584E-01  2.67746438E+00  1.92661481E+00  1.03068213E+00 -2.68834438E+00
 -3.22923994E+00 -1.64994541E-02 -2.61941795E+00 -9.25179641E-01 -3.36026057E+00
 -2.03555856E+00 -2.04207257E+00 -3.54068502E+00  1.12808098E+00 -1.39858888E+00
  2.87502982E+00  1.67504969E+00 -1.68547017E+00  3.80419859E+00 -1.55138095E+00
  5.41916973E+00 -2.29260338E+00  7.13504602E-01  3.36928278E+00 -4.91017651E+00
  9.20562793E-01  3.80156238E+00 -3.35809671E+00 -2.01983860E+00  5.47012981E+00
  2.32214081E+00  1.14883959E-01  3.50351645E+00  4.93643620E+00 -5.18870889E-01
  3.30018602E+00  3.37023451E+00  2.43970772E+00 -4.67677014E+00 -7.04242318E-02
  2.74368598E+00 -6.16539702E+00  1.77074809E+00  3.31330980E-01 -6.29860908E+00
 -1.60551207E+00  2.04604871E-01
Num ILSW                                   I              100
ILSW                                       I   N=         100
           0           1           0           0           2           0
           0           0           0           0           0          -1
           0           0           0           0           0           0
           0           0           0           0           1           0
           1           0           0           0           0           0
           0           0      100000           0          -1           0
           0           0           0           0           0           0
           0           0           0           1           1           0
           0           0           1           0           0           0
           0           0           4          40           0           0
           0           0           0           0           0           0
           0           0           0           0           0           0
           0           0           0           0           0           0
           0           0           0           0           0           0
           0           0           0           0           0           0
           0           0           0           0           0           0
           0           0           0           0
Num RLSW                                   I               40
RLSW                                       R   N=          40
  1.00000000E+00  1.00000000E+00  1.00000000E+00  1.00000000E+00  1.00000000E+00
  0.00000000E+00  0.00000000E+00  1.00000000E+00  0.00000000E+00  0.00000000E+00
  0.00000000E+00  0.00000000E+00  1.00000000E+00  0.00000000E+00  0.00000000E+00
  0.00000000E+00  0.00000000E+00  1.00000000E+00  0.00000000E+00  0.00000000E+00
  0.00000000E+00  0.00000000E+00  1.00000000E+00  0.00000000E+00  0.00000000E+00
  0.00000000E+00  0.00000000E+00  1.00000000E+00  0.00000000E+00  0.00000000E+00
  0.00000000E+00  0.00000000E+00  0.00000000E+00  0.00000000E+00  0.00000000E+00
  0.00000000E+00  0.00000000E+00  0.00000000E+00  1.00000000E+00  1.00000000E+00
MxBond                                     I                4
NBond                                      I   N=          24
           4           4           4           4           4           4
           4           4           1           1           1           1
           1           1           1           1           1           1
           1           1           1           1           1           1
IBond                                      I   N=          96
           4           5           8          11           3           4
           6           9           2           5           7          10
           1           2          12          13           1           3
          14          15           2          16          17          18
           3          19          20          21           1          22
          23          24           2           0           0           0
           3           0           0           0           1           0
           0           0           4           0           0           0
           4           0           0           0           5           0
           0           0           5           0           0           0
           6           0           0           0           6           0
           0           0           6           0           0           0
           7           0           0           0           7           0
           0           0           7           0           0           0
           8           0           0           0           8           0
           0           0           8           0           0           0
RBond                                      R   N=          96
  1.00000000E+00  1.00000000E+00  1.00000000E+00  1.00000000E+00  1.00000000E+00
  1.00000000E+00  1.00000000E+00  1.00000000E+00  1.00000000E+00  1.00000000E+00
  1.00000000E+00  1.00000000E+00  1.00000000E+00  1.00000000E+00  1.00000000E+00
  1.00000000E+00  1.00000000E+00  1.00000000E+00  1.00000000E+00  1.00000000E+00
  1.00000000E+00  1.00000000E+00  1.00000000E+00  1.00000000E+00  1.00000000E+00
  1.00000000E+00  1.00000000E+00  1.00000000E+00  1.00000000E+00  1.00000000E+00
  1.00000000E+00  1.00000000E+00  1.00000000E+00  0.00000000E+00  0.00000000E+00
  0.00000000E+00  1.00000000E+00  0.00000000E+00  0.00000000E+00  0.00000000E+00
  1.00000000E+00  0.00000000E+00  0.00000000E+00  0.00000000E+00  1.00000000E+00
  0.00000000E+00  0.00000000E+00  0.00000000E+00  1.00000000E+00  0.00000000E+00
  0.00000000E+00  0.00000000E+00  1.00000000E+00  0.00000000E+00  0.00000000E+00
  0.00000000E+00  1.00000000E+00  0.00000000E+00  0.00000000E+00  0.00000000E+00
  1.00000000E+00  0.00000000E+00  0.00000000E+00  0.00000000E+00  1.00000000E+00
  0.00000000E+00  0.00000000E+00  0.00000000E+00  1.00000000E+00  0.00000000E+00
  0.00000000E+00  0.00000000E+00  1.00000000E+00  0.00000000E+00  0.00000000E+00
  0.00000000E+00  1.00000000E+00  0.00000000E+00  0.00000000E+00  0.00000000E+00
  1.00000000E+00  0.00000000E+00  0.00000000E+00  0.00000000E+00  1.00000000E+00
  0.00000000E+00  0.00000000E+00  0.00000000E+00  1.00000000E+00  0.00000000E+00
  0.00000000E+00  0.00000000E+00  1.00000000E+00  0.00000000E+00  0.00000000E+00
  0.00000000E+00
Virial Ratio                               R      2.001414833907337E+00
SCF Energy                                 R     -3.286377669933008E+02
MP2 Energy                                 R     -3.297159222279771E+02
Total Energy                               R     -3.297159222279771E+02
Post-SCF wavefunction norm                 R      1.644720202204227E+00
RMS Force                                  R      3.760714395706177E-07
RMS Density                                R      1.138521395225421E-09
External E-field                           R   N=          35
  0.00000000E+00  0.00000000E+00  0.00000000E+00  0.00000000E+00  0.00000000E+00
  0.00000000E+00  0.00000000E+00  0.00000000E+00  0.00000000E+00  0.00000000E+00
  0.00000000E+00  0.00000000E+00  0.00000000E+00  0.00000000E+00  0.00000000E+00
  0.00000000E+00  0.00000000E+00  0.00000000E+00  0.00000000E+00  0.00000000E+00
  0.00000000E+00  0.00000000E+00  0.00000000E+00  0.00000000E+00  0.00000000E+00
  0.00000000E+00  0.00000000E+00  0.00000000E+00  0.00000000E+00  0.00000000E+00
  0.00000000E+00  0.00000000E+00  0.00000000E+00  0.00000000E+00  0.00000000E+00
IOpCl                                      I                0
IROHF                                      I                0
Alpha Orbital Energies                     R   N=         152
 -1.58616684E+01 -1.14526849E+01 -1.14504288E+01 -1.14499899E+01 -1.13939425E+01
 -1.13931972E+01 -1.13547659E+01 -1.13544491E+01 -1.49542885E+00 -1.27556482E+00
 -1.19677809E+00 -1.14601673E+00 -1.09708384E+00 -1.06842606E+00 -9.89942824E-01
 -9.42452843E-01 -9.07439092E-01 -8.48359776E-01 -8.25543581E-01 -7.89550158E-01
 -7.66004599E-01 -7.57220512E-01 -7.37334458E-01 -7.18443963E-01 -7.03249071E-01
 -7.00236743E-01 -6.77440834E-01 -6.64936713E-01 -6.48868650E-01 -6.30350807E-01
 -6.23903863E-01 -6.04184086E-01  1.18462764E-02  6.61441631E-02  7.21795805E-02
  1.02471672E-01  1.09966572E-01  1.25747941E-01  1.28235104E-01  1.38137190E-01
  1.52114731E-01  1.54214081E-01  1.59483477E-01  1.72412002E-01  1.78804450E-01
  1.85763924E-01  1.91245542E-01  1.96093479E-01  2.10957007E-01  2.30164061E-01
  2.43591282E-01  2.59019327E-01  2.89808759E-01  2.97318968E-01  3.08384210E-01
  3.20250926E-01  5.13699532E-01  5.45652119E-01  5.47581741E-01  5.67992888E-01