
    -----------------------------------------------------------------------
          Psi4: An Open-Source Ab Initio Electronic Structure Package
                               Psi4 1.3.2 release

                         Git: Rev {HEAD} ecbda83 


    R. M. Parrish, L. A. Burns, D. G. A. Smith, A. C. Simmonett,
    A. E. DePrince III, E. G. Hohenstein, U. Bozkaya, A. Yu. Sokolov,
    R. Di Remigio, R. M. Richard, J. F. Gonthier, A. M. James,
    H. R. McAlexander, A. Kumar, M. Saitow, X. Wang, B. P. Pritchard,
    P. Verma, H. F. Schaefer III, K. Patkowski, R. A. King, E. F. Valeev,
    F. A. Evangelista, J. M. Turney, T. D. Crawford, and C. D. Sherrill,
    J. Chem. Theory Comput. 13(7) pp 3185--3197 (2017).
    (doi: 10.1021/acs.jctc.7b00174)


                         Additional Contributions by
    P. Kraus, H. Kruse, M. H. Lechner, M. C. Schieber, R. A. Shaw,
    A. Alenaizan, R. Galvelis, Z. L. Glick, S. Lehtola, and J. P. Misiewicz

    -----------------------------------------------------------------------


    Psi4 started on: Tuesday, 03 November 2020 07:33PM

    Process ID: 53715
    Host:       node101.bme.utexas.edu
    PSIDATADIR: /home/xy3866/psi4conda/share/psi4
    Memory:     500.0 MiB
    Threads:    8
    
  ==> Input File <==

--------------------------------------------------------------------------
#psi4
#
memory 32 gb

molecule  {
0 1
  C       -0.4111520    -0.7126550     0.0000000
  C       -1.9300155    -0.8333762     0.0000000
  C       -2.4211380    -2.2516450     0.0000000
  N        0.0000000     0.6708000     0.0000000
  C        1.2895240     1.1529650     0.0000000
  N        1.4680370     2.4337510     0.0000000
  N        2.2639170     0.1721360     0.0000000
  H       -0.0251680    -1.2402640     0.8864350
  H       -0.0251680    -1.2402640    -0.8864350
  H       -2.3164570    -0.2812890     0.8815700
  H       -2.3164570    -0.2812890    -0.8815700
  H       -3.5133300    -2.2957770     0.0000000
  H       -2.0641790    -2.7865400    -0.8851380
  H       -2.0641790    -2.7865400     0.8851380
  H       -0.7011600     1.3990150     0.0000000
  H        2.4653750     2.6550960     0.0000000
  H        2.0510630    -0.8112120     0.0000000
  H        3.2339250     0.4413680     0.0000000
units angstrom
no_reorient  #important for SAPT in psi4, default
symmetry c1  #important for SAPT in psi4, default
}

set PROPERTIES_ORIGIN ["COM"]
properties('MP2/aug-cc-pvtz', properties = ['dipole'])
--------------------------------------------------------------------------

  Memory set to  29.802 GiB by Python driver.
    SCF Algorithm Type (re)set to DF.

*** tstart() called on node101.bme.utexas.edu
*** at Tue Nov  3 19:33:46 2020

   => Loading Basis Set <=

    Name: AUG-CC-PVTZ
    Role: ORBITAL
    Keyword: BASIS
    atoms 1-3, 5 entry C          line   235 file /home/xy3866/psi4conda/share/psi4/basis/aug-cc-pvtz.gbs 
    atoms 4, 6-7 entry N          line   281 file /home/xy3866/psi4conda/share/psi4/basis/aug-cc-pvtz.gbs 
    atoms 8-18   entry H          line    36 file /home/xy3866/psi4conda/share/psi4/basis/aug-cc-pvtz.gbs 


         ---------------------------------------------------------
                                   SCF
               by Justin Turney, Rob Parrish, Andy Simmonett
                          and Daniel G. A. Smith
                              RHF Reference
                        8 Threads,  30517 MiB Core
         ---------------------------------------------------------

  ==> Geometry <==

    Molecular point group: c1
    Full point group: Cs

    Geometry (in Angstrom), charge = 0, multiplicity = 1:

       Center              X                  Y                   Z               Mass       
    ------------   -----------------  -----------------  -----------------  -----------------
         C           -0.463265524406    -0.780540484042     0.000000000000    12.000000000000
         C           -1.982129024406    -0.901261684042     0.000000000000    12.000000000000
         C           -2.473251524406    -2.319530484042     0.000000000000    12.000000000000
         N           -0.052113524406     0.602914515958     0.000000000000    14.003074004430
         C            1.237410475594     1.085079515958     0.000000000000    12.000000000000
         N            1.415923475594     2.365865515958     0.000000000000    14.003074004430
         N            2.211803475594     0.104250515958     0.000000000000    14.003074004430
         H           -0.077281524406    -1.308149484042     0.886435000000     1.007825032230
         H           -0.077281524406    -1.308149484042    -0.886435000000     1.007825032230
         H           -2.368570524406    -0.349174484042     0.881570000000     1.007825032230
         H           -2.368570524406    -0.349174484042    -0.881570000000     1.007825032230
         H           -3.565443524406    -2.363662484042     0.000000000000     1.007825032230
         H           -2.116292524406    -2.854425484042    -0.885138000000     1.007825032230
         H           -2.116292524406    -2.854425484042     0.885138000000     1.007825032230
         H           -0.753273524406     1.331129515958     0.000000000000     1.007825032230
         H            2.413261475594     2.587210515958     0.000000000000     1.007825032230
         H            1.998949475594    -0.879097484042     0.000000000000     1.007825032230
         H            3.181811475594     0.373482515958     0.000000000000     1.007825032230

  Running in c1 symmetry.

  Rotational constants: A =      0.25401  B =      0.03749  C =      0.03328 [cm^-1]
  Rotational constants: A =   7615.01403  B =   1124.03674  C =    997.75165 [MHz]
  Nuclear repulsion =  309.021671792911775

  Charge       = 0
  Multiplicity = 1
  Electrons    = 56
  Nalpha       = 28
  Nbeta        = 28

  ==> Algorithm <==

  SCF Algorithm Type is DF.
  DIIS enabled.
  MOM disabled.
  Fractional occupation disabled.
  Guess Type is SAD.
  Energy threshold   = 1.00e-10
  Density threshold  = 1.00e-10
  Integral threshold = 0.00e+00

  ==> Primary Basis <==

  Basis Set: AUG-CC-PVTZ
    Blend: AUG-CC-PVTZ
    Number of shells: 197
    Number of basis function: 575
    Number of Cartesian functions: 660
    Spherical Harmonics?: true
    Max angular momentum: 3

   => Loading Basis Set <=

    Name: (AUG-CC-PVTZ AUX)
    Role: JKFIT
    Keyword: DF_BASIS_SCF
    atoms 1-3, 5 entry C          line   162 file /home/xy3866/psi4conda/share/psi4/basis/aug-cc-pvtz-jkfit.gbs 
    atoms 4, 6-7 entry N          line   224 file /home/xy3866/psi4conda/share/psi4/basis/aug-cc-pvtz-jkfit.gbs 
    atoms 8-18   entry H          line    70 file /home/xy3866/psi4conda/share/psi4/basis/aug-cc-pvtz-jkfit.gbs 

  ==> Pre-Iterations <==

   -------------------------------------------------------
    Irrep   Nso     Nmo     Nalpha   Nbeta   Ndocc  Nsocc
   -------------------------------------------------------
     A        575     575       0       0       0       0
   -------------------------------------------------------
    Total     575     575      28      28      28       0
   -------------------------------------------------------

  ==> Integral Setup <==

  DFHelper Memory: AOs need 2.946 GiB; user supplied 22.352 GiB. Using in-core AOs.

  ==> MemDFJK: Density-Fitted J/K Matrices <==

    J tasked:                   Yes
    K tasked:                   Yes
    wK tasked:                   No
    OpenMP threads:               8
    Memory [MiB]:             22888
    Algorithm:                 Disk
    Schwarz Cutoff:           1E-12
    Mask sparsity (%):       6.2972
    Fitting Condition:        1E-10

   => Auxiliary Basis Set <=

  Basis Set: (AUG-CC-PVTZ AUX)
    Blend: AUG-CC-PVTZ-JKFIT
    Number of shells: 364
    Number of basis function: 1234
    Number of Cartesian functions: 1522
    Spherical Harmonics?: true
    Max angular momentum: 4

  Minimum eigenvalue in the overlap matrix is 3.6563340572E-06.
  Using Symmetric Orthogonalization.

  SCF Guess: Superposition of Atomic Densities via on-the-fly atomic UHF.

  ==> Iterations <==

                           Total Energy        Delta E     RMS |[F,P]|

   @DF-RHF iter SAD:  -320.69233439722041   -3.20692e+02   0.00000e+00 
   @DF-RHF iter   1:  -321.02050429244099   -3.28170e-01   1.34657e-03 DIIS
   @DF-RHF iter   2:  -321.27589850699945   -2.55394e-01   6.71363e-04 DIIS
   @DF-RHF iter   3:  -321.33915562966030   -6.32571e-02   1.13732e-04 DIIS
   @DF-RHF iter   4:  -321.34251308636641   -3.35746e-03   5.29057e-05 DIIS
   @DF-RHF iter   5:  -321.34299221075293   -4.79124e-04   9.11998e-06 DIIS
   @DF-RHF iter   6:  -321.34302788300278   -3.56722e-05   3.34169e-06 DIIS
   @DF-RHF iter   7:  -321.34303166015241   -3.77715e-06   1.25862e-06 DIIS
   @DF-RHF iter   8:  -321.34303248188195   -8.21730e-07   4.38927e-07 DIIS
   @DF-RHF iter   9:  -321.34303258347563   -1.01594e-07   1.57828e-07 DIIS
   @DF-RHF iter  10:  -321.34303259404390   -1.05683e-08   5.49026e-08 DIIS
   @DF-RHF iter  11:  -321.34303259524143   -1.19752e-09   1.43485e-08 DIIS
   @DF-RHF iter  12:  -321.34303259532948   -8.80505e-11   4.87347e-09 DIIS
   @DF-RHF iter  13:  -321.34303259533817   -8.69704e-12   1.28694e-09 DIIS
   @DF-RHF iter  14:  -321.34303259533766    5.11591e-13   3.64199e-10 DIIS
   @DF-RHF iter  15:  -321.34303259533976   -2.10321e-12   1.01127e-10 DIIS
   @DF-RHF iter  16:  -321.34303259533914    6.25278e-13   3.70937e-11 DIIS
  Energy and wave function converged.


  ==> Post-Iterations <==

    Orbital Energies [Eh]
    ---------------------

    Doubly Occupied:                                                      

       1A    -15.577183     2A    -15.562991     3A    -15.491231  
       4A    -11.341164     5A    -11.271271     6A    -11.237236  
       7A    -11.225616     8A     -1.292804     9A     -1.181990  
      10A     -1.124797    11A     -1.059645    12A     -0.934099  
      13A     -0.823985    14A     -0.806568    15A     -0.721794  
      16A     -0.691956    17A     -0.661961    18A     -0.630153  
      19A     -0.601700    20A     -0.587449    21A     -0.567300  
      22A     -0.531746    23A     -0.522351    24A     -0.489454  
      25A     -0.482622    26A     -0.412187    27A     -0.403310  
      28A     -0.330844  

    Virtual:                                                              

      29A      0.022505    30A      0.029224    31A      0.036435  
      32A      0.038699    33A      0.048324    34A      0.052781  
      35A      0.058968    36A      0.064825    37A      0.069053  
      38A      0.072517    39A      0.083948    40A      0.103334  
      41A      0.109515    42A      0.110648    43A      0.114180  
      44A      0.118590    45A      0.126544    46A      0.134465  
      47A      0.136687    48A      0.138991    49A      0.142348  
      50A      0.152301    51A      0.164281    52A      0.164722  
      53A      0.165304    54A      0.168872    55A      0.184712  
      56A      0.189421    57A      0.192384    58A      0.198740  
      59A      0.207161    60A      0.207663    61A      0.215317  
      62A      0.224781    63A      0.228523    64A      0.233033  
      65A      0.240464    66A      0.248545    67A      0.262637  
      68A      0.266043    69A      0.268694    70A      0.283198  
      71A      0.286627    72A      0.296230    73A      0.307112  
      74A      0.307876    75A      0.313065    76A      0.324650  
      77A      0.329849    78A      0.334053    79A      0.337176  
      80A      0.339808    81A      0.347445    82A      0.347844  
      83A      0.354215    84A      0.358643    85A      0.363611  
      86A      0.374734    87A      0.377233    88A      0.377796  
      89A      0.382834    90A      0.383745    91A      0.388813  
      92A      0.391521    93A      0.402952    94A      0.412701  
      95A      0.425209    96A      0.428758    97A      0.429659  
      98A      0.435484    99A      0.437063   100A      0.443537  
     101A      0.446316   102A      0.448721   103A      0.464675  
     104A      0.467909   105A      0.468916   106A      0.471358  
     107A      0.475157   108A      0.486498   109A      0.486533  
     110A      0.491919   111A      0.501596   112A      0.505205  
     113A      0.507426   114A      0.519718   115A      0.524483  
     116A      0.527559   117A      0.533254   118A      0.536530  
     119A      0.544996   120A      0.552642   121A      0.556569  
     122A      0.564746   123A      0.568752   124A      0.580400  
     125A      0.581475   126A      0.582434   127A      0.596681  
     128A      0.605109   129A      0.623638   130A      0.626205  
     131A      0.639525   132A      0.647163   133A      0.648833  
     134A      0.658316   135A      0.666521   136A      0.674401  
     137A      0.685315   138A      0.692520   139A      0.695506  
     140A      0.711196   141A      0.712088   142A      0.727180  
     143A      0.731919   144A      0.735577   145A      0.747527  
     146A      0.750859   147A      0.766111   148A      0.773801  
     149A      0.779843   150A      0.785381   151A      0.803539  
     152A      0.809405   153A      0.809745   154A      0.817825  
     155A      0.828199   156A      0.833218   157A      0.834250  
     158A      0.844246   159A      0.853515   160A      0.853568  
     161A      0.873312   162A      0.877810   163A      0.894623  
     164A      0.897960   165A      0.901542   166A      0.909512  
     167A      0.918909   168A      0.924765   169A      0.928242  
     170A      0.936119   171A      0.940292   172A      0.941360  
     173A      0.951266   174A      0.961197   175A      0.965616  
     176A      0.979082   177A      0.982708   178A      0.993156  
     179A      0.997140   180A      1.011383   181A      1.015891  
     182A      1.022823   183A      1.026763   184A      1.032623  
     185A      1.049418   186A      1.059060   187A      1.061499  
     188A      1.078759   189A      1.081571   190A      1.088442  
     191A      1.096662   192A      1.113005   193A      1.121540  
     194A      1.128101   195A      1.134603   196A      1.140362  
     197A      1.146934   198A      1.149205   199A      1.153371  
     200A      1.157299   201A      1.158919   202A      1.178215  
     203A      1.179786   204A      1.181435   205A      1.192517  
     206A      1.200304   207A      1.204283   208A      1.215656  
     209A      1.217963   210A      1.224221   211A      1.225514  
     212A      1.226118   213A      1.238476   214A      1.239133  
     215A      1.253112   216A      1.267948   217A      1.268547  
     218A      1.280958   219A      1.290200   220A      1.295094  
     221A      1.302145   222A      1.308483   223A      1.322669  
     224A      1.326430   225A      1.332521   226A      1.342915  
     227A      1.357554   228A      1.364516   229A      1.364680  
     230A      1.378297   231A      1.396254   232A      1.397260  
     233A      1.408833   234A      1.414404   235A      1.438612  
     236A      1.438683   237A      1.452995   238A      1.460280  
     239A      1.461806   240A      1.468825   241A      1.476604  
     242A      1.495308   243A      1.511212   244A      1.512922  
     245A      1.518107   246A      1.519510   247A      1.542302  
     248A      1.544912   249A      1.568414   250A      1.569303  
     251A      1.576588   252A      1.600972   253A      1.602240  
     254A      1.609094   255A      1.622537   256A      1.629147  
     257A      1.635827   258A      1.646409   259A      1.652631  
     260A      1.661720   261A      1.668294   262A      1.672119  
     263A      1.683811   264A      1.700252   265A      1.701720  
     266A      1.703910   267A      1.707219   268A      1.723111  
     269A      1.731784   270A      1.735768   271A      1.750243  
     272A      1.755117   273A      1.779616   274A      1.787122  
     275A      1.789891   276A      1.796056   277A      1.814374  
     278A      1.830712   279A      1.851871   280A      1.856508  
     281A      1.872029   282A      1.890172   283A      1.897018  
     284A      1.899775   285A      1.915963   286A      1.923924  
     287A      1.930061   288A      1.948981   289A      1.955465  
     290A      1.957885   291A      1.973715   292A      1.974151  
     293A      2.001989   294A      2.014747   295A      2.017599  
     296A      2.031113   297A      2.038530   298A      2.056605  
     299A      2.058769   300A      2.070443   301A      2.079676  
     302A      2.093447   303A      2.097441   304A      2.120075  
     305A      2.143184   306A      2.144876   307A      2.162444  
     308A      2.179444   309A      2.191201   310A      2.203755  
     311A      2.219186   312A      2.233160   313A      2.239539  
     314A      2.248512   315A      2.257721   316A      2.265757  
     317A      2.278930   318A      2.287697   319A      2.300874  
     320A      2.313885   321A      2.327950   322A      2.332784  
     323A      2.342952   324A      2.362098   325A      2.376451  
     326A      2.397481   327A      2.408966   328A      2.430610  
     329A      2.439902   330A      2.448469   331A      2.457679  
     332A      2.476555   333A      2.477703   334A      2.508298  
     335A      2.509478   336A      2.533004   337A      2.551115  
     338A      2.599033   339A      2.601886   340A      2.603597  
     341A      2.633535   342A      2.634767   343A      2.644276  
     344A      2.664070   345A      2.686677   346A      2.699248  
     347A      2.704045   348A      2.731422   349A      2.752750  
     350A      2.772863   351A      2.787913   352A      2.826392  
     353A      2.852664   354A      2.885572   355A      2.924315  
     356A      2.937368   357A      2.980893   358A      3.020704  
     359A      3.038906   360A      3.116077   361A      3.223065  
     362A      3.238106   363A      3.251120   364A      3.310409  
     365A      3.331350   366A      3.415577   367A      3.436195  
     368A      3.440021   369A      3.461164   370A      3.480321  
     371A      3.488033   372A      3.503081   373A      3.515164  
     374A      3.536836   375A      3.566527   376A      3.581148  
     377A      3.626864   378A      3.631806   379A      3.671857  
     380A      3.675159   381A      3.684619   382A      3.689036  
     383A      3.701877   384A      3.723356   385A      3.748781  
     386A      3.756402   387A      3.775694   388A      3.799447  
     389A      3.803919   390A      3.805922   391A      3.838619  
     392A      3.840739   393A      3.859577   394A      3.873861  
     395A      3.878127   396A      3.904217   397A      3.914554  
     398A      3.914864   399A      3.919189   400A      3.941718  
     401A      3.949330   402A      3.970144   403A      3.980482  
     404A      3.993882   405A      4.003672   406A      4.013964  
     407A      4.048036   408A      4.050797   409A      4.055403  
     410A      4.058979   411A      4.105057   412A      4.114384  
     413A      4.126369   414A      4.145872   415A      4.152066  
     416A      4.177876   417A      4.180205   418A      4.191140  
     419A      4.195346   420A      4.201651   421A      4.219101  
     422A      4.221299   423A      4.253172   424A      4.264442  
     425A      4.289857   426A      4.296885   427A      4.305938  
     428A      4.310544   429A      4.329729   430A      4.339704  
     431A      4.366279   432A      4.376545   433A      4.391936  
     434A      4.394892   435A      4.411313   436A      4.421352  
     437A      4.462020   438A      4.462177   439A      4.472288  
     440A      4.486070   441A      4.500986   442A      4.533086  
     443A      4.547693   444A      4.559686   445A      4.571584  
     446A      4.589143   447A      4.612142   448A      4.628709  
     449A      4.640604   450A      4.643792   451A      4.672335  
     452A      4.679125   453A      4.699230   454A      4.700760  
     455A      4.711183   456A      4.742917   457A      4.760241  
     458A      4.794879   459A      4.811481   460A      4.817927  
     461A      4.850062   462A      4.858365   463A      4.864385  
     464A      4.870333   465A      4.873408   466A      4.883743  
     467A      4.936084   468A      4.941482   469A      4.948706  
     470A      4.962526   471A      4.964617   472A      4.989087  
     473A      5.000538   474A      5.031531   475A      5.050515  
     476A      5.068487   477A      5.076177   478A      5.103505  
     479A      5.118848   480A      5.123110   481A      5.136255  
     482A      5.139975   483A      5.173297   484A      5.183873  
     485A      5.206278   486A      5.218783   487A      5.243265  
     488A      5.257475   489A      5.259818   490A      5.289087  
     491A      5.298222   492A      5.321637   493A      5.339663  
     494A      5.353911   495A      5.354094   496A      5.381067  
     497A      5.418935   498A      5.420358   499A      5.422306  
     500A      5.440360   501A      5.465351   502A      5.494660  
     503A      5.517089   504A      5.534694   505A      5.544907  
     506A      5.546165   507A      5.550726   508A      5.599970  
     509A      5.603937   510A      5.611063   511A      5.614182  
     512A      5.629432   513A      5.655501   514A      5.656364  
     515A      5.698611   516A      5.711471   517A      5.713341  
     518A      5.734729   519A      5.746258   520A      5.796937  
     521A      5.839754   522A      5.862677   523A      5.865819  
     524A      5.875466   525A      5.879088   526A      5.927871  
     527A      5.940100   528A      5.974377   529A      5.992559  
     530A      6.040233   531A      6.073668   532A      6.104183  
     533A      6.108160   534A      6.121361   535A      6.148863  
     536A      6.154751   537A      6.162950   538A      6.176670  
     539A      6.189437   540A      6.191006   541A      6.248511  
     542A      6.259493   543A      6.300456   544A      6.300623  
     545A      6.359936   546A      6.402107   547A      6.407905  
     548A      6.434350   549A      6.483854   550A      6.516560  
     551A      6.547109   552A      6.620379   553A      6.674796  
     554A      6.734083   555A      6.779282   556A      6.790163  
     557A      6.840585   558A      6.885688   559A      6.944801  
     560A      6.962906   561A      7.010699   562A      7.071581  
     563A      7.242662   564A      7.460921   565A      7.616765  
     566A      7.679837   567A      7.745103   568A      7.894425  
     569A     17.284289   570A     17.521759   571A     17.826504  
     572A     18.076494   573A     18.612348   574A     19.364551  
     575A     21.010704  

    Final Occupation by Irrep:
              A 
    DOCC [    28 ]

  @DF-RHF Final Energy:  -321.34303259533914

   => Energetics <=

    Nuclear Repulsion Energy =            309.0216717929117749
    One-Electron Energy =               -1047.5985922361114717
    Two-Electron Energy =                 417.2338878478605579
    Total Energy =                       -321.3430325953391389

Computation Completed

*** tstop() called on node101.bme.utexas.edu at Tue Nov  3 19:34:54 2020
Module time:
	user time   =     192.57 seconds =       3.21 minutes
	system time =      26.16 seconds =       0.44 minutes
	total time  =         68 seconds =       1.13 minutes
Total time:
	user time   =     192.57 seconds =       3.21 minutes
	system time =      26.16 seconds =       0.44 minutes
	total time  =         68 seconds =       1.13 minutes
   => Loading Basis Set <=

    Name: (AUG-CC-PVTZ AUX)
    Role: RIFIT
    Keyword: DF_BASIS_MP2
    atoms 1-3, 5 entry C          line   148 file /home/xy3866/psi4conda/share/psi4/basis/aug-cc-pvtz-ri.gbs 
    atoms 4, 6-7 entry N          line   206 file /home/xy3866/psi4conda/share/psi4/basis/aug-cc-pvtz-ri.gbs 
    atoms 8-18   entry H          line    30 file /home/xy3866/psi4conda/share/psi4/basis/aug-cc-pvtz-ri.gbs 


*** tstart() called on node101.bme.utexas.edu
*** at Tue Nov  3 19:34:54 2020


  //>>>>>>>>>>>>>>>>>>>>>>>>>>>>>>>>>>>//
  //               DFMP2               //
  //<<<<<<<<<<<<<<<<<<<<<<<<<<<<<<<<<<<//

	 --------------------------------------------------------
	                          DF-MP2                         
	      2nd-Order Density-Fitted Moller-Plesset Theory     
	              RMP2 Wavefunction,   8 Threads             
	                                                         
	        Rob Parrish, Justin Turney, Andy Simmonett,      
	           Ed Hohenstein, and C. David Sherrill          
	 --------------------------------------------------------

   => Auxiliary Basis Set <=

  Basis Set: (AUG-CC-PVTZ AUX)
    Blend: AUG-CC-PVTZ-RI
    Number of shells: 350
    Number of basis function: 1248
    Number of Cartesian functions: 1557
    Spherical Harmonics?: true
    Max angular momentum: 4

	 --------------------------------------------------------
	                 NBF =   575, NAUX =  1248
	 --------------------------------------------------------
	   CLASS    FOCC     OCC    AOCC    AVIR     VIR    FVIR
	   PAIRS       0      28      28     547     547       0
	 --------------------------------------------------------

  DFHelper Memory: AOs need 2.946 GiB; user supplied 22.352 GiB. Using in-core AOs.


         ------------------------------------------------------------
                                     CPHF                           
                                  Rob Parrish                       
         ------------------------------------------------------------

  ==> Geometry <==

    Molecular point group: c1
    Full point group: Cs

    Geometry (in Angstrom), charge = 0, multiplicity = 1:

       Center              X                  Y                   Z               Mass       
    ------------   -----------------  -----------------  -----------------  -----------------
         C           -0.463265524406    -0.780540484042     0.000000000000    12.000000000000
         C           -1.982129024406    -0.901261684042     0.000000000000    12.000000000000
         C           -2.473251524406    -2.319530484042     0.000000000000    12.000000000000
         N           -0.052113524406     0.602914515958     0.000000000000    14.003074004430
         C            1.237410475594     1.085079515958     0.000000000000    12.000000000000
         N            1.415923475594     2.365865515958     0.000000000000    14.003074004430
         N            2.211803475594     0.104250515958     0.000000000000    14.003074004430
         H           -0.077281524406    -1.308149484042     0.886435000000     1.007825032230
         H           -0.077281524406    -1.308149484042    -0.886435000000     1.007825032230
         H           -2.368570524406    -0.349174484042     0.881570000000     1.007825032230
         H           -2.368570524406    -0.349174484042    -0.881570000000     1.007825032230
         H           -3.565443524406    -2.363662484042     0.000000000000     1.007825032230
         H           -2.116292524406    -2.854425484042    -0.885138000000     1.007825032230
         H           -2.116292524406    -2.854425484042     0.885138000000     1.007825032230
         H           -0.753273524406     1.331129515958     0.000000000000     1.007825032230
         H            2.413261475594     2.587210515958     0.000000000000     1.007825032230
         H            1.998949475594    -0.879097484042     0.000000000000     1.007825032230
         H            3.181811475594     0.373482515958     0.000000000000     1.007825032230

  Nuclear repulsion =  309.021671792911775
  Reference energy  = -321.343032595339139

  ==> Basis Set <==

  Basis Set: AUG-CC-PVTZ
    Blend: AUG-CC-PVTZ
    Number of shells: 197
    Number of basis function: 575
    Number of Cartesian functions: 660
    Spherical Harmonics?: true
    Max angular momentum: 3

  ==> CGRSolver (by Rob Parrish) <==

   Number of roots    =         1
   Preconditioning    =    JACOBI
   Convergence cutoff =     1E-06
   Maximum iterations =       100

  ==> CPHFRHamiltonian (by Rob Parrish) <== 

  ==> MemDFJK: Density-Fitted J/K Matrices <==

    J tasked:                   Yes
    K tasked:                   Yes
    wK tasked:                   No
    OpenMP threads:               8
    Memory [MiB]:             22888
    Algorithm:                 Disk
    Schwarz Cutoff:           1E-12
    Mask sparsity (%):       6.2972
    Fitting Condition:        1E-10

   => Auxiliary Basis Set <=

  Basis Set: (AUG-CC-PVTZ AUX)
    Blend: AUG-CC-PVTZ-JKFIT
    Number of shells: 364
    Number of basis function: 1234
    Number of Cartesian functions: 1522
    Spherical Harmonics?: true
    Max angular momentum: 4

  ==> CPHF Iterations <==

  => Iterations <=

             Iter  Converged  Remaining    Residual
  CGR           1          0          1   9.543E-02
  CGR           2          0          1   2.548E-02
  CGR           3          0          1   1.056E-02
  CGR           4          0          1   2.576E-03
  CGR           5          0          1   7.577E-04
  CGR           6          0          1   3.417E-04
  CGR           7          0          1   1.044E-04
  CGR           8          0          1   3.831E-05
  CGR           9          0          1   1.071E-05
  CGR          10          0          1   3.186E-06
  CGR          11          1          0   8.888E-07

    CGRSolver converged.

	-----------------------------------------------------------
	 ==================> DF-MP2 Energies <==================== 
	-----------------------------------------------------------
	 Reference Energy          =    -321.3430325953391389 [Eh]
	 Singles Energy            =      -0.0000000000000000 [Eh]
	 Same-Spin Energy          =      -0.3380778500331103 [Eh]
	 Opposite-Spin Energy      =      -1.1255345111574844 [Eh]
	 Correlation Energy        =      -1.4636123611905947 [Eh]
	 Total Energy              =    -322.8066449565297376 [Eh]
	-----------------------------------------------------------
	 ================> DF-SCS-MP2 Energies <================== 
	-----------------------------------------------------------
	 SCS Same-Spin Scale       =       0.3333333333333333 [-]
	 SCS Opposite-Spin Scale   =       1.2000000000000000 [-]
	 SCS Same-Spin Energy      =      -0.1126926166777034 [Eh]
	 SCS Opposite-Spin Energy  =      -1.3506414133889812 [Eh]
	 SCS Correlation Energy    =      -1.4633340300666846 [Eh]
	 SCS Total Energy          =    -322.8063666254058148 [Eh]
	-----------------------------------------------------------



Properties will be evaluated at  -0.000000,  -0.000000,   0.000000 [a0]

Properties computed using the MP2 density matrix

  Nuclear Dipole Moment: [e a0]
     X:    -5.4936      Y:    -7.4847      Z:     0.0000

  Electronic Dipole Moment: [e a0]
     X:     5.5250      Y:     5.9506      Z:     0.0000

  Dipole Moment: [e a0]
     X:     0.0314      Y:    -1.5341      Z:     0.0000     Total:     1.5344

  Dipole Moment: [D]
     X:     0.0798      Y:    -3.8993      Z:     0.0000     Total:     3.9001


*** tstop() called on node101.bme.utexas.edu at Tue Nov  3 19:36:33 2020
Module time:
	user time   =     533.23 seconds =       8.89 minutes
	system time =      29.20 seconds =       0.49 minutes
	total time  =         99 seconds =       1.65 minutes
Total time:
	user time   =     727.10 seconds =      12.12 minutes
	system time =      55.40 seconds =       0.92 minutes
	total time  =        167 seconds =       2.78 minutes

    Psi4 stopped on: Tuesday, 03 November 2020 07:36PM
    Psi4 wall time for execution: 0:02:46.60

*** Psi4 exiting successfully. Buy a developer a beer!
