
    -----------------------------------------------------------------------
          Psi4: An Open-Source Ab Initio Electronic Structure Package
                               Psi4 1.3.2 release

                         Git: Rev {HEAD} ecbda83 


    R. M. Parrish, L. A. Burns, D. G. A. Smith, A. C. Simmonett,
    A. E. DePrince III, E. G. Hohenstein, U. Bozkaya, A. Yu. Sokolov,
    R. Di Remigio, R. M. Richard, J. F. Gonthier, A. M. James,
    H. R. McAlexander, A. Kumar, M. Saitow, X. Wang, B. P. Pritchard,
    P. Verma, H. F. Schaefer III, K. Patkowski, R. A. King, E. F. Valeev,
    F. A. Evangelista, J. M. Turney, T. D. Crawford, and C. D. Sherrill,
    J. Chem. Theory Comput. 13(7) pp 3185--3197 (2017).
    (doi: 10.1021/acs.jctc.7b00174)


                         Additional Contributions by
    P. Kraus, H. Kruse, M. H. Lechner, M. C. Schieber, R. A. Shaw,
    A. Alenaizan, R. Galvelis, Z. L. Glick, S. Lehtola, and J. P. Misiewicz

    -----------------------------------------------------------------------


    Psi4 started on: Thursday, 04 February 2021 03:56PM

    Process ID: 2476580
    Host:       node58.bme.utexas.edu
    PSIDATADIR: /home/xy3866/psi4conda/share/psi4
    Memory:     500.0 MiB
    Threads:    8
    
  ==> Input File <==

--------------------------------------------------------------------------
#psi4
#
memory 32 gb

molecule  {
0 1
  O        1.7739800     1.6003060    -0.2911220
  N        0.9906540    -0.4920130     0.2058460
  C       -2.2286800    -0.2510300    -0.1765170
  C       -1.2730330    -1.4351160    -0.3152870
  C       -1.5989250     1.1242550    -0.3956020
  C       -0.0841310    -1.3759550     0.6456410
  C       -0.4584780     1.4603760     0.5782350
  C        0.8707430     0.8730760     0.1404640
  C        2.1918860    -1.1187650    -0.3259700
  H       -2.6699130    -0.2765890     0.8297550
  H       -3.0608600    -0.3791320    -0.8796750
  H       -1.8321650    -2.3606500    -0.1255340
  H       -0.8887130    -1.5005570    -1.3409750
  H       -2.3834680     1.8827830    -0.2893500
  H       -1.2246060     1.2090190    -1.4238390
  H       -0.4244360    -1.0900460     1.6492300
  H        0.3620160    -2.3701320     0.7449650
  H       -0.7202056     1.1581778     1.6004035
  H       -0.2910430     2.5394790     0.6064930
  H        1.9486170    -1.7578730    -1.1825500
  H        2.6762910    -1.7288140     0.4434650
  H        2.8674440    -0.3269360    -0.6441440
units angstrom
no_reorient  #important for SAPT in psi4, default
symmetry c1  #important for SAPT in psi4, default
}

set PROPERTIES_ORIGIN ["COM"]
properties('MP2/aug-cc-pvtz', properties = ['dipole'])
--------------------------------------------------------------------------

  Memory set to  29.802 GiB by Python driver.
    SCF Algorithm Type (re)set to DF.

*** tstart() called on node58.bme.utexas.edu
*** at Thu Feb  4 15:56:07 2021

   => Loading Basis Set <=

    Name: AUG-CC-PVTZ
    Role: ORBITAL
    Keyword: BASIS
    atoms 1     entry O          line   327 file /home/xy3866/psi4conda/share/psi4/basis/aug-cc-pvtz.gbs 
    atoms 2     entry N          line   281 file /home/xy3866/psi4conda/share/psi4/basis/aug-cc-pvtz.gbs 
    atoms 3-9   entry C          line   235 file /home/xy3866/psi4conda/share/psi4/basis/aug-cc-pvtz.gbs 
    atoms 10-22 entry H          line    36 file /home/xy3866/psi4conda/share/psi4/basis/aug-cc-pvtz.gbs 


         ---------------------------------------------------------
                                   SCF
               by Justin Turney, Rob Parrish, Andy Simmonett
                          and Daniel G. A. Smith
                              RHF Reference
                        8 Threads,  30517 MiB Core
         ---------------------------------------------------------

  ==> Geometry <==

    Molecular point group: c1
    Full point group: C1

    Geometry (in Angstrom), charge = 0, multiplicity = 1:

       Center              X                  Y                   Z               Mass       
    ------------   -----------------  -----------------  -----------------  -----------------
         O            1.729965259122     1.561055320940    -0.291324406045    15.994914619570
         N            0.946639259122    -0.531263679060     0.205643593955    14.003074004430
         C           -2.272694740878    -0.290280679060    -0.176719406045    12.000000000000
         C           -1.317047740878    -1.474366679060    -0.315489406045    12.000000000000
         C           -1.642939740878     1.085004320940    -0.395804406045    12.000000000000
         C           -0.128145740878    -1.415205679060     0.645438593955    12.000000000000
         C           -0.502492740878     1.421125320940     0.578032593955    12.000000000000
         C            0.826728259122     0.833825320940     0.140261593955    12.000000000000
         C            2.147871259122    -1.158015679060    -0.326172406045    12.000000000000
         H           -2.713927740878    -0.315839679060     0.829552593955     1.007825032230
         H           -3.104874740878    -0.418382679060    -0.879877406045     1.007825032230
         H           -1.876179740878    -2.399900679060    -0.125736406045     1.007825032230
         H           -0.932727740878    -1.539807679060    -1.341177406045     1.007825032230
         H           -2.427482740878     1.843532320940    -0.289552406045     1.007825032230
         H           -1.268620740878     1.169768320940    -1.424041406045     1.007825032230
         H           -0.468450740878    -1.129296679060     1.649027593955     1.007825032230
         H            0.318001259122    -2.409382679060     0.744762593955     1.007825032230
         H           -0.764220340878     1.118927120940     1.600201093955     1.007825032230
         H           -0.335057740878     2.500228320940     0.606290593955     1.007825032230
         H            1.904602259122    -1.797123679060    -1.182752406045     1.007825032230
         H            2.632276259122    -1.768064679060     0.443262593955     1.007825032230
         H            2.823429259122    -0.366186679060    -0.644346406045     1.007825032230

  Running in c1 symmetry.

  Rotational constants: A =      0.07656  B =      0.05241  C =      0.03493 [cm^-1]
  Rotational constants: A =   2295.22583  B =   1571.24159  C =   1047.19889 [MHz]
  Nuclear repulsion =  486.262136650701507

  Charge       = 0
  Multiplicity = 1
  Electrons    = 70
  Nalpha       = 35
  Nbeta        = 35

  ==> Algorithm <==

  SCF Algorithm Type is DF.
  DIIS enabled.
  MOM disabled.
  Fractional occupation disabled.
  Guess Type is SAD.
  Energy threshold   = 1.00e-10
  Density threshold  = 1.00e-10
  Integral threshold = 0.00e+00

  ==> Primary Basis <==

  Basis Set: AUG-CC-PVTZ
    Blend: AUG-CC-PVTZ
    Number of shells: 243
    Number of basis function: 713
    Number of Cartesian functions: 820
    Spherical Harmonics?: true
    Max angular momentum: 3

   => Loading Basis Set <=

    Name: (AUG-CC-PVTZ AUX)
    Role: JKFIT
    Keyword: DF_BASIS_SCF
    atoms 1     entry O          line   286 file /home/xy3866/psi4conda/share/psi4/basis/aug-cc-pvtz-jkfit.gbs 
    atoms 2     entry N          line   224 file /home/xy3866/psi4conda/share/psi4/basis/aug-cc-pvtz-jkfit.gbs 
    atoms 3-9   entry C          line   162 file /home/xy3866/psi4conda/share/psi4/basis/aug-cc-pvtz-jkfit.gbs 
    atoms 10-22 entry H          line    70 file /home/xy3866/psi4conda/share/psi4/basis/aug-cc-pvtz-jkfit.gbs 

  ==> Pre-Iterations <==

   -------------------------------------------------------
    Irrep   Nso     Nmo     Nalpha   Nbeta   Ndocc  Nsocc
   -------------------------------------------------------
     A        713     713       0       0       0       0
   -------------------------------------------------------
    Total     713     713      35      35      35       0
   -------------------------------------------------------

  ==> Integral Setup <==

  DFHelper Memory: AOs need 5.763 GiB; user supplied 22.352 GiB. Using in-core AOs.

  ==> MemDFJK: Density-Fitted J/K Matrices <==

    J tasked:                   Yes
    K tasked:                   Yes
    wK tasked:                   No
    OpenMP threads:               8
    Memory [MiB]:             22888
    Algorithm:                 Disk
    Schwarz Cutoff:           1E-12
    Mask sparsity (%):       3.3999
    Fitting Condition:        1E-10

   => Auxiliary Basis Set <=

  Basis Set: (AUG-CC-PVTZ AUX)
    Blend: AUG-CC-PVTZ-JKFIT
    Number of shells: 452
    Number of basis function: 1534
    Number of Cartesian functions: 1894
    Spherical Harmonics?: true
    Max angular momentum: 4

  Minimum eigenvalue in the overlap matrix is 2.4451795027E-06.
  Using Symmetric Orthogonalization.

  SCF Guess: Superposition of Atomic Densities via on-the-fly atomic UHF.

  ==> Iterations <==

                           Total Energy        Delta E     RMS |[F,P]|

   @DF-RHF iter SAD:  -401.93280082464634   -4.01933e+02   0.00000e+00 
   @DF-RHF iter   1:  -401.77087652780682    1.61924e-01   1.07043e-03 DIIS
   @DF-RHF iter   2:  -402.03747054553492   -2.66594e-01   5.72237e-04 DIIS
   @DF-RHF iter   3:  -402.10661536814405   -6.91448e-02   1.12006e-04 DIIS
   @DF-RHF iter   4:  -402.11136050123264   -4.74513e-03   4.58714e-05 DIIS
   @DF-RHF iter   5:  -402.11193688686984   -5.76386e-04   1.27246e-05 DIIS
   @DF-RHF iter   6:  -402.11200421220940   -6.73253e-05   4.70554e-06 DIIS
   @DF-RHF iter   7:  -402.11201593617142   -1.17240e-05   1.65196e-06 DIIS
   @DF-RHF iter   8:  -402.11201822196796   -2.28580e-06   7.33313e-07 DIIS
   @DF-RHF iter   9:  -402.11201865539431   -4.33426e-07   2.26196e-07 DIIS
   @DF-RHF iter  10:  -402.11201868847053   -3.30762e-08   7.62936e-08 DIIS
   @DF-RHF iter  11:  -402.11201869190336   -3.43283e-09   2.19246e-08 DIIS
   @DF-RHF iter  12:  -402.11201869214511   -2.41755e-10   6.03362e-09 DIIS
   @DF-RHF iter  13:  -402.11201869216819   -2.30784e-11   2.12230e-09 DIIS
   @DF-RHF iter  14:  -402.11201869217223   -4.03588e-12   7.20788e-10 DIIS
   @DF-RHF iter  15:  -402.11201869217075    1.47793e-12   2.19007e-10 DIIS
   @DF-RHF iter  16:  -402.11201869217456   -3.80851e-12   8.74220e-11 DIIS
  Energy and wave function converged.


  ==> Post-Iterations <==

    Orbital Energies [Eh]
    ---------------------

    Doubly Occupied:                                                      

       1A    -20.505765     2A    -15.580575     3A    -11.340059  
       4A    -11.272142     5A    -11.250573     6A    -11.234737  
       7A    -11.233444     8A    -11.233333     9A    -11.231432  
      10A     -1.361877    11A     -1.241169    12A     -1.097435  
      13A     -1.038066    14A     -0.975565    15A     -0.913954  
      16A     -0.878205    17A     -0.792487    18A     -0.725449  
      19A     -0.690731    20A     -0.668585    21A     -0.633229  
      22A     -0.608410    23A     -0.601590    24A     -0.594375  
      25A     -0.583103    26A     -0.557942    27A     -0.544417  
      28A     -0.527106    29A     -0.509844    30A     -0.508896  
      31A     -0.479294    32A     -0.467571    33A     -0.465267  
      34A     -0.407547    35A     -0.365075  

    Virtual:                                                              

      36A      0.024122    37A      0.030350    38A      0.033008  
      39A      0.037696    40A      0.048679    41A      0.049907  
      42A      0.051539    43A      0.055210    44A      0.058214  
      45A      0.072744    46A      0.074481    47A      0.075538  
      48A      0.079888    49A      0.094041    50A      0.105428  
      51A      0.111354    52A      0.115457    53A      0.116471  
      54A      0.119003    55A      0.126936    56A      0.128644  
      57A      0.131330    58A      0.133241    59A      0.139202  
      60A      0.142763    61A      0.144130    62A      0.146314  
      63A      0.149773    64A      0.156640    65A      0.161522  
      66A      0.165572    67A      0.172462    68A      0.175476  
      69A      0.180760    70A      0.181108    71A      0.190438  
      72A      0.195939    73A      0.202260    74A      0.214289  
      75A      0.219363    76A      0.221893    77A      0.237072  
      78A      0.242383    79A      0.244291    80A      0.256758  
      81A      0.262182    82A      0.265693    83A      0.272927  
      84A      0.277297    85A      0.286902    86A      0.290492  
      87A      0.294160    88A      0.302592    89A      0.310104  
      90A      0.310435    91A      0.312409    92A      0.314010  
      93A      0.320157    94A      0.320669    95A      0.330422  
      96A      0.335501    97A      0.337655    98A      0.339864  
      99A      0.350146   100A      0.353560   101A      0.354269  
     102A      0.361276   103A      0.365273   104A      0.370969  
     105A      0.375474   106A      0.378733   107A      0.382175  
     108A      0.389458   109A      0.390989   110A      0.394343  
     111A      0.398980   112A      0.405062   113A      0.411909  
     114A      0.417491   115A      0.422660   116A      0.426721  
     117A      0.430093   118A      0.431716   119A      0.437806  
     120A      0.446411   121A      0.448775   122A      0.451416  
     123A      0.457506   124A      0.460966   125A      0.466023  
     126A      0.466724   127A      0.474260   128A      0.479913  
     129A      0.482965   130A      0.485341   131A      0.494914  
     132A      0.497813   133A      0.501354   134A      0.503572  
     135A      0.514467   136A      0.518226   137A      0.518937  
     138A      0.523887   139A      0.526247   140A      0.531848  
     141A      0.534794   142A      0.539742   143A      0.546630  
     144A      0.553108   145A      0.556844   146A      0.561125  
     147A      0.564365   148A      0.571254   149A      0.577025  
     150A      0.578821   151A      0.582518   152A      0.588491  
     153A      0.593063   154A      0.599951   155A      0.604346  
     156A      0.613550   157A      0.622072   158A      0.623390  
     159A      0.625381   160A      0.629528   161A      0.642868  
     162A      0.648055   163A      0.648873   164A      0.654827  
     165A      0.661696   166A      0.664460   167A      0.672329  
     168A      0.677252   169A      0.684945   170A      0.691003  
     171A      0.694800   172A      0.698348   173A      0.706000  
     174A      0.712925   175A      0.716632   176A      0.726399  
     177A      0.730256   178A      0.736102   179A      0.751019  
     180A      0.763128   181A      0.770424   182A      0.772790  
     183A      0.775847   184A      0.793243   185A      0.804774  
     186A      0.821304   187A      0.824747   188A      0.830698  
     189A      0.839385   190A      0.845764   191A      0.851506  
     192A      0.856934   193A      0.862274   194A      0.871010  
     195A      0.874393   196A      0.877292   197A      0.884488  
     198A      0.886813   199A      0.896216   200A      0.903633  
     201A      0.911980   202A      0.916584   203A      0.921286  
     204A      0.924775   205A      0.928349   206A      0.938618  
     207A      0.940106   208A      0.953436   209A      0.955815  
     210A      0.961749   211A      0.965878   212A      0.971709  
     213A      0.977885   214A      0.978675   215A      0.985316  
     216A      0.993681   217A      1.000114   218A      1.001617  
     219A      1.007495   220A      1.017088   221A      1.031428  
     222A      1.037085   223A      1.042608   224A      1.047428  
     225A      1.052212   226A      1.061987   227A      1.063491  
     228A      1.066990   229A      1.071199   230A      1.075971  
     231A      1.080161   232A      1.088685   233A      1.094488  
     234A      1.098988   235A      1.109332   236A      1.122647  
     237A      1.124686   238A      1.134591   239A      1.139693  
     240A      1.145032   241A      1.147282   242A      1.151054  
     243A      1.155112   244A      1.160927   245A      1.166877  
     246A      1.180897   247A      1.181208   248A      1.190633  
     249A      1.195999   250A      1.198931   251A      1.203549  
     252A      1.210540   253A      1.223368   254A      1.228846  
     255A      1.235216   256A      1.244467   257A      1.253140  
     258A      1.254069   259A      1.259199   260A      1.264600  
     261A      1.276939   262A      1.280908   263A      1.290914  
     264A      1.298023   265A      1.302925   266A      1.311439  
     267A      1.317314   268A      1.321424   269A      1.333377  
     270A      1.335008   271A      1.351367   272A      1.353417  
     273A      1.360675   274A      1.363016   275A      1.372293  
     276A      1.383187   277A      1.389397   278A      1.399780  
     279A      1.411670   280A      1.413159   281A      1.424008  
     282A      1.428842   283A      1.440032   284A      1.442712  
     285A      1.452157   286A      1.466592   287A      1.470356  
     288A      1.476272   289A      1.479208   290A      1.493099  
     291A      1.501898   292A      1.508861   293A      1.515923  
     294A      1.519001   295A      1.526107   296A      1.532871  
     297A      1.541203   298A      1.553227   299A      1.556701  
     300A      1.568243   301A      1.576415   302A      1.586442  
     303A      1.591439   304A      1.599615   305A      1.605661  
     306A      1.614876   307A      1.622843   308A      1.626964  
     309A      1.636130   310A      1.643805   311A      1.655083  
     312A      1.660485   313A      1.666052   314A      1.677757  
     315A      1.684267   316A      1.688787   317A      1.696914  
     318A      1.700055   319A      1.706113   320A      1.715606  
     321A      1.720129   322A      1.727824   323A      1.741304  
     324A      1.748359   325A      1.754672   326A      1.757635  
     327A      1.761493   328A      1.772159   329A      1.777668  
     330A      1.787129   331A      1.795467   332A      1.798013  
     333A      1.798564   334A      1.809848   335A      1.818814  
     336A      1.819943   337A      1.831807   338A      1.840257  
     339A      1.847171   340A      1.854655   341A      1.861831  
     342A      1.867009   343A      1.873076   344A      1.880987  
     345A      1.890866   346A      1.898729   347A      1.916368  
     348A      1.916763   349A      1.924515   350A      1.932699  
     351A      1.944773   352A      1.954016   353A      1.954679  
     354A      1.965581   355A      1.969125   356A      1.976034  
     357A      1.994693   358A      2.001682   359A      2.007741  
     360A      2.011747   361A      2.024954   362A      2.030049  
     363A      2.038359   364A      2.042080   365A      2.051834  
     366A      2.061460   367A      2.063065   368A      2.067900  
     369A      2.086271   370A      2.092277   371A      2.101168  
     372A      2.116285   373A      2.123767   374A      2.138088  
     375A      2.151413   376A      2.157202   377A      2.166429  
     378A      2.179623   379A      2.193250   380A      2.198457  
     381A      2.217466   382A      2.225141   383A      2.233340  
     384A      2.249002   385A      2.250774   386A      2.269439  
     387A      2.278108   388A      2.283932   389A      2.288929  
     390A      2.298727   391A      2.305937   392A      2.320875  
     393A      2.323987   394A      2.339031   395A      2.347595  
     396A      2.362922   397A      2.368552   398A      2.378973  
     399A      2.390349   400A      2.406532   401A      2.418602  
     402A      2.425830   403A      2.444082   404A      2.448134  
     405A      2.466769   406A      2.469479   407A      2.478311  
     408A      2.491714   409A      2.514604   410A      2.527896  
     411A      2.537547   412A      2.548360   413A      2.552844  
     414A      2.584536   415A      2.589388   416A      2.601115  
     417A      2.617472   418A      2.635811   419A      2.641776  
     420A      2.650286   421A      2.661830   422A      2.678402  
     423A      2.693412   424A      2.705502   425A      2.711077  
     426A      2.727997   427A      2.751825   428A      2.760803  
     429A      2.772575   430A      2.795278   431A      2.807273  
     432A      2.835080   433A      2.848673   434A      2.869480  
     435A      2.890567   436A      2.909806   437A      2.953582  
     438A      2.989912   439A      3.008838   440A      3.016161  
     441A      3.062077   442A      3.104596   443A      3.125869  
     444A      3.140232   445A      3.157362   446A      3.170985  
     447A      3.195845   448A      3.204539   449A      3.222489  
     450A      3.288367   451A      3.338312   452A      3.356584  
     453A      3.400266   454A      3.413148   455A      3.446112  
     456A      3.474584   457A      3.489425   458A      3.504290  
     459A      3.525259   460A      3.536001   461A      3.544820  
     462A      3.557105   463A      3.568577   464A      3.577820  
     465A      3.602702   466A      3.612630   467A      3.622751  
     468A      3.633315   469A      3.659764   470A      3.666265  
     471A      3.675125   472A      3.688012   473A      3.692104  
     474A      3.705318   475A      3.712809   476A      3.735527  
     477A      3.741371   478A      3.758000   479A      3.767410  
     480A      3.772466   481A      3.790290   482A      3.801265  
     483A      3.803055   484A      3.808258   485A      3.818323  
     486A      3.834988   487A      3.842041   488A      3.848498  
     489A      3.870144   490A      3.874716   491A      3.882680  
     492A      3.895475   493A      3.903474   494A      3.906853  
     495A      3.923064   496A      3.938073   497A      3.943632  
     498A      3.950241   499A      3.950876   500A      3.953921  
     501A      3.969105   502A      3.972293   503A      3.974889  
     504A      3.993105   505A      4.006737   506A      4.010751  
     507A      4.026138   508A      4.033494   509A      4.041546  
     510A      4.050889   511A      4.055857   512A      4.069518  
     513A      4.078421   514A      4.086337   515A      4.117977  
     516A      4.125531   517A      4.127840   518A      4.136518  
     519A      4.140948   520A      4.159899   521A      4.166467  
     522A      4.175383   523A      4.177452   524A      4.188118  
     525A      4.194010   526A      4.207487   527A      4.234668  
     528A      4.236737   529A      4.243287   530A      4.254692  
     531A      4.263020   532A      4.272765   533A      4.297173  
     534A      4.311018   535A      4.311608   536A      4.318804  
     537A      4.323087   538A      4.332914   539A      4.338641  
     540A      4.350876   541A      4.368746   542A      4.376346  
     543A      4.396772   544A      4.403522   545A      4.411759  
     546A      4.431638   547A      4.450258   548A      4.458580  
     549A      4.470963   550A      4.474187   551A      4.500222  
     552A      4.522622   553A      4.535642   554A      4.551977  
     555A      4.558143   556A      4.590737   557A      4.598295  
     558A      4.614629   559A      4.630567   560A      4.641658  
     561A      4.650311   562A      4.661380   563A      4.679880  
     564A      4.689282   565A      4.708798   566A      4.728826  
     567A      4.740820   568A      4.743091   569A      4.764991  
     570A      4.772662   571A      4.791361   572A      4.801135  
     573A      4.807683   574A      4.817450   575A      4.828405  
     576A      4.838453   577A      4.852526   578A      4.861110  
     579A      4.871931   580A      4.891274   581A      4.900101  
     582A      4.911015   583A      4.919584   584A      4.940318  
     585A      4.954523   586A      4.964846   587A      4.978863  
     588A      4.998257   589A      5.027306   590A      5.035533  
     591A      5.046787   592A      5.052469   593A      5.058359  
     594A      5.080286   595A      5.098567   596A      5.121288  
     597A      5.132484   598A      5.140721   599A      5.152838  
     600A      5.180305   601A      5.184215   602A      5.213524  
     603A      5.221998   604A      5.232326   605A      5.242471  
     606A      5.253319   607A      5.258587   608A      5.267762  
     609A      5.289921   610A      5.294798   611A      5.302408  
     612A      5.316546   613A      5.340447   614A      5.355848  
     615A      5.364540   616A      5.378368   617A      5.387533  
     618A      5.412000   619A      5.430849   620A      5.436746  
     621A      5.451269   622A      5.479862   623A      5.482316  
     624A      5.484367   625A      5.502643   626A      5.519983  
     627A      5.529399   628A      5.545454   629A      5.559937  
     630A      5.580375   631A      5.596449   632A      5.607237  
     633A      5.626311   634A      5.630564   635A      5.636523  
     636A      5.654905   637A      5.672281   638A      5.688788  
     639A      5.695484   640A      5.707800   641A      5.727070  
     642A      5.742421   643A      5.755447   644A      5.771586  
     645A      5.789445   646A      5.814458   647A      5.860519  
     648A      5.872027   649A      5.876768   650A      5.896707  
     651A      5.910958   652A      5.945853   653A      5.958961  
     654A      5.991344   655A      6.001410   656A      6.037711  
     657A      6.058648   658A      6.068983   659A      6.083443  
     660A      6.131057   661A      6.165118   662A      6.181433  
     663A      6.195981   664A      6.210832   665A      6.235544  
     666A      6.241049   667A      6.268785   668A      6.278423  
     669A      6.304679   670A      6.338476   671A      6.347253  
     672A      6.372207   673A      6.460384   674A      6.479208  
     675A      6.535352   676A      6.547621   677A      6.582123  
     678A      6.662639   679A      6.698976   680A      6.714822  
     681A      6.755999   682A      6.801960   683A      6.820364  
     684A      6.842491   685A      6.887840   686A      6.914062  
     687A      6.933777   688A      6.950670   689A      7.000709  
     690A      7.034817   691A      7.062055   692A      7.073162  
     693A      7.098616   694A      7.123250   695A      7.188857  
     696A      7.291648   697A      7.344121   698A      7.499365  
     699A      7.545391   700A      7.691483   701A      7.775697  
     702A      7.821344   703A      8.031933   704A      8.119478  
     705A     16.051406   706A     17.195488   707A     17.920295  
     708A     17.974218   709A     18.599989   710A     19.101532  
     711A     19.289661   712A     19.932554   713A     21.657903  

    Final Occupation by Irrep:
              A 
    DOCC [    35 ]

  @DF-RHF Final Energy:  -402.11201869217456

   => Energetics <=

    Nuclear Repulsion Energy =            486.2621366507015068
    One-Electron Energy =               -1510.5098053988651827
    Two-Electron Energy =                 622.1356500559892311
    Total Energy =                       -402.1120186921745017

Computation Completed

*** tstop() called on node58.bme.utexas.edu at Thu Feb  4 15:57:29 2021
Module time:
	user time   =     356.76 seconds =       5.95 minutes
	system time =      45.54 seconds =       0.76 minutes
	total time  =         82 seconds =       1.37 minutes
Total time:
	user time   =     356.76 seconds =       5.95 minutes
	system time =      45.54 seconds =       0.76 minutes
	total time  =         82 seconds =       1.37 minutes
   => Loading Basis Set <=

    Name: (AUG-CC-PVTZ AUX)
    Role: RIFIT
    Keyword: DF_BASIS_MP2
    atoms 1     entry O          line   264 file /home/xy3866/psi4conda/share/psi4/basis/aug-cc-pvtz-ri.gbs 
    atoms 2     entry N          line   206 file /home/xy3866/psi4conda/share/psi4/basis/aug-cc-pvtz-ri.gbs 
    atoms 3-9   entry C          line   148 file /home/xy3866/psi4conda/share/psi4/basis/aug-cc-pvtz-ri.gbs 
    atoms 10-22 entry H          line    30 file /home/xy3866/psi4conda/share/psi4/basis/aug-cc-pvtz-ri.gbs 


*** tstart() called on node58.bme.utexas.edu
*** at Thu Feb  4 15:57:29 2021


  //>>>>>>>>>>>>>>>>>>>>>>>>>>>>>>>>>>>//
  //               DFMP2               //
  //<<<<<<<<<<<<<<<<<<<<<<<<<<<<<<<<<<<//

	 --------------------------------------------------------
	                          DF-MP2                         
	      2nd-Order Density-Fitted Moller-Plesset Theory     
	              RMP2 Wavefunction,   8 Threads             
	                                                         
	        Rob Parrish, Justin Turney, Andy Simmonett,      
	           Ed Hohenstein, and C. David Sherrill          
	 --------------------------------------------------------

   => Auxiliary Basis Set <=

  Basis Set: (AUG-CC-PVTZ AUX)
    Blend: AUG-CC-PVTZ-RI
    Number of shells: 434
    Number of basis function: 1552
    Number of Cartesian functions: 1939
    Spherical Harmonics?: true
    Max angular momentum: 4

	 --------------------------------------------------------
	                 NBF =   713, NAUX =  1552
	 --------------------------------------------------------
	   CLASS    FOCC     OCC    AOCC    AVIR     VIR    FVIR
	   PAIRS       0      35      35     678     678       0
	 --------------------------------------------------------

  DFHelper Memory: AOs need 5.763 GiB; user supplied 22.352 GiB. Using in-core AOs.


         ------------------------------------------------------------
                                     CPHF                           
                                  Rob Parrish                       
         ------------------------------------------------------------

  ==> Geometry <==

    Molecular point group: c1
    Full point group: C1

    Geometry (in Angstrom), charge = 0, multiplicity = 1:

       Center              X                  Y                   Z               Mass       
    ------------   -----------------  -----------------  -----------------  -----------------
         O            1.729965259122     1.561055320940    -0.291324406045    15.994914619570
         N            0.946639259122    -0.531263679060     0.205643593955    14.003074004430
         C           -2.272694740878    -0.290280679060    -0.176719406045    12.000000000000
         C           -1.317047740878    -1.474366679060    -0.315489406045    12.000000000000
         C           -1.642939740878     1.085004320940    -0.395804406045    12.000000000000
         C           -0.128145740878    -1.415205679060     0.645438593955    12.000000000000
         C           -0.502492740878     1.421125320940     0.578032593955    12.000000000000
         C            0.826728259122     0.833825320940     0.140261593955    12.000000000000
         C            2.147871259122    -1.158015679060    -0.326172406045    12.000000000000
         H           -2.713927740878    -0.315839679060     0.829552593955     1.007825032230
         H           -3.104874740878    -0.418382679060    -0.879877406045     1.007825032230
         H           -1.876179740878    -2.399900679060    -0.125736406045     1.007825032230
         H           -0.932727740878    -1.539807679060    -1.341177406045     1.007825032230
         H           -2.427482740878     1.843532320940    -0.289552406045     1.007825032230
         H           -1.268620740878     1.169768320940    -1.424041406045     1.007825032230
         H           -0.468450740878    -1.129296679060     1.649027593955     1.007825032230
         H            0.318001259122    -2.409382679060     0.744762593955     1.007825032230
         H           -0.764220340878     1.118927120940     1.600201093955     1.007825032230
         H           -0.335057740878     2.500228320940     0.606290593955     1.007825032230
         H            1.904602259122    -1.797123679060    -1.182752406045     1.007825032230
         H            2.632276259122    -1.768064679060     0.443262593955     1.007825032230
         H            2.823429259122    -0.366186679060    -0.644346406045     1.007825032230

  Nuclear repulsion =  486.262136650701507
  Reference energy  = -402.112018692174559

  ==> Basis Set <==

  Basis Set: AUG-CC-PVTZ
    Blend: AUG-CC-PVTZ
    Number of shells: 243
    Number of basis function: 713
    Number of Cartesian functions: 820
    Spherical Harmonics?: true
    Max angular momentum: 3

  ==> CGRSolver (by Rob Parrish) <==

   Number of roots    =         1
   Preconditioning    =    JACOBI
   Convergence cutoff =     1E-06
   Maximum iterations =       100

  ==> CPHFRHamiltonian (by Rob Parrish) <== 

  ==> MemDFJK: Density-Fitted J/K Matrices <==

    J tasked:                   Yes
    K tasked:                   Yes
    wK tasked:                   No
    OpenMP threads:               8
    Memory [MiB]:             22888
    Algorithm:                 Disk
    Schwarz Cutoff:           1E-12
    Mask sparsity (%):       3.3999
    Fitting Condition:        1E-10

   => Auxiliary Basis Set <=

  Basis Set: (AUG-CC-PVTZ AUX)
    Blend: AUG-CC-PVTZ-JKFIT
    Number of shells: 452
    Number of basis function: 1534
    Number of Cartesian functions: 1894
    Spherical Harmonics?: true
    Max angular momentum: 4

  ==> CPHF Iterations <==

  => Iterations <=

             Iter  Converged  Remaining    Residual
  CGR           1          0          1   1.203E-01
  CGR           2          0          1   3.403E-02
  CGR           3          0          1   1.421E-02
  CGR           4          0          1   4.064E-03
  CGR           5          0          1   1.406E-03
  CGR           6          0          1   4.175E-04
  CGR           7          0          1   1.447E-04
  CGR           8          0          1   5.331E-05
  CGR           9          0          1   2.112E-05
  CGR          10          0          1   6.577E-06
  CGR          11          0          1   1.986E-06
  CGR          12          1          0   6.173E-07

    CGRSolver converged.

	-----------------------------------------------------------
	 ==================> DF-MP2 Energies <==================== 
	-----------------------------------------------------------
	 Reference Energy          =    -402.1120186921745585 [Eh]
	 Singles Energy            =      -0.0000000000000000 [Eh]
	 Same-Spin Energy          =      -0.4217652049829244 [Eh]
	 Opposite-Spin Energy      =      -1.4051863172970096 [Eh]
	 Correlation Energy        =      -1.8269515222799340 [Eh]
	 Total Energy              =    -403.9389702144545140 [Eh]
	-----------------------------------------------------------
	 ================> DF-SCS-MP2 Energies <================== 
	-----------------------------------------------------------
	 SCS Same-Spin Scale       =       0.3333333333333333 [-]
	 SCS Opposite-Spin Scale   =       1.2000000000000000 [-]
	 SCS Same-Spin Energy      =      -0.1405884016609748 [Eh]
	 SCS Opposite-Spin Energy  =      -1.6862235807564114 [Eh]
	 SCS Correlation Energy    =      -1.8268119824173863 [Eh]
	 SCS Total Energy          =    -403.9388306745919408 [Eh]
	-----------------------------------------------------------



Properties will be evaluated at   0.000000,   0.000000,   0.000000 [a0]

Properties computed using the MP2 density matrix

  Nuclear Dipole Moment: [e a0]
     X:    -5.8192      Y:    -5.1578      Z:    -0.0155

  Electronic Dipole Moment: [e a0]
     X:     4.8048      Y:     3.9392      Z:     0.3295

  Dipole Moment: [e a0]
     X:    -1.0144      Y:    -1.2187      Z:     0.3140     Total:     1.6164

  Dipole Moment: [D]
     X:    -2.5783      Y:    -3.0976      Z:     0.7982     Total:     4.1085


*** tstop() called on node58.bme.utexas.edu at Thu Feb  4 16:00:42 2021
Module time:
	user time   =    1130.04 seconds =      18.83 minutes
	system time =      58.01 seconds =       0.97 minutes
	total time  =        193 seconds =       3.22 minutes
Total time:
	user time   =    1486.98 seconds =      24.78 minutes
	system time =     103.56 seconds =       1.73 minutes
	total time  =        275 seconds =       4.58 minutes

    Psi4 stopped on: Thursday, 04 February 2021 04:00PM
    Psi4 wall time for execution: 0:04:34.90

*** Psi4 exiting successfully. Buy a developer a beer!
