
    -----------------------------------------------------------------------
          Psi4: An Open-Source Ab Initio Electronic Structure Package
                               Psi4 1.3.2 release

                         Git: Rev {HEAD} ecbda83 


    R. M. Parrish, L. A. Burns, D. G. A. Smith, A. C. Simmonett,
    A. E. DePrince III, E. G. Hohenstein, U. Bozkaya, A. Yu. Sokolov,
    R. Di Remigio, R. M. Richard, J. F. Gonthier, A. M. James,
    H. R. McAlexander, A. Kumar, M. Saitow, X. Wang, B. P. Pritchard,
    P. Verma, H. F. Schaefer III, K. Patkowski, R. A. King, E. F. Valeev,
    F. A. Evangelista, J. M. Turney, T. D. Crawford, and C. D. Sherrill,
    J. Chem. Theory Comput. 13(7) pp 3185--3197 (2017).
    (doi: 10.1021/acs.jctc.7b00174)


                         Additional Contributions by
    P. Kraus, H. Kruse, M. H. Lechner, M. C. Schieber, R. A. Shaw,
    A. Alenaizan, R. Galvelis, Z. L. Glick, S. Lehtola, and J. P. Misiewicz

    -----------------------------------------------------------------------


    Psi4 started on: Tuesday, 02 February 2021 12:36AM

    Process ID: 54577
    Host:       node142.bme.utexas.edu
    PSIDATADIR: /home/xy3866/psi4conda/share/psi4
    Memory:     500.0 MiB
    Threads:    8
    
  ==> Input File <==

--------------------------------------------------------------------------
#psi4
#
memory 32 gb

molecule  {
0 1
  O        1.7739800     1.6003060    -0.2911220
  N        0.9906540    -0.4920130     0.2058460
  C       -2.2286800    -0.2510300    -0.1765170
  C       -1.2730330    -1.4351160    -0.3152870
  C       -1.5989250     1.1242550    -0.3956020
  C       -0.0841310    -1.3759550     0.6456410
  C       -0.4862944     1.5032508     0.5945346
  C        0.8707430     0.8730760     0.1404640
  C        2.1918860    -1.1187650    -0.3259700
  H       -2.6699130    -0.2765890     0.8297550
  H       -3.0608600    -0.3791320    -0.8796750
  H       -1.8321650    -2.3606500    -0.1255340
  H       -0.8887130    -1.5005570    -1.3409750
  H       -2.3834680     1.8827830    -0.2893500
  H       -1.2246060     1.2090190    -1.4238390
  H       -0.4244360    -1.0900460     1.6492300
  H        0.3620160    -2.3701320     0.7449650
  H       -0.7218730     1.1400510     1.5944380
  H       -0.2910430     2.5394790     0.6064930
  H        1.9486170    -1.7578730    -1.1825500
  H        2.6762910    -1.7288140     0.4434650
  H        2.8674440    -0.3269360    -0.6441440
units angstrom
no_reorient  #important for SAPT in psi4, default
symmetry c1  #important for SAPT in psi4, default
}

set PROPERTIES_ORIGIN ["COM"]
properties('MP2/aug-cc-pvtz', properties = ['dipole'])
--------------------------------------------------------------------------

  Memory set to  29.802 GiB by Python driver.
    SCF Algorithm Type (re)set to DF.

*** tstart() called on node142.bme.utexas.edu
*** at Tue Feb  2 00:36:01 2021

   => Loading Basis Set <=

    Name: AUG-CC-PVTZ
    Role: ORBITAL
    Keyword: BASIS
    atoms 1     entry O          line   327 file /home/xy3866/psi4conda/share/psi4/basis/aug-cc-pvtz.gbs 
    atoms 2     entry N          line   281 file /home/xy3866/psi4conda/share/psi4/basis/aug-cc-pvtz.gbs 
    atoms 3-9   entry C          line   235 file /home/xy3866/psi4conda/share/psi4/basis/aug-cc-pvtz.gbs 
    atoms 10-22 entry H          line    36 file /home/xy3866/psi4conda/share/psi4/basis/aug-cc-pvtz.gbs 


         ---------------------------------------------------------
                                   SCF
               by Justin Turney, Rob Parrish, Andy Simmonett
                          and Daniel G. A. Smith
                              RHF Reference
                        8 Threads,  30517 MiB Core
         ---------------------------------------------------------

  ==> Geometry <==

    Molecular point group: c1
    Full point group: C1

    Geometry (in Angstrom), charge = 0, multiplicity = 1:

       Center              X                  Y                   Z               Mass       
    ------------   -----------------  -----------------  -----------------  -----------------
         O            1.732604739863     1.557151071737    -0.292816014592    15.994914619570
         N            0.949278739863    -0.535167928263     0.204151985408    14.003074004430
         C           -2.270055260137    -0.294184928263    -0.178211014592    12.000000000000
         C           -1.314408260137    -1.478270928263    -0.316981014592    12.000000000000
         C           -1.640300260137     1.081100071737    -0.397296014592    12.000000000000
         C           -0.125506260137    -1.419109928263     0.643946985408    12.000000000000
         C           -0.527669660137     1.460095871737     0.592840585408    12.000000000000
         C            0.829367739863     0.829921071737     0.138769985408    12.000000000000
         C            2.150510739863    -1.161919928263    -0.327664014592    12.000000000000
         H           -2.711288260137    -0.319743928263     0.828060985408     1.007825032230
         H           -3.102235260137    -0.422286928263    -0.881369014592     1.007825032230
         H           -1.873540260137    -2.403804928263    -0.127228014592     1.007825032230
         H           -0.930088260137    -1.543711928263    -1.342669014592     1.007825032230
         H           -2.424843260137     1.839628071737    -0.291044014592     1.007825032230
         H           -1.265981260137     1.165864071737    -1.425533014592     1.007825032230
         H           -0.465811260137    -1.133200928263     1.647535985408     1.007825032230
         H            0.320640739863    -2.413286928263     0.743270985408     1.007825032230
         H           -0.763248260137     1.096896071737     1.592743985408     1.007825032230
         H           -0.332418260137     2.496324071737     0.604798985408     1.007825032230
         H            1.907241739863    -1.801027928263    -1.184244014592     1.007825032230
         H            2.634915739863    -1.771968928263     0.441770985408     1.007825032230
         H            2.826068739863    -0.370090928263    -0.645838014592     1.007825032230

  Running in c1 symmetry.

  Rotational constants: A =      0.07595  B =      0.05234  C =      0.03480 [cm^-1]
  Rotational constants: A =   2276.92215  B =   1569.06366  C =   1043.35104 [MHz]
  Nuclear repulsion =  485.393775720153542

  Charge       = 0
  Multiplicity = 1
  Electrons    = 70
  Nalpha       = 35
  Nbeta        = 35

  ==> Algorithm <==

  SCF Algorithm Type is DF.
  DIIS enabled.
  MOM disabled.
  Fractional occupation disabled.
  Guess Type is SAD.
  Energy threshold   = 1.00e-10
  Density threshold  = 1.00e-10
  Integral threshold = 0.00e+00

  ==> Primary Basis <==

  Basis Set: AUG-CC-PVTZ
    Blend: AUG-CC-PVTZ
    Number of shells: 243
    Number of basis function: 713
    Number of Cartesian functions: 820
    Spherical Harmonics?: true
    Max angular momentum: 3

   => Loading Basis Set <=

    Name: (AUG-CC-PVTZ AUX)
    Role: JKFIT
    Keyword: DF_BASIS_SCF
    atoms 1     entry O          line   286 file /home/xy3866/psi4conda/share/psi4/basis/aug-cc-pvtz-jkfit.gbs 
    atoms 2     entry N          line   224 file /home/xy3866/psi4conda/share/psi4/basis/aug-cc-pvtz-jkfit.gbs 
    atoms 3-9   entry C          line   162 file /home/xy3866/psi4conda/share/psi4/basis/aug-cc-pvtz-jkfit.gbs 
    atoms 10-22 entry H          line    70 file /home/xy3866/psi4conda/share/psi4/basis/aug-cc-pvtz-jkfit.gbs 

  ==> Pre-Iterations <==

   -------------------------------------------------------
    Irrep   Nso     Nmo     Nalpha   Nbeta   Ndocc  Nsocc
   -------------------------------------------------------
     A        713     713       0       0       0       0
   -------------------------------------------------------
    Total     713     713      35      35      35       0
   -------------------------------------------------------

  ==> Integral Setup <==

  DFHelper Memory: AOs need 5.762 GiB; user supplied 22.352 GiB. Using in-core AOs.

  ==> MemDFJK: Density-Fitted J/K Matrices <==

    J tasked:                   Yes
    K tasked:                   Yes
    wK tasked:                   No
    OpenMP threads:               8
    Memory [MiB]:             22888
    Algorithm:                 Disk
    Schwarz Cutoff:           1E-12
    Mask sparsity (%):       3.4097
    Fitting Condition:        1E-10

   => Auxiliary Basis Set <=

  Basis Set: (AUG-CC-PVTZ AUX)
    Blend: AUG-CC-PVTZ-JKFIT
    Number of shells: 452
    Number of basis function: 1534
    Number of Cartesian functions: 1894
    Spherical Harmonics?: true
    Max angular momentum: 4

  Minimum eigenvalue in the overlap matrix is 2.5328279620E-06.
  Using Symmetric Orthogonalization.

  SCF Guess: Superposition of Atomic Densities via on-the-fly atomic UHF.

  ==> Iterations <==

                           Total Energy        Delta E     RMS |[F,P]|

   @DF-RHF iter SAD:  -401.88410137798684   -4.01884e+02   0.00000e+00 
   @DF-RHF iter   1:  -401.76990213493599    1.14199e-01   1.07110e-03 DIIS
   @DF-RHF iter   2:  -402.03569645233313   -2.65794e-01   5.73016e-04 DIIS
   @DF-RHF iter   3:  -402.10453014011915   -6.88337e-02   1.13930e-04 DIIS
   @DF-RHF iter   4:  -402.10929749060290   -4.76735e-03   4.78680e-05 DIIS
   @DF-RHF iter   5:  -402.10992103841971   -6.23548e-04   1.25239e-05 DIIS
   @DF-RHF iter   6:  -402.10998847516811   -6.74367e-05   4.68509e-06 DIIS
   @DF-RHF iter   7:  -402.11000011541324   -1.16402e-05   1.63600e-06 DIIS
   @DF-RHF iter   8:  -402.11000233169170   -2.21628e-06   7.30806e-07 DIIS
   @DF-RHF iter   9:  -402.11000275220249   -4.20511e-07   2.30555e-07 DIIS
   @DF-RHF iter  10:  -402.11000278780978   -3.56073e-08   7.67171e-08 DIIS
   @DF-RHF iter  11:  -402.11000279143497   -3.62519e-09   2.19324e-08 DIIS
   @DF-RHF iter  12:  -402.11000279168894   -2.53976e-10   6.03341e-09 DIIS
   @DF-RHF iter  13:  -402.11000279171361   -2.46700e-11   2.10282e-09 DIIS
   @DF-RHF iter  14:  -402.11000279171884   -5.22959e-12   6.87360e-10 DIIS
   @DF-RHF iter  15:  -402.11000279171532    3.52429e-12   1.93066e-10 DIIS
   @DF-RHF iter  16:  -402.11000279171736   -2.04636e-12   7.04508e-11 DIIS
  Energy and wave function converged.


  ==> Post-Iterations <==

    Orbital Energies [Eh]
    ---------------------

    Doubly Occupied:                                                      

       1A    -20.505289     2A    -15.580970     3A    -11.340719  
       4A    -11.272309     5A    -11.250793     6A    -11.233896  
       7A    -11.233372     8A    -11.232894     9A    -11.231953  
      10A     -1.360468    11A     -1.240591    12A     -1.096804  
      13A     -1.036236    14A     -0.973660    15A     -0.915395  
      16A     -0.876231    17A     -0.792197    18A     -0.726184  
      19A     -0.686158    20A     -0.668618    21A     -0.632818  
      22A     -0.607611    23A     -0.604675    24A     -0.594869  
      25A     -0.583944    26A     -0.560134    27A     -0.541054  
      28A     -0.529496    29A     -0.511450    30A     -0.508781  
      31A     -0.479727    32A     -0.472115    33A     -0.464391  
      34A     -0.401767    35A     -0.365154  

    Virtual:                                                              

      36A      0.024116    37A      0.030405    38A      0.033116  
      39A      0.037715    40A      0.048806    41A      0.049884  
      42A      0.051582    43A      0.055174    44A      0.058221  
      45A      0.072830    46A      0.074490    47A      0.075487  
      48A      0.079855    49A      0.094095    50A      0.105261  
      51A      0.111308    52A      0.115375    53A      0.116531  
      54A      0.119498    55A      0.127048    56A      0.128534  
      57A      0.131366    58A      0.133696    59A      0.139185  
      60A      0.142565    61A      0.144160    62A      0.146210  
      63A      0.149891    64A      0.156792    65A      0.161587  
      66A      0.165506    67A      0.172044    68A      0.175462  
      69A      0.181018    70A      0.181682    71A      0.191990  
      72A      0.196397    73A      0.201968    74A      0.214170  
      75A      0.219418    76A      0.221629    77A      0.237099  
      78A      0.242173    79A      0.243626    80A      0.256970  
      81A      0.261895    82A      0.264980    83A      0.273139  
      84A      0.277059    85A      0.286510    86A      0.291668  
      87A      0.294346    88A      0.303047    89A      0.309692  
      90A      0.310863    91A      0.312504    92A      0.313685  
      93A      0.319750    94A      0.320810    95A      0.330744  
      96A      0.334976    97A      0.336716    98A      0.339902  
      99A      0.349946   100A      0.353375   101A      0.355797  
     102A      0.361630   103A      0.365388   104A      0.370591  
     105A      0.374568   106A      0.378416   107A      0.381713  
     108A      0.389206   109A      0.391261   110A      0.393256  
     111A      0.399106   112A      0.405685   113A      0.412342  
     114A      0.416752   115A      0.422509   116A      0.427147  
     117A      0.430206   118A      0.431569   119A      0.437270  
     120A      0.446828   121A      0.448946   122A      0.451039  
     123A      0.456530   124A      0.460457   125A      0.464635  
     126A      0.466513   127A      0.474000   128A      0.479961  
     129A      0.482363   130A      0.484470   131A      0.493714  
     132A      0.497209   133A      0.499983   134A      0.502414  
     135A      0.514578   136A      0.517848   137A      0.519765  
     138A      0.523697   139A      0.525439   140A      0.530902  
     141A      0.534688   142A      0.541001   143A      0.546127  
     144A      0.552343   145A      0.556347   146A      0.560931  
     147A      0.563101   148A      0.571151   149A      0.578871  
     150A      0.579009   151A      0.582916   152A      0.587606  
     153A      0.592606   154A      0.600331   155A      0.604077  
     156A      0.612993   157A      0.621893   158A      0.624205  
     159A      0.626008   160A      0.628933   161A      0.641910  
     162A      0.647492   163A      0.647920   164A      0.655070  
     165A      0.659710   166A      0.665174   167A      0.672336  
     168A      0.676345   169A      0.684798   170A      0.690917  
     171A      0.693690   172A      0.697639   173A      0.704194  
     174A      0.711972   175A      0.717097   176A      0.723733  
     177A      0.730774   178A      0.737129   179A      0.751166  
     180A      0.760906   181A      0.769465   182A      0.771004  
     183A      0.774359   184A      0.794285   185A      0.803675  
     186A      0.821546   187A      0.824032   188A      0.832199  
     189A      0.838062   190A      0.845738   191A      0.850902  
     192A      0.856295   193A      0.862271   194A      0.870894  
     195A      0.874295   196A      0.874994   197A      0.883648  
     198A      0.886206   199A      0.896806   200A      0.904662  
     201A      0.912726   202A      0.916053   203A      0.921387  
     204A      0.925593   205A      0.929653   206A      0.936438  
     207A      0.940378   208A      0.954188   209A      0.955118  
     210A      0.961906   211A      0.964070   212A      0.971335  
     213A      0.977325   214A      0.978792   215A      0.981495  
     216A      0.993558   217A      0.999014   218A      1.001828  
     219A      1.007124   220A      1.017641   221A      1.030941  
     222A      1.035624   223A      1.042408   224A      1.046767  
     225A      1.053669   226A      1.060251   227A      1.063597  
     228A      1.066727   229A      1.070852   230A      1.076266  
     231A      1.081353   232A      1.088878   233A      1.093929  
     234A      1.098283   235A      1.106762   236A      1.121273  
     237A      1.123608   238A      1.133674   239A      1.137268  
     240A      1.143771   241A      1.147719   242A      1.150021  
     243A      1.156515   244A      1.161087   245A      1.167321  
     246A      1.179459   247A      1.181958   248A      1.191876  
     249A      1.195525   250A      1.199360   251A      1.201136  
     252A      1.212098   253A      1.222278   254A      1.229256  
     255A      1.234114   256A      1.244252   257A      1.250703  
     258A      1.254825   259A      1.259218   260A      1.264944  
     261A      1.278863   262A      1.281392   263A      1.290634  
     264A      1.297096   265A      1.302566   266A      1.312213  
     267A      1.316379   268A      1.322445   269A      1.333805  
     270A      1.336987   271A      1.350689   272A      1.352764  
     273A      1.359479   274A      1.360241   275A      1.372004  
     276A      1.383340   277A      1.388655   278A      1.399958  
     279A      1.411095   280A      1.412621   281A      1.426036  
     282A      1.427915   283A      1.439925   284A      1.446258  
     285A      1.450677   286A      1.461842   287A      1.471036  
     288A      1.474780   289A      1.476843   290A      1.492004  
     291A      1.497269   292A      1.507778   293A      1.518065  
     294A      1.522697   295A      1.526505   296A      1.533722  
     297A      1.541903   298A      1.553663   299A      1.558215  
     300A      1.565456   301A      1.575583   302A      1.586408  
     303A      1.592117   304A      1.599779   305A      1.606595  
     306A      1.613719   307A      1.623533   308A      1.628793  
     309A      1.637869   310A      1.642500   311A      1.655281  
     312A      1.662111   313A      1.664378   314A      1.675704  
     315A      1.684161   316A      1.688943   317A      1.698236  
     318A      1.699133   319A      1.704889   320A      1.716000  
     321A      1.719891   322A      1.728950   323A      1.740681  
     324A      1.747277   325A      1.754215   326A      1.756044  
     327A      1.761151   328A      1.773681   329A      1.778837  
     330A      1.786692   331A      1.792600   332A      1.796362  
     333A      1.797637   334A      1.808813   335A      1.815082  
     336A      1.821372   337A      1.833916   338A      1.839816  
     339A      1.846264   340A      1.855176   341A      1.860866  
     342A      1.864315   343A      1.872797   344A      1.880612  
     345A      1.888850   346A      1.899000   347A      1.916611  
     348A      1.918419   349A      1.926496   350A      1.934262  
     351A      1.945923   352A      1.952167   353A      1.953908  
     354A      1.963981   355A      1.966050   356A      1.976582  
     357A      1.994409   358A      2.002274   359A      2.007319  
     360A      2.010167   361A      2.022265   362A      2.029632  
     363A      2.036404   364A      2.043744   365A      2.052584  
     366A      2.061522   367A      2.063108   368A      2.068906  
     369A      2.086058   370A      2.090442   371A      2.101774  
     372A      2.117232   373A      2.126490   374A      2.140211  
     375A      2.150554   376A      2.158903   377A      2.163771  
     378A      2.179517   379A      2.188407   380A      2.198193  
     381A      2.217073   382A      2.226201   383A      2.231646  
     384A      2.247032   385A      2.249641   386A      2.264980  
     387A      2.275603   388A      2.283054   389A      2.287769  
     390A      2.299221   391A      2.304742   392A      2.321321  
     393A      2.323314   394A      2.333464   395A      2.346087  
     396A      2.359820   397A      2.372121   398A      2.381551  
     399A      2.387919   400A      2.406334   401A      2.411091  
     402A      2.421766   403A      2.442884   404A      2.446983  
     405A      2.457430   406A      2.462499   407A      2.477001  
     408A      2.491324   409A      2.509985   410A      2.523667  
     411A      2.528499   412A      2.546608   413A      2.550825  
     414A      2.578827   415A      2.592497   416A      2.596369  
     417A      2.615162   418A      2.634167   419A      2.640491  
     420A      2.646198   421A      2.661587   422A      2.678593  
     423A      2.695041   424A      2.703400   425A      2.708891  
     426A      2.721000   427A      2.746926   428A      2.761088  
     429A      2.771831   430A      2.790123   431A      2.804347  
     432A      2.833896   433A      2.851438   434A      2.867926  
     435A      2.882098   436A      2.910492   437A      2.948814  
     438A      2.989011   439A      2.993671   440A      3.021996  
     441A      3.056080   442A      3.100158   443A      3.115890  
     444A      3.132999   445A      3.153398   446A      3.163072  
     447A      3.191465   448A      3.197540   449A      3.222075  
     450A      3.281924   451A      3.331706   452A      3.339217  
     453A      3.389709   454A      3.418164   455A      3.432401  
     456A      3.473084   457A      3.487819   458A      3.503444  
     459A      3.526938   460A      3.535529   461A      3.544721  
     462A      3.558438   463A      3.565436   464A      3.575142  
     465A      3.599595   466A      3.614802   467A      3.626624  
     468A      3.635260   469A      3.659997   470A      3.665695  
     471A      3.672433   472A      3.687165   473A      3.694612  
     474A      3.709490   475A      3.716601   476A      3.733799  
     477A      3.740761   478A      3.751211   479A      3.768384  
     480A      3.773348   481A      3.789593   482A      3.795317  
     483A      3.800861   484A      3.809722   485A      3.823143  
     486A      3.830733   487A      3.837884   488A      3.855726  
     489A      3.859684   490A      3.870586   491A      3.880528  
     492A      3.893084   493A      3.900060   494A      3.909287  
     495A      3.923229   496A      3.934290   497A      3.943046  
     498A      3.947552   499A      3.950177   500A      3.956639  
     501A      3.968099   502A      3.971289   503A      3.973479  
     504A      3.988877   505A      4.004033   506A      4.011356  
     507A      4.024391   508A      4.032073   509A      4.038987  
     510A      4.048871   511A      4.053306   512A      4.067413  
     513A      4.078041   514A      4.085509   515A      4.114801  
     516A      4.124244   517A      4.127498   518A      4.131601  
     519A      4.139160   520A      4.157897   521A      4.163052  
     522A      4.173370   523A      4.178860   524A      4.193590  
     525A      4.194962   526A      4.206922   527A      4.232660  
     528A      4.235848   529A      4.240517   530A      4.250507  
     531A      4.262154   532A      4.272225   533A      4.290850  
     534A      4.308607   535A      4.312065   536A      4.317133  
     537A      4.324246   538A      4.331923   539A      4.336976  
     540A      4.351375   541A      4.365934   542A      4.374584  
     543A      4.393022   544A      4.404693   545A      4.412467  
     546A      4.431533   547A      4.446932   548A      4.453425  
     549A      4.465776   550A      4.473565   551A      4.489517  
     552A      4.517219   553A      4.533368   554A      4.554315  
     555A      4.561049   556A      4.586526   557A      4.602243  
     558A      4.611854   559A      4.627203   560A      4.637725  
     561A      4.650116   562A      4.666109   563A      4.677302  
     564A      4.682628   565A      4.703789   566A      4.723714  
     567A      4.734706   568A      4.743528   569A      4.766222  
     570A      4.776716   571A      4.786386   572A      4.800148  
     573A      4.813929   574A      4.815880   575A      4.831104  
     576A      4.837014   577A      4.852825   578A      4.856583  
     579A      4.875124   580A      4.890498   581A      4.897956  
     582A      4.908932   583A      4.916768   584A      4.933912  
     585A      4.952754   586A      4.954436   587A      4.974957  
     588A      5.000862   589A      5.029784   590A      5.033544  
     591A      5.045627   592A      5.062962   593A      5.067229  
     594A      5.085588   595A      5.097905   596A      5.118290  
     597A      5.131204   598A      5.137019   599A      5.162664  
     600A      5.184339   601A      5.186970   602A      5.212691  
     603A      5.224656   604A      5.233709   605A      5.243948  
     606A      5.248524   607A      5.262016   608A      5.271011  
     609A      5.286202   610A      5.293358   611A      5.311165  
     612A      5.313713   613A      5.337806   614A      5.359028  
     615A      5.370014   616A      5.378090   617A      5.387557  
     618A      5.414855   619A      5.431317   620A      5.435805  
     621A      5.448819   622A      5.479158   623A      5.487946  
     624A      5.498391   625A      5.506314   626A      5.533242  
     627A      5.533475   628A      5.549982   629A      5.563424  
     630A      5.580709   631A      5.589972   632A      5.617443  
     633A      5.626092   634A      5.632819   635A      5.644413  
     636A      5.659207   637A      5.672158   638A      5.686871  
     639A      5.704019   640A      5.713100   641A      5.727788  
     642A      5.745107   643A      5.758894   644A      5.782145  
     645A      5.784235   646A      5.811030   647A      5.860942  
     648A      5.875518   649A      5.887661   650A      5.903724  
     651A      5.909198   652A      5.948552   653A      5.956879  
     654A      5.989851   655A      6.000781   656A      6.033523  
     657A      6.062940   658A      6.067027   659A      6.089445  
     660A      6.140484   661A      6.160626   662A      6.190926  
     663A      6.194095   664A      6.216167   665A      6.236402  
     666A      6.238275   667A      6.265973   668A      6.280667  
     669A      6.307397   670A      6.334796   671A      6.351468  
     672A      6.378840   673A      6.451900   674A      6.468932  
     675A      6.531643   676A      6.550511   677A      6.580934  
     678A      6.658856   679A      6.687920   680A      6.720317  
     681A      6.752152   682A      6.801740   683A      6.819067  
     684A      6.844318   685A      6.884632   686A      6.908338  
     687A      6.929681   688A      6.948603   689A      6.997918  
     690A      7.018441   691A      7.047752   692A      7.062439  
     693A      7.093461   694A      7.121112   695A      7.185134  
     696A      7.286350   697A      7.342116   698A      7.496006  
     699A      7.537898   700A      7.669781   701A      7.768215  
     702A      7.816476   703A      8.024875   704A      8.114210  
     705A     16.002692   706A     17.038575   707A     17.951666  
     708A     17.983865   709A     18.602483   710A     19.109640  
     711A     19.328113   712A     19.948465   713A     21.554376  

    Final Occupation by Irrep:
              A 
    DOCC [    35 ]

  @DF-RHF Final Energy:  -402.11000279171736

   => Energetics <=

    Nuclear Repulsion Energy =            485.3937757201535419
    One-Electron Energy =               -1508.7821047811376047
    Two-Electron Energy =                 621.2783262692665858
    Total Energy =                       -402.1100027917174202

Computation Completed

*** tstop() called on node142.bme.utexas.edu at Tue Feb  2 00:37:47 2021
Module time:
	user time   =     487.33 seconds =       8.12 minutes
	system time =      54.21 seconds =       0.90 minutes
	total time  =        106 seconds =       1.77 minutes
Total time:
	user time   =     487.33 seconds =       8.12 minutes
	system time =      54.21 seconds =       0.90 minutes
	total time  =        106 seconds =       1.77 minutes
   => Loading Basis Set <=

    Name: (AUG-CC-PVTZ AUX)
    Role: RIFIT
    Keyword: DF_BASIS_MP2
    atoms 1     entry O          line   264 file /home/xy3866/psi4conda/share/psi4/basis/aug-cc-pvtz-ri.gbs 
    atoms 2     entry N          line   206 file /home/xy3866/psi4conda/share/psi4/basis/aug-cc-pvtz-ri.gbs 
    atoms 3-9   entry C          line   148 file /home/xy3866/psi4conda/share/psi4/basis/aug-cc-pvtz-ri.gbs 
    atoms 10-22 entry H          line    30 file /home/xy3866/psi4conda/share/psi4/basis/aug-cc-pvtz-ri.gbs 


*** tstart() called on node142.bme.utexas.edu
*** at Tue Feb  2 00:37:47 2021


  //>>>>>>>>>>>>>>>>>>>>>>>>>>>>>>>>>>>//
  //               DFMP2               //
  //<<<<<<<<<<<<<<<<<<<<<<<<<<<<<<<<<<<//

	 --------------------------------------------------------
	                          DF-MP2                         
	      2nd-Order Density-Fitted Moller-Plesset Theory     
	              RMP2 Wavefunction,   8 Threads             
	                                                         
	        Rob Parrish, Justin Turney, Andy Simmonett,      
	           Ed Hohenstein, and C. David Sherrill          
	 --------------------------------------------------------

   => Auxiliary Basis Set <=

  Basis Set: (AUG-CC-PVTZ AUX)
    Blend: AUG-CC-PVTZ-RI
    Number of shells: 434
    Number of basis function: 1552
    Number of Cartesian functions: 1939
    Spherical Harmonics?: true
    Max angular momentum: 4

	 --------------------------------------------------------
	                 NBF =   713, NAUX =  1552
	 --------------------------------------------------------
	   CLASS    FOCC     OCC    AOCC    AVIR     VIR    FVIR
	   PAIRS       0      35      35     678     678       0
	 --------------------------------------------------------

  DFHelper Memory: AOs need 5.762 GiB; user supplied 22.352 GiB. Using in-core AOs.


         ------------------------------------------------------------
                                     CPHF                           
                                  Rob Parrish                       
         ------------------------------------------------------------

  ==> Geometry <==

    Molecular point group: c1
    Full point group: C1

    Geometry (in Angstrom), charge = 0, multiplicity = 1:

       Center              X                  Y                   Z               Mass       
    ------------   -----------------  -----------------  -----------------  -----------------
         O            1.732604739863     1.557151071737    -0.292816014592    15.994914619570
         N            0.949278739863    -0.535167928263     0.204151985408    14.003074004430
         C           -2.270055260137    -0.294184928263    -0.178211014592    12.000000000000
         C           -1.314408260137    -1.478270928263    -0.316981014592    12.000000000000
         C           -1.640300260137     1.081100071737    -0.397296014592    12.000000000000
         C           -0.125506260137    -1.419109928263     0.643946985408    12.000000000000
         C           -0.527669660137     1.460095871737     0.592840585408    12.000000000000
         C            0.829367739863     0.829921071737     0.138769985408    12.000000000000
         C            2.150510739863    -1.161919928263    -0.327664014592    12.000000000000
         H           -2.711288260137    -0.319743928263     0.828060985408     1.007825032230
         H           -3.102235260137    -0.422286928263    -0.881369014592     1.007825032230
         H           -1.873540260137    -2.403804928263    -0.127228014592     1.007825032230
         H           -0.930088260137    -1.543711928263    -1.342669014592     1.007825032230
         H           -2.424843260137     1.839628071737    -0.291044014592     1.007825032230
         H           -1.265981260137     1.165864071737    -1.425533014592     1.007825032230
         H           -0.465811260137    -1.133200928263     1.647535985408     1.007825032230
         H            0.320640739863    -2.413286928263     0.743270985408     1.007825032230
         H           -0.763248260137     1.096896071737     1.592743985408     1.007825032230
         H           -0.332418260137     2.496324071737     0.604798985408     1.007825032230
         H            1.907241739863    -1.801027928263    -1.184244014592     1.007825032230
         H            2.634915739863    -1.771968928263     0.441770985408     1.007825032230
         H            2.826068739863    -0.370090928263    -0.645838014592     1.007825032230

  Nuclear repulsion =  485.393775720153542
  Reference energy  = -402.110002791717363

  ==> Basis Set <==

  Basis Set: AUG-CC-PVTZ
    Blend: AUG-CC-PVTZ
    Number of shells: 243
    Number of basis function: 713
    Number of Cartesian functions: 820
    Spherical Harmonics?: true
    Max angular momentum: 3

  ==> CGRSolver (by Rob Parrish) <==

   Number of roots    =         1
   Preconditioning    =    JACOBI
   Convergence cutoff =     1E-06
   Maximum iterations =       100

  ==> CPHFRHamiltonian (by Rob Parrish) <== 

  ==> MemDFJK: Density-Fitted J/K Matrices <==

    J tasked:                   Yes
    K tasked:                   Yes
    wK tasked:                   No
    OpenMP threads:               8
    Memory [MiB]:             22888
    Algorithm:                 Disk
    Schwarz Cutoff:           1E-12
    Mask sparsity (%):       3.4097
    Fitting Condition:        1E-10

   => Auxiliary Basis Set <=

  Basis Set: (AUG-CC-PVTZ AUX)
    Blend: AUG-CC-PVTZ-JKFIT
    Number of shells: 452
    Number of basis function: 1534
    Number of Cartesian functions: 1894
    Spherical Harmonics?: true
    Max angular momentum: 4

  ==> CPHF Iterations <==

  => Iterations <=

             Iter  Converged  Remaining    Residual
  CGR           1          0          1   1.203E-01
  CGR           2          0          1   3.397E-02
  CGR           3          0          1   1.413E-02
  CGR           4          0          1   4.026E-03
  CGR           5          0          1   1.393E-03
  CGR           6          0          1   4.149E-04
  CGR           7          0          1   1.429E-04
  CGR           8          0          1   5.180E-05
  CGR           9          0          1   2.045E-05
  CGR          10          0          1   6.477E-06
  CGR          11          0          1   1.939E-06
  CGR          12          1          0   6.025E-07

    CGRSolver converged.

	-----------------------------------------------------------
	 ==================> DF-MP2 Energies <==================== 
	-----------------------------------------------------------
	 Reference Energy          =    -402.1100027917173634 [Eh]
	 Singles Energy            =      -0.0000000000000000 [Eh]
	 Same-Spin Energy          =      -0.4214356775708416 [Eh]
	 Opposite-Spin Energy      =      -1.4048680437894820 [Eh]
	 Correlation Energy        =      -1.8263037213603237 [Eh]
	 Total Energy              =    -403.9363065130776818 [Eh]
	-----------------------------------------------------------
	 ================> DF-SCS-MP2 Energies <================== 
	-----------------------------------------------------------
	 SCS Same-Spin Scale       =       0.3333333333333333 [-]
	 SCS Opposite-Spin Scale   =       1.2000000000000000 [-]
	 SCS Same-Spin Energy      =      -0.1404785591902805 [Eh]
	 SCS Opposite-Spin Energy  =      -1.6858416525473785 [Eh]
	 SCS Correlation Energy    =      -1.8263202117376589 [Eh]
	 SCS Total Energy          =    -403.9363230034550156 [Eh]
	-----------------------------------------------------------



Properties will be evaluated at  -0.000000,   0.000000,  -0.000000 [a0]

Properties computed using the MP2 density matrix

  Nuclear Dipole Moment: [e a0]
     X:    -5.7885      Y:    -5.2224      Z:    -0.0393

  Electronic Dipole Moment: [e a0]
     X:     4.7865      Y:     3.9971      Z:     0.3494

  Dipole Moment: [e a0]
     X:    -1.0021      Y:    -1.2253      Z:     0.3102     Total:     1.6130

  Dipole Moment: [D]
     X:    -2.5471      Y:    -3.1144      Z:     0.7884     Total:     4.0998


*** tstop() called on node142.bme.utexas.edu at Tue Feb  2 00:42:49 2021
Module time:
	user time   =    1764.96 seconds =      29.42 minutes
	system time =     112.93 seconds =       1.88 minutes
	total time  =        302 seconds =       5.03 minutes
Total time:
	user time   =    2252.54 seconds =      37.54 minutes
	system time =     167.15 seconds =       2.79 minutes
	total time  =        408 seconds =       6.80 minutes

    Psi4 stopped on: Tuesday, 02 February 2021 12:42AM
    Psi4 wall time for execution: 0:06:48.57

*** Psi4 exiting successfully. Buy a developer a beer!
