
    -----------------------------------------------------------------------
          Psi4: An Open-Source Ab Initio Electronic Structure Package
                               Psi4 1.3.2 release

                         Git: Rev {HEAD} ecbda83 


    R. M. Parrish, L. A. Burns, D. G. A. Smith, A. C. Simmonett,
    A. E. DePrince III, E. G. Hohenstein, U. Bozkaya, A. Yu. Sokolov,
    R. Di Remigio, R. M. Richard, J. F. Gonthier, A. M. James,
    H. R. McAlexander, A. Kumar, M. Saitow, X. Wang, B. P. Pritchard,
    P. Verma, H. F. Schaefer III, K. Patkowski, R. A. King, E. F. Valeev,
    F. A. Evangelista, J. M. Turney, T. D. Crawford, and C. D. Sherrill,
    J. Chem. Theory Comput. 13(7) pp 3185--3197 (2017).
    (doi: 10.1021/acs.jctc.7b00174)


                         Additional Contributions by
    P. Kraus, H. Kruse, M. H. Lechner, M. C. Schieber, R. A. Shaw,
    A. Alenaizan, R. Galvelis, Z. L. Glick, S. Lehtola, and J. P. Misiewicz

    -----------------------------------------------------------------------


    Psi4 started on: Thursday, 04 February 2021 03:01PM

    Process ID: 2470137
    Host:       node58.bme.utexas.edu
    PSIDATADIR: /home/xy3866/psi4conda/share/psi4
    Memory:     500.0 MiB
    Threads:    8
    
  ==> Input File <==

--------------------------------------------------------------------------
#psi4
#
memory 32 gb

molecule  {
0 1
  O        1.7739800     1.6003060    -0.2911220
  N        0.9906540    -0.4920130     0.2058460
  C       -2.2286800    -0.2510300    -0.1765170
  C       -1.2730330    -1.4351160    -0.3152870
  C       -1.5989250     1.1242550    -0.3956020
  C       -0.0841310    -1.3759550     0.6456410
  C       -0.4584780     1.4603760     0.5782350
  C        0.8707430     0.8730760     0.1404640
  C        2.1918860    -1.1187650    -0.3259700
  H       -2.6524477    -0.2741222     0.8372931
  H       -3.0608600    -0.3791320    -0.8796750
  H       -1.8321650    -2.3606500    -0.1255340
  H       -0.8887130    -1.5005570    -1.3409750
  H       -2.3834680     1.8827830    -0.2893500
  H       -1.2246060     1.2090190    -1.4238390
  H       -0.4244360    -1.0900460     1.6492300
  H        0.3620160    -2.3701320     0.7449650
  H       -0.7218730     1.1400510     1.5944380
  H       -0.2910430     2.5394790     0.6064930
  H        1.9486170    -1.7578730    -1.1825500
  H        2.6762910    -1.7288140     0.4434650
  H        2.8674440    -0.3269360    -0.6441440
units angstrom
no_reorient  #important for SAPT in psi4, default
symmetry c1  #important for SAPT in psi4, default
}

set PROPERTIES_ORIGIN ["COM"]
properties('MP2/aug-cc-pvtz', properties = ['dipole'])
--------------------------------------------------------------------------

  Memory set to  29.802 GiB by Python driver.
    SCF Algorithm Type (re)set to DF.

*** tstart() called on node58.bme.utexas.edu
*** at Thu Feb  4 15:01:25 2021

   => Loading Basis Set <=

    Name: AUG-CC-PVTZ
    Role: ORBITAL
    Keyword: BASIS
    atoms 1     entry O          line   327 file /home/xy3866/psi4conda/share/psi4/basis/aug-cc-pvtz.gbs 
    atoms 2     entry N          line   281 file /home/xy3866/psi4conda/share/psi4/basis/aug-cc-pvtz.gbs 
    atoms 3-9   entry C          line   235 file /home/xy3866/psi4conda/share/psi4/basis/aug-cc-pvtz.gbs 
    atoms 10-22 entry H          line    36 file /home/xy3866/psi4conda/share/psi4/basis/aug-cc-pvtz.gbs 


         ---------------------------------------------------------
                                   SCF
               by Justin Turney, Rob Parrish, Andy Simmonett
                          and Daniel G. A. Smith
                              RHF Reference
                        8 Threads,  30517 MiB Core
         ---------------------------------------------------------

  ==> Geometry <==

    Molecular point group: c1
    Full point group: C1

    Geometry (in Angstrom), charge = 0, multiplicity = 1:

       Center              X                  Y                   Z               Mass       
    ------------   -----------------  -----------------  -----------------  -----------------
         O            1.729839991184     1.561179495413    -0.291336875827    15.994914619570
         N            0.946513991184    -0.531139504587     0.205631124173    14.003074004430
         C           -2.272820008816    -0.290156504587    -0.176731875827    12.000000000000
         C           -1.317173008816    -1.474242504587    -0.315501875827    12.000000000000
         C           -1.643065008816     1.085128495413    -0.395816875827    12.000000000000
         C           -0.128271008816    -1.415081504587     0.645426124173    12.000000000000
         C           -0.502618008816     1.421249495413     0.578020124173    12.000000000000
         C            0.826602991184     0.833949495413     0.140249124173    12.000000000000
         C            2.147745991184    -1.157891504587    -0.326184875827    12.000000000000
         H           -2.696587708816    -0.313248704587     0.837078224173     1.007825032230
         H           -3.105000008816    -0.418258504587    -0.879889875827     1.007825032230
         H           -1.876305008816    -2.399776504587    -0.125748875827     1.007825032230
         H           -0.932853008816    -1.539683504587    -1.341189875827     1.007825032230
         H           -2.427608008816     1.843656495413    -0.289564875827     1.007825032230
         H           -1.268746008816     1.169892495413    -1.424053875827     1.007825032230
         H           -0.468576008816    -1.129172504587     1.649015124173     1.007825032230
         H            0.317875991184    -2.409258504587     0.744750124173     1.007825032230
         H           -0.766013008816     1.100924495413     1.594223124173     1.007825032230
         H           -0.335183008816     2.500352495413     0.606278124173     1.007825032230
         H            1.904476991184    -1.796999504587    -1.182764875827     1.007825032230
         H            2.632150991184    -1.767940504587     0.443250124173     1.007825032230
         H            2.823303991184    -0.366062504587    -0.644358875827     1.007825032230

  Running in c1 symmetry.

  Rotational constants: A =      0.07658  B =      0.05243  C =      0.03494 [cm^-1]
  Rotational constants: A =   2295.73699  B =   1571.72771  C =   1047.49005 [MHz]
  Nuclear repulsion =  486.336636672963891

  Charge       = 0
  Multiplicity = 1
  Electrons    = 70
  Nalpha       = 35
  Nbeta        = 35

  ==> Algorithm <==

  SCF Algorithm Type is DF.
  DIIS enabled.
  MOM disabled.
  Fractional occupation disabled.
  Guess Type is SAD.
  Energy threshold   = 1.00e-10
  Density threshold  = 1.00e-10
  Integral threshold = 0.00e+00

  ==> Primary Basis <==

  Basis Set: AUG-CC-PVTZ
    Blend: AUG-CC-PVTZ
    Number of shells: 243
    Number of basis function: 713
    Number of Cartesian functions: 820
    Spherical Harmonics?: true
    Max angular momentum: 3

   => Loading Basis Set <=

    Name: (AUG-CC-PVTZ AUX)
    Role: JKFIT
    Keyword: DF_BASIS_SCF
    atoms 1     entry O          line   286 file /home/xy3866/psi4conda/share/psi4/basis/aug-cc-pvtz-jkfit.gbs 
    atoms 2     entry N          line   224 file /home/xy3866/psi4conda/share/psi4/basis/aug-cc-pvtz-jkfit.gbs 
    atoms 3-9   entry C          line   162 file /home/xy3866/psi4conda/share/psi4/basis/aug-cc-pvtz-jkfit.gbs 
    atoms 10-22 entry H          line    70 file /home/xy3866/psi4conda/share/psi4/basis/aug-cc-pvtz-jkfit.gbs 

  ==> Pre-Iterations <==

   -------------------------------------------------------
    Irrep   Nso     Nmo     Nalpha   Nbeta   Ndocc  Nsocc
   -------------------------------------------------------
     A        713     713       0       0       0       0
   -------------------------------------------------------
    Total     713     713      35      35      35       0
   -------------------------------------------------------

  ==> Integral Setup <==

  DFHelper Memory: AOs need 5.764 GiB; user supplied 22.352 GiB. Using in-core AOs.

  ==> MemDFJK: Density-Fitted J/K Matrices <==

    J tasked:                   Yes
    K tasked:                   Yes
    wK tasked:                   No
    OpenMP threads:               8
    Memory [MiB]:             22888
    Algorithm:                 Disk
    Schwarz Cutoff:           1E-12
    Mask sparsity (%):       3.3877
    Fitting Condition:        1E-10

   => Auxiliary Basis Set <=

  Basis Set: (AUG-CC-PVTZ AUX)
    Blend: AUG-CC-PVTZ-JKFIT
    Number of shells: 452
    Number of basis function: 1534
    Number of Cartesian functions: 1894
    Spherical Harmonics?: true
    Max angular momentum: 4

  Minimum eigenvalue in the overlap matrix is 2.4470202404E-06.
  Using Symmetric Orthogonalization.

  SCF Guess: Superposition of Atomic Densities via on-the-fly atomic UHF.

  ==> Iterations <==

                           Total Energy        Delta E     RMS |[F,P]|

   @DF-RHF iter SAD:  -401.93780855005497   -4.01938e+02   0.00000e+00 
   @DF-RHF iter   1:  -401.77093431447355    1.66874e-01   1.07035e-03 DIIS
   @DF-RHF iter   2:  -402.03759393762829   -2.66660e-01   5.71784e-04 DIIS
   @DF-RHF iter   3:  -402.10660528878896   -6.90114e-02   1.12157e-04 DIIS
   @DF-RHF iter   4:  -402.11134949027849   -4.74420e-03   4.60131e-05 DIIS
   @DF-RHF iter   5:  -402.11192876317909   -5.79273e-04   1.26986e-05 DIIS
   @DF-RHF iter   6:  -402.11199595626141   -6.71931e-05   4.70205e-06 DIIS
   @DF-RHF iter   7:  -402.11200766133584   -1.17051e-05   1.65107e-06 DIIS
   @DF-RHF iter   8:  -402.11200994183861   -2.28050e-06   7.33826e-07 DIIS
   @DF-RHF iter   9:  -402.11201037479600   -4.32957e-07   2.26672e-07 DIIS
   @DF-RHF iter  10:  -402.11201040807998   -3.32840e-08   7.61767e-08 DIIS
   @DF-RHF iter  11:  -402.11201041151350   -3.43351e-09   2.18711e-08 DIIS
   @DF-RHF iter  12:  -402.11201041175559   -2.42096e-10   6.02502e-09 DIIS
   @DF-RHF iter  13:  -402.11201041177736   -2.17710e-11   2.11965e-09 DIIS
   @DF-RHF iter  14:  -402.11201041178288   -5.51381e-12   7.23105e-10 DIIS
   @DF-RHF iter  15:  -402.11201041178128    1.59162e-12   2.21482e-10 DIIS
   @DF-RHF iter  16:  -402.11201041178282   -1.53477e-12   8.87145e-11 DIIS
  Energy and wave function converged.


  ==> Post-Iterations <==

    Orbital Energies [Eh]
    ---------------------

    Doubly Occupied:                                                      

       1A    -20.505721     2A    -15.580596     3A    -11.339954  
       4A    -11.272262     5A    -11.250597     6A    -11.234582  
       7A    -11.233544     8A    -11.233299     9A    -11.231573  
      10A     -1.361862    11A     -1.241217    12A     -1.097696  
      13A     -1.038167    14A     -0.975607    15A     -0.913875  
      16A     -0.878176    17A     -0.792317    18A     -0.725332  
      19A     -0.690779    20A     -0.668779    21A     -0.633472  
      22A     -0.608478    23A     -0.601716    24A     -0.594508  
      25A     -0.583241    26A     -0.558272    27A     -0.544449  
      28A     -0.527095    29A     -0.509764    30A     -0.509410  
      31A     -0.478873    32A     -0.467619    33A     -0.465397  
      34A     -0.407466    35A     -0.365124  

    Virtual:                                                              

      36A      0.024123    37A      0.030359    38A      0.033010  
      39A      0.037703    40A      0.048696    41A      0.049904  
      42A      0.051573    43A      0.055196    44A      0.058217  
      45A      0.072786    46A      0.074461    47A      0.075558  
      48A      0.079888    49A      0.094047    50A      0.105377  
      51A      0.111323    52A      0.115483    53A      0.116500  
      54A      0.118979    55A      0.126936    56A      0.128656  
      57A      0.131354    58A      0.133360    59A      0.139196  
      60A      0.142741    61A      0.144126    62A      0.146317  
      63A      0.149724    64A      0.156618    65A      0.161530  
      66A      0.165523    67A      0.172457    68A      0.175475  
      69A      0.180875    70A      0.181125    71A      0.190536  
      72A      0.195841    73A      0.202212    74A      0.214234  
      75A      0.219272    76A      0.221856    77A      0.236915  
      78A      0.242369    79A      0.244158    80A      0.256772  
      81A      0.262184    82A      0.265684    83A      0.273012  
      84A      0.277203    85A      0.286804    86A      0.290411  
      87A      0.294126    88A      0.302782    89A      0.310017  
      90A      0.310630    91A      0.312392    92A      0.314039  
      93A      0.319980    94A      0.320782    95A      0.330416  
      96A      0.335465    97A      0.337505    98A      0.339887  
      99A      0.350124   100A      0.353419   101A      0.354443  
     102A      0.361062   103A      0.365340   104A      0.370932  
     105A      0.375520   106A      0.378845   107A      0.382186  
     108A      0.389573   109A      0.391067   110A      0.394362  
     111A      0.399079   112A      0.405194   113A      0.412017  
     114A      0.417424   115A      0.422602   116A      0.426776  
     117A      0.430039   118A      0.431750   119A      0.438040  
     120A      0.446460   121A      0.448801   122A      0.451377  
     123A      0.457500   124A      0.460968   125A      0.466050  
     126A      0.466687   127A      0.474470   128A      0.479831  
     129A      0.483023   130A      0.485298   131A      0.495058  
     132A      0.498298   133A      0.501423   134A      0.503370  
     135A      0.514601   136A      0.518372   137A      0.518944  
     138A      0.524003   139A      0.526422   140A      0.531940  
     141A      0.534697   142A      0.539911   143A      0.546822  
     144A      0.552989   145A      0.556965   146A      0.560988  
     147A      0.564423   148A      0.571311   149A      0.577106  
     150A      0.578797   151A      0.582845   152A      0.588555  
     153A      0.593091   154A      0.600046   155A      0.604385  
     156A      0.613266   157A      0.622585   158A      0.623383  
     159A      0.625559   160A      0.629659   161A      0.642916  
     162A      0.647939   163A      0.648626   164A      0.654783  
     165A      0.662072   166A      0.664513   167A      0.672534  
     168A      0.677115   169A      0.684879   170A      0.691149  
     171A      0.694883   172A      0.698063   173A      0.705985  
     174A      0.712937   175A      0.716760   176A      0.725817  
     177A      0.730693   178A      0.735935   179A      0.751118  
     180A      0.763124   181A      0.770384   182A      0.772509  
     183A      0.775442   184A      0.793455   185A      0.805120  
     186A      0.821405   187A      0.824616   188A      0.830994  
     189A      0.839367   190A      0.845565   191A      0.851783  
     192A      0.856796   193A      0.862436   194A      0.870927  
     195A      0.874350   196A      0.876987   197A      0.884749  
     198A      0.886518   199A      0.896287   200A      0.903864  
     201A      0.911984   202A      0.916405   203A      0.921638  
     204A      0.925272   205A      0.928529   206A      0.938645  
     207A      0.940676   208A      0.953517   209A      0.955486  
     210A      0.961457   211A      0.965914   212A      0.971701  
     213A      0.978126   214A      0.978612   215A      0.984987  
     216A      0.993929   217A      0.999982   218A      1.001917  
     219A      1.007484   220A      1.017214   221A      1.031345  
     222A      1.036812   223A      1.042244   224A      1.048014  
     225A      1.052316   226A      1.061847   227A      1.063401  
     228A      1.066676   229A      1.070992   230A      1.075995  
     231A      1.080076   232A      1.088377   233A      1.094572  
     234A      1.099183   235A      1.108788   236A      1.122161  
     237A      1.124005   238A      1.134156   239A      1.139617  
     240A      1.145246   241A      1.146952   242A      1.150782  
     243A      1.155911   244A      1.161018   245A      1.167027  
     246A      1.181022   247A      1.181675   248A      1.190661  
     249A      1.196162   250A      1.198647   251A      1.203360  
     252A      1.210899   253A      1.223290   254A      1.228169  
     255A      1.235024   256A      1.244420   257A      1.253281  
     258A      1.254559   259A      1.258378   260A      1.264937  
     261A      1.277272   262A      1.281350   263A      1.291012  
     264A      1.298113   265A      1.303007   266A      1.311714  
     267A      1.317571   268A      1.321615   269A      1.333651  
     270A      1.336131   271A      1.351537   272A      1.353294  
     273A      1.361036   274A      1.362086   275A      1.371807  
     276A      1.383129   277A      1.390143   278A      1.400379  
     279A      1.411796   280A      1.413381   281A      1.424804  
     282A      1.428631   283A      1.440019   284A      1.443781  
     285A      1.452174   286A      1.467260   287A      1.470384  
     288A      1.477121   289A      1.478873   290A      1.493402  
     291A      1.502320   292A      1.508672   293A      1.516517  
     294A      1.520065   295A      1.526856   296A      1.533375  
     297A      1.541284   298A      1.553401   299A      1.557254  
     300A      1.568120   301A      1.576921   302A      1.587582  
     303A      1.591690   304A      1.599926   305A      1.606681  
     306A      1.614825   307A      1.624335   308A      1.627703  
     309A      1.636797   310A      1.643894   311A      1.655256  
     312A      1.660802   313A      1.665998   314A      1.678982  
     315A      1.684874   316A      1.690048   317A      1.696720  
     318A      1.700095   319A      1.706565   320A      1.715833  
     321A      1.720531   322A      1.727974   323A      1.742513  
     324A      1.747659   325A      1.754782   326A      1.758090  
     327A      1.761702   328A      1.772498   329A      1.778595  
     330A      1.787126   331A      1.796313   332A      1.798073  
     333A      1.798678   334A      1.810032   335A      1.817775  
     336A      1.820568   337A      1.832639   338A      1.841336  
     339A      1.847267   340A      1.854930   341A      1.861553  
     342A      1.866898   343A      1.872795   344A      1.881510  
     345A      1.890410   346A      1.898987   347A      1.916673  
     348A      1.917824   349A      1.924835   350A      1.933224  
     351A      1.944816   352A      1.954558   353A      1.955050  
     354A      1.965868   355A      1.968864   356A      1.976600  
     357A      1.995485   358A      2.003520   359A      2.007271  
     360A      2.011885   361A      2.024838   362A      2.030500  
     363A      2.038264   364A      2.042696   365A      2.050963  
     366A      2.061146   367A      2.063220   368A      2.069047  
     369A      2.086229   370A      2.092182   371A      2.102192  
     372A      2.117213   373A      2.123527   374A      2.138345  
     375A      2.151635   376A      2.156830   377A      2.166044  
     378A      2.178995   379A      2.192641   380A      2.198762  
     381A      2.218045   382A      2.227038   383A      2.232735  
     384A      2.248585   385A      2.250346   386A      2.269058  
     387A      2.276104   388A      2.283941   389A      2.288867  
     390A      2.297428   391A      2.305996   392A      2.321303  
     393A      2.323691   394A      2.338697   395A      2.348358  
     396A      2.363541   397A      2.369280   398A      2.379522  
     399A      2.390386   400A      2.405699   401A      2.419331  
     402A      2.424826   403A      2.443598   404A      2.448480  
     405A      2.466384   406A      2.468368   407A      2.478593  
     408A      2.491803   409A      2.515261   410A      2.527889  
     411A      2.536464   412A      2.548992   413A      2.551940  
     414A      2.584208   415A      2.589061   416A      2.601056  
     417A      2.617408   418A      2.635433   419A      2.642770  
     420A      2.649686   421A      2.664479   422A      2.677502  
     423A      2.694711   424A      2.704920   425A      2.711591  
     426A      2.728468   427A      2.752336   428A      2.760874  
     429A      2.772494   430A      2.794178   431A      2.807081  
     432A      2.835379   433A      2.849093   434A      2.869501  
     435A      2.890313   436A      2.910942   437A      2.953607  
     438A      2.990061   439A      3.008376   440A      3.018472  
     441A      3.063225   442A      3.104824   443A      3.126766  
     444A      3.140690   445A      3.156642   446A      3.171272  
     447A      3.192908   448A      3.204727   449A      3.222742  
     450A      3.288797   451A      3.338451   452A      3.355520  
     453A      3.400858   454A      3.414141   455A      3.445570  
     456A      3.475260   457A      3.489458   458A      3.504199  
     459A      3.525412   460A      3.536969   461A      3.545882  
     462A      3.558635   463A      3.570868   464A      3.578944  
     465A      3.602704   466A      3.613340   467A      3.625771  
     468A      3.633417   469A      3.659806   470A      3.667136  
     471A      3.676233   472A      3.688455   473A      3.691923  
     474A      3.706693   475A      3.713428   476A      3.735646  
     477A      3.740747   478A      3.758226   479A      3.768540  
     480A      3.773130   481A      3.789447   482A      3.799806  
     483A      3.802819   484A      3.808750   485A      3.817576  
     486A      3.833726   487A      3.841780   488A      3.848889  
     489A      3.868607   490A      3.872432   491A      3.882717  
     492A      3.895269   493A      3.903925   494A      3.907848  
     495A      3.923020   496A      3.938234   497A      3.943316  
     498A      3.949332   499A      3.952065   500A      3.954807  
     501A      3.970278   502A      3.971917   503A      3.975204  
     504A      3.993688   505A      4.007496   506A      4.011174  
     507A      4.027560   508A      4.034385   509A      4.041642  
     510A      4.051245   511A      4.055547   512A      4.068989  
     513A      4.078931   514A      4.086607   515A      4.118456  
     516A      4.126052   517A      4.127660   518A      4.135185  
     519A      4.141004   520A      4.159501   521A      4.166091  
     522A      4.176203   523A      4.177915   524A      4.191508  
     525A      4.194716   526A      4.208550   527A      4.235139  
     528A      4.237562   529A      4.242016   530A      4.254590  
     531A      4.262711   532A      4.272013   533A      4.296716  
     534A      4.311047   535A      4.313576   536A      4.319352  
     537A      4.323875   538A      4.331673   539A      4.340984  
     540A      4.351420   541A      4.370078   542A      4.376629  
     543A      4.398016   544A      4.403651   545A      4.412351  
     546A      4.431849   547A      4.450042   548A      4.457713  
     549A      4.469806   550A      4.474182   551A      4.500795  
     552A      4.522654   553A      4.537257   554A      4.555111  
     555A      4.557973   556A      4.592292   557A      4.599648  
     558A      4.613985   559A      4.632542   560A      4.640598  
     561A      4.650606   562A      4.663108   563A      4.679508  
     564A      4.690988   565A      4.708908   566A      4.727046  
     567A      4.739931   568A      4.742465   569A      4.767195  
     570A      4.772690   571A      4.791894   572A      4.800736  
     573A      4.807828   574A      4.818982   575A      4.828838  
     576A      4.839649   577A      4.851826   578A      4.861411  
     579A      4.873233   580A      4.892579   581A      4.902020  
     582A      4.910883   583A      4.922334   584A      4.942082  
     585A      4.955992   586A      4.962269   587A      4.978219  
     588A      5.000492   589A      5.026783   590A      5.035438  
     591A      5.048314   592A      5.051753   593A      5.060024  
     594A      5.081451   595A      5.099044   596A      5.120641  
     597A      5.132877   598A      5.141586   599A      5.153755  
     600A      5.182206   601A      5.185744   602A      5.214131  
     603A      5.223552   604A      5.234072   605A      5.243543  
     606A      5.253767   607A      5.258322   608A      5.269163  
     609A      5.289366   610A      5.296580   611A      5.303813  
     612A      5.316750   613A      5.340081   614A      5.355903  
     615A      5.363745   616A      5.379632   617A      5.387811  
     618A      5.412380   619A      5.431245   620A      5.440357  
     621A      5.449857   622A      5.480733   623A      5.485899  
     624A      5.488082   625A      5.503584   626A      5.521567  
     627A      5.530025   628A      5.545502   629A      5.557867  
     630A      5.578119   631A      5.590462   632A      5.608496  
     633A      5.621685   634A      5.631255   635A      5.632512  
     636A      5.655268   637A      5.672479   638A      5.688017  
     639A      5.698789   640A      5.707871   641A      5.728212  
     642A      5.741926   643A      5.754706   644A      5.772452  
     645A      5.789482   646A      5.814766   647A      5.860605  
     648A      5.872700   649A      5.881744   650A      5.898136  
     651A      5.910333   652A      5.948783   653A      5.959647  
     654A      5.992372   655A      6.000695   656A      6.036217  
     657A      6.055385   658A      6.068384   659A      6.082195  
     660A      6.131714   661A      6.166556   662A      6.181283  
     663A      6.193984   664A      6.211438   665A      6.236583  
     666A      6.241238   667A      6.270311   668A      6.278552  
     669A      6.304126   670A      6.339085   671A      6.347341  
     672A      6.372276   673A      6.459957   674A      6.479289  
     675A      6.534914   676A      6.547386   677A      6.584753  
     678A      6.666137   679A      6.702326   680A      6.718051  
     681A      6.756397   682A      6.802134   683A      6.820291  
     684A      6.842745   685A      6.885295   686A      6.912836  
     687A      6.933926   688A      6.950216   689A      6.998409  
     690A      7.034172   691A      7.060571   692A      7.070245  
     693A      7.098902   694A      7.123115   695A      7.190827  
     696A      7.291965   697A      7.345137   698A      7.499699  
     699A      7.544999   700A      7.691588   701A      7.775135  
     702A      7.821074   703A      8.032206   704A      8.119363  
     705A     16.054741   706A     17.200306   707A     17.930206  
     708A     18.005564   709A     18.619921   710A     19.107041  
     711A     19.292848   712A     19.942373   713A     21.661110  

    Final Occupation by Irrep:
              A 
    DOCC [    35 ]

  @DF-RHF Final Energy:  -402.11201041178282

   => Energetics <=

    Nuclear Repulsion Energy =            486.3366366729638912
    One-Electron Energy =               -1510.6556550650054760
    Two-Electron Energy =                 622.2070079802585951
    Total Energy =                       -402.1120104117828760

Computation Completed

*** tstop() called on node58.bme.utexas.edu at Thu Feb  4 15:02:47 2021
Module time:
	user time   =     357.21 seconds =       5.95 minutes
	system time =      45.97 seconds =       0.77 minutes
	total time  =         82 seconds =       1.37 minutes
Total time:
	user time   =     357.21 seconds =       5.95 minutes
	system time =      45.97 seconds =       0.77 minutes
	total time  =         82 seconds =       1.37 minutes
   => Loading Basis Set <=

    Name: (AUG-CC-PVTZ AUX)
    Role: RIFIT
    Keyword: DF_BASIS_MP2
    atoms 1     entry O          line   264 file /home/xy3866/psi4conda/share/psi4/basis/aug-cc-pvtz-ri.gbs 
    atoms 2     entry N          line   206 file /home/xy3866/psi4conda/share/psi4/basis/aug-cc-pvtz-ri.gbs 
    atoms 3-9   entry C          line   148 file /home/xy3866/psi4conda/share/psi4/basis/aug-cc-pvtz-ri.gbs 
    atoms 10-22 entry H          line    30 file /home/xy3866/psi4conda/share/psi4/basis/aug-cc-pvtz-ri.gbs 


*** tstart() called on node58.bme.utexas.edu
*** at Thu Feb  4 15:02:47 2021


  //>>>>>>>>>>>>>>>>>>>>>>>>>>>>>>>>>>>//
  //               DFMP2               //
  //<<<<<<<<<<<<<<<<<<<<<<<<<<<<<<<<<<<//

	 --------------------------------------------------------
	                          DF-MP2                         
	      2nd-Order Density-Fitted Moller-Plesset Theory     
	              RMP2 Wavefunction,   8 Threads             
	                                                         
	        Rob Parrish, Justin Turney, Andy Simmonett,      
	           Ed Hohenstein, and C. David Sherrill          
	 --------------------------------------------------------

   => Auxiliary Basis Set <=

  Basis Set: (AUG-CC-PVTZ AUX)
    Blend: AUG-CC-PVTZ-RI
    Number of shells: 434
    Number of basis function: 1552
    Number of Cartesian functions: 1939
    Spherical Harmonics?: true
    Max angular momentum: 4

	 --------------------------------------------------------
	                 NBF =   713, NAUX =  1552
	 --------------------------------------------------------
	   CLASS    FOCC     OCC    AOCC    AVIR     VIR    FVIR
	   PAIRS       0      35      35     678     678       0
	 --------------------------------------------------------

  DFHelper Memory: AOs need 5.764 GiB; user supplied 22.352 GiB. Using in-core AOs.


         ------------------------------------------------------------
                                     CPHF                           
                                  Rob Parrish                       
         ------------------------------------------------------------

  ==> Geometry <==

    Molecular point group: c1
    Full point group: C1

    Geometry (in Angstrom), charge = 0, multiplicity = 1:

       Center              X                  Y                   Z               Mass       
    ------------   -----------------  -----------------  -----------------  -----------------
         O            1.729839991184     1.561179495413    -0.291336875827    15.994914619570
         N            0.946513991184    -0.531139504587     0.205631124173    14.003074004430
         C           -2.272820008816    -0.290156504587    -0.176731875827    12.000000000000
         C           -1.317173008816    -1.474242504587    -0.315501875827    12.000000000000
         C           -1.643065008816     1.085128495413    -0.395816875827    12.000000000000
         C           -0.128271008816    -1.415081504587     0.645426124173    12.000000000000
         C           -0.502618008816     1.421249495413     0.578020124173    12.000000000000
         C            0.826602991184     0.833949495413     0.140249124173    12.000000000000
         C            2.147745991184    -1.157891504587    -0.326184875827    12.000000000000
         H           -2.696587708816    -0.313248704587     0.837078224173     1.007825032230
         H           -3.105000008816    -0.418258504587    -0.879889875827     1.007825032230
         H           -1.876305008816    -2.399776504587    -0.125748875827     1.007825032230
         H           -0.932853008816    -1.539683504587    -1.341189875827     1.007825032230
         H           -2.427608008816     1.843656495413    -0.289564875827     1.007825032230
         H           -1.268746008816     1.169892495413    -1.424053875827     1.007825032230
         H           -0.468576008816    -1.129172504587     1.649015124173     1.007825032230
         H            0.317875991184    -2.409258504587     0.744750124173     1.007825032230
         H           -0.766013008816     1.100924495413     1.594223124173     1.007825032230
         H           -0.335183008816     2.500352495413     0.606278124173     1.007825032230
         H            1.904476991184    -1.796999504587    -1.182764875827     1.007825032230
         H            2.632150991184    -1.767940504587     0.443250124173     1.007825032230
         H            2.823303991184    -0.366062504587    -0.644358875827     1.007825032230

  Nuclear repulsion =  486.336636672963891
  Reference energy  = -402.112010411782819

  ==> Basis Set <==

  Basis Set: AUG-CC-PVTZ
    Blend: AUG-CC-PVTZ
    Number of shells: 243
    Number of basis function: 713
    Number of Cartesian functions: 820
    Spherical Harmonics?: true
    Max angular momentum: 3

  ==> CGRSolver (by Rob Parrish) <==

   Number of roots    =         1
   Preconditioning    =    JACOBI
   Convergence cutoff =     1E-06
   Maximum iterations =       100

  ==> CPHFRHamiltonian (by Rob Parrish) <== 

  ==> MemDFJK: Density-Fitted J/K Matrices <==

    J tasked:                   Yes
    K tasked:                   Yes
    wK tasked:                   No
    OpenMP threads:               8
    Memory [MiB]:             22888
    Algorithm:                 Disk
    Schwarz Cutoff:           1E-12
    Mask sparsity (%):       3.3877
    Fitting Condition:        1E-10

   => Auxiliary Basis Set <=

  Basis Set: (AUG-CC-PVTZ AUX)
    Blend: AUG-CC-PVTZ-JKFIT
    Number of shells: 452
    Number of basis function: 1534
    Number of Cartesian functions: 1894
    Spherical Harmonics?: true
    Max angular momentum: 4

  ==> CPHF Iterations <==

  => Iterations <=

             Iter  Converged  Remaining    Residual
  CGR           1          0          1   1.203E-01
  CGR           2          0          1   3.401E-02
  CGR           3          0          1   1.420E-02
  CGR           4          0          1   4.058E-03
  CGR           5          0          1   1.405E-03
  CGR           6          0          1   4.172E-04
  CGR           7          0          1   1.444E-04
  CGR           8          0          1   5.304E-05
  CGR           9          0          1   2.102E-05
  CGR          10          0          1   6.560E-06
  CGR          11          0          1   1.981E-06
  CGR          12          1          0   6.167E-07

    CGRSolver converged.

	-----------------------------------------------------------
	 ==================> DF-MP2 Energies <==================== 
	-----------------------------------------------------------
	 Reference Energy          =    -402.1120104117828191 [Eh]
	 Singles Energy            =      -0.0000000000000000 [Eh]
	 Same-Spin Energy          =      -0.4217991666546851 [Eh]
	 Opposite-Spin Energy      =      -1.4052424523483233 [Eh]
	 Correlation Energy        =      -1.8270416190030083 [Eh]
	 Total Energy              =    -403.9390520307858310 [Eh]
	-----------------------------------------------------------
	 ================> DF-SCS-MP2 Energies <================== 
	-----------------------------------------------------------
	 SCS Same-Spin Scale       =       0.3333333333333333 [-]
	 SCS Opposite-Spin Scale   =       1.2000000000000000 [-]
	 SCS Same-Spin Energy      =      -0.1405997222182284 [Eh]
	 SCS Opposite-Spin Energy  =      -1.6862909428179880 [Eh]
	 SCS Correlation Energy    =      -1.8268906650362164 [Eh]
	 SCS Total Energy          =    -403.9389010768190360 [Eh]
	-----------------------------------------------------------



Properties will be evaluated at   0.000000,   0.000000,   0.000000 [a0]

Properties computed using the MP2 density matrix

  Nuclear Dipole Moment: [e a0]
     X:    -5.8059      Y:    -5.1710      Z:    -0.0142

  Electronic Dipole Moment: [e a0]
     X:     4.7930      Y:     3.9502      Z:     0.3259

  Dipole Moment: [e a0]
     X:    -1.0129      Y:    -1.2208      Z:     0.3117     Total:     1.6166

  Dipole Moment: [D]
     X:    -2.5744      Y:    -3.1030      Z:     0.7923     Total:     4.1090


*** tstop() called on node58.bme.utexas.edu at Thu Feb  4 15:05:57 2021
Module time:
	user time   =    1125.97 seconds =      18.77 minutes
	system time =      56.82 seconds =       0.95 minutes
	total time  =        190 seconds =       3.17 minutes
Total time:
	user time   =    1483.37 seconds =      24.72 minutes
	system time =     102.80 seconds =       1.71 minutes
	total time  =        272 seconds =       4.53 minutes

    Psi4 stopped on: Thursday, 04 February 2021 03:05PM
    Psi4 wall time for execution: 0:04:31.77

*** Psi4 exiting successfully. Buy a developer a beer!
