
    -----------------------------------------------------------------------
          Psi4: An Open-Source Ab Initio Electronic Structure Package
                               Psi4 1.4a3.dev225 

                         Git: Rev {master} 7105e37 


    D. G. A. Smith, L. A. Burns, A. C. Simmonett, R. M. Parrish,
    M. C. Schieber, R. Galvelis, P. Kraus, H. Kruse, R. Di Remigio,
    A. Alenaizan, A. M. James, S. Lehtola, J. P. Misiewicz, M. Scheurer,
    R. A. Shaw, J. B. Schriber, Y. Xie, Z. L. Glick, D. A. Sirianni,
    J. S. O'Brien, J. M. Waldrop, A. Kumar, E. G. Hohenstein,
    B. P. Pritchard, B. R. Brooks, H. F. Schaefer III, A. Yu. Sokolov,
    K. Patkowski, A. E. DePrince III, U. Bozkaya, R. A. King,
    F. A. Evangelista, J. M. Turney, T. D. Crawford, C. D. Sherrill,
    J. Chem. Phys. 152(18) 184108 (2020). https://doi.org/10.1063/5.0006002

                            Additional Code Authors
    E. T. Seidl, C. L. Janssen, E. F. Valeev, M. L. Leininger,
    J. F. Gonthier, R. M. Richard, H. R. McAlexander, M. Saitow, X. Wang,
    P. Verma, and M. H. Lechner

             Previous Authors, Complete List of Code Contributors,
                       and Citations for Specific Modules
    https://github.com/psi4/psi4/blob/master/codemeta.json
    https://github.com/psi4/psi4/graphs/contributors
    http://psicode.org/psi4manual/master/introduction.html#citing-psifour

    -----------------------------------------------------------------------


    Psi4 started on: Saturday, 20 March 2021 12:03AM

    Process ID: 90608
    Host:       c446-001.stampede2.tacc.utexas.edu
    PSIDATADIR: /home1/07844/xy3866/miniconda3/envs/p4env/share/psi4
    Memory:     500.0 MiB
    Threads:    32
    
  ==> Input File <==

--------------------------------------------------------------------------
#psi4
#
memory 32 gb

molecule  {
0 1
  O        1.7739800     1.6003060    -0.2911220
  N        0.9906540    -0.4920130     0.2058460
  C       -2.2286800    -0.2510300    -0.1765170
  C       -1.2730330    -1.4351160    -0.3152870
  C       -1.5783232     1.1692461    -0.4027691
  C       -0.0841310    -1.3759550     0.6456410
  C       -0.4584780     1.4603760     0.5782350
  C        0.8707430     0.8730760     0.1404640
  C        2.1918860    -1.1187650    -0.3259700
  H       -2.6699130    -0.2765890     0.8297550
  H       -3.0608600    -0.3791320    -0.8796750
  H       -1.8321650    -2.3606500    -0.1255340
  H       -0.8887130    -1.5005570    -1.3409750
  H       -2.3834680     1.8827830    -0.2893500
  H       -1.2246060     1.2090190    -1.4238390
  H       -0.4244360    -1.0900460     1.6492300
  H        0.3620160    -2.3701320     0.7449650
  H       -0.7218730     1.1400510     1.5944380
  H       -0.2910430     2.5394790     0.6064930
  H        1.9486170    -1.7578730    -1.1825500
  H        2.6762910    -1.7288140     0.4434650
  H        2.8674440    -0.3269360    -0.6441440
units angstrom
no_reorient  #important for SAPT in psi4, default
symmetry c1  #important for SAPT in psi4, default
}

set PROPERTIES_ORIGIN ["COM"]
properties('MP2/aug-cc-pvtz', properties = ['dipole'])
--------------------------------------------------------------------------

  Memory set to  29.802 GiB by Python driver.
    SCF Algorithm Type (re)set to DF.

*** tstart() called on c446-001.stampede2.tacc.utexas.edu
*** at Sat Mar 20 00:03:24 2021

   => Loading Basis Set <=

    Name: AUG-CC-PVTZ
    Role: ORBITAL
    Keyword: BASIS
    atoms 1     entry O          line   331 file /home1/07844/xy3866/miniconda3/envs/p4env/share/psi4/basis/aug-cc-pvtz.gbs 
    atoms 2     entry N          line   285 file /home1/07844/xy3866/miniconda3/envs/p4env/share/psi4/basis/aug-cc-pvtz.gbs 
    atoms 3-9   entry C          line   239 file /home1/07844/xy3866/miniconda3/envs/p4env/share/psi4/basis/aug-cc-pvtz.gbs 
    atoms 10-22 entry H          line    40 file /home1/07844/xy3866/miniconda3/envs/p4env/share/psi4/basis/aug-cc-pvtz.gbs 


         ---------------------------------------------------------
                                   SCF
               by Justin Turney, Rob Parrish, Andy Simmonett
                          and Daniel G. A. Smith
                              RHF Reference
                       32 Threads,  30517 MiB Core
         ---------------------------------------------------------

  ==> Geometry <==

    Molecular point group: c1
    Full point group: C1

    Geometry (in Angstrom), charge = 0, multiplicity = 1:

       Center              X                  Y                   Z               Mass       
    ------------   -----------------  -----------------  -----------------  -----------------
         O            1.728033381034     1.556951263263    -0.290600428175    15.994914619570
         N            0.944707381034    -0.535367736737     0.206367571825    14.003074004430
         C           -2.274626618966    -0.294384736737    -0.175995428175    12.000000000000
         C           -1.318979618966    -1.478470736737    -0.314765428175    12.000000000000
         C           -1.624269818966     1.125891363263    -0.402247528175    12.000000000000
         C           -0.130077618966    -1.419309736737     0.646162571825    12.000000000000
         C           -0.504424618966     1.417021263263     0.578756571825    12.000000000000
         C            0.824796381034     0.829721263263     0.140985571825    12.000000000000
         C            2.145939381034    -1.162119736737    -0.325448428175    12.000000000000
         H           -2.715859618966    -0.319943736737     0.830276571825     1.007825032230
         H           -3.106806618966    -0.422486736737    -0.879153428175     1.007825032230
         H           -1.878111618966    -2.404004736737    -0.125012428175     1.007825032230
         H           -0.934659618966    -1.543911736737    -1.340453428175     1.007825032230
         H           -2.429414618966     1.839428263263    -0.288828428175     1.007825032230
         H           -1.270552618966     1.165664263263    -1.423317428175     1.007825032230
         H           -0.470382618966    -1.133400736737     1.649751571825     1.007825032230
         H            0.316069381034    -2.413486736737     0.745486571825     1.007825032230
         H           -0.767819618966     1.096696263263     1.594959571825     1.007825032230
         H           -0.336989618966     2.496124263263     0.607014571825     1.007825032230
         H            1.902670381034    -1.801227736737    -1.182028428175     1.007825032230
         H            2.630344381034    -1.772168736737     0.443986571825     1.007825032230
         H            2.821497381034    -0.370290736737    -0.643622428175     1.007825032230

  Running in c1 symmetry.

  Rotational constants: A =      0.07611  B =      0.05255  C =      0.03491 [cm^-1]
  Rotational constants: A =   2281.84230  B =   1575.41205  C =   1046.42934 [MHz]
  Nuclear repulsion =  485.977853149094642

  Charge       = 0
  Multiplicity = 1
  Electrons    = 70
  Nalpha       = 35
  Nbeta        = 35

  ==> Algorithm <==

  SCF Algorithm Type is DF.
  DIIS enabled.
  MOM disabled.
  Fractional occupation disabled.
  Guess Type is SAD.
  Energy threshold   = 1.00e-10
  Density threshold  = 1.00e-10
  Integral threshold = 1.00e-12

  ==> Primary Basis <==

  Basis Set: AUG-CC-PVTZ
    Blend: AUG-CC-PVTZ
    Number of shells: 243
    Number of basis functions: 713
    Number of Cartesian functions: 820
    Spherical Harmonics?: true
    Max angular momentum: 3

   => Loading Basis Set <=

    Name: (AUG-CC-PVTZ AUX)
    Role: JKFIT
    Keyword: DF_BASIS_SCF
    atoms 1     entry O          line   286 file /home1/07844/xy3866/miniconda3/envs/p4env/share/psi4/basis/aug-cc-pvtz-jkfit.gbs 
    atoms 2     entry N          line   224 file /home1/07844/xy3866/miniconda3/envs/p4env/share/psi4/basis/aug-cc-pvtz-jkfit.gbs 
    atoms 3-9   entry C          line   162 file /home1/07844/xy3866/miniconda3/envs/p4env/share/psi4/basis/aug-cc-pvtz-jkfit.gbs 
    atoms 10-22 entry H          line    70 file /home1/07844/xy3866/miniconda3/envs/p4env/share/psi4/basis/aug-cc-pvtz-jkfit.gbs 

  ==> Integral Setup <==

  DFHelper Memory: AOs need 5.703 GiB; user supplied 22.352 GiB. Using in-core AOs.

  ==> MemDFJK: Density-Fitted J/K Matrices <==

    J tasked:                   Yes
    K tasked:                   Yes
    wK tasked:                   No
    OpenMP threads:              32
    Memory [MiB]:             22888
    Algorithm:                 Core
    Schwarz Cutoff:           1E-12
    Mask sparsity (%):       5.9917
    Fitting Condition:        1E-10

   => Auxiliary Basis Set <=

  Basis Set: (AUG-CC-PVTZ AUX)
    Blend: AUG-CC-PVTZ-JKFIT
    Number of shells: 452
    Number of basis functions: 1534
    Number of Cartesian functions: 1894
    Spherical Harmonics?: true
    Max angular momentum: 4

  Minimum eigenvalue in the overlap matrix is 2.4051547408E-06.
  Reciprocal condition number of the overlap matrix is 1.0102042910E-07.
    Using symmetric orthogonalization.

  ==> Pre-Iterations <==

  SCF Guess: Superposition of Atomic Densities via on-the-fly atomic UHF (no occupation information).

   -------------------------
    Irrep   Nso     Nmo    
   -------------------------
     A        713     713 
   -------------------------
    Total     713     713
   -------------------------

  ==> Iterations <==

                           Total Energy        Delta E     RMS |[F,P]|

   @DF-RHF iter SAD:  -401.90528052716292   -4.01905e+02   0.00000e+00 
   @DF-RHF iter   1:  -401.77213718693446    1.33143e-01   1.06572e-03 DIIS
   @DF-RHF iter   2:  -402.03719005813639   -2.65053e-01   5.66744e-04 DIIS
   @DF-RHF iter   3:  -402.10475817549690   -6.75681e-02   1.12450e-04 DIIS
   @DF-RHF iter   4:  -402.10946266307167   -4.70449e-03   4.66377e-05 DIIS
   @DF-RHF iter   5:  -402.11005390236664   -5.91239e-04   1.25807e-05 DIIS
   @DF-RHF iter   6:  -402.11012083980211   -6.69374e-05   4.65571e-06 DIIS
   @DF-RHF iter   7:  -402.11013239963336   -1.15598e-05   1.64715e-06 DIIS
   @DF-RHF iter   8:  -402.11013465415709   -2.25452e-06   7.37724e-07 DIIS
   @DF-RHF iter   9:  -402.11013508889971   -4.34743e-07   2.27438e-07 DIIS
   @DF-RHF iter  10:  -402.11013512283722   -3.39375e-08   7.56220e-08 DIIS
   @DF-RHF iter  11:  -402.11013512624368   -3.40646e-09   2.19191e-08 DIIS
   @DF-RHF iter  12:  -402.11013512648572   -2.42039e-10   6.10784e-09 DIIS
   @DF-RHF iter  13:  -402.11013512650885   -2.31353e-11   2.14356e-09 DIIS
   @DF-RHF iter  14:  -402.11013512651266   -3.80851e-12   7.17560e-10 DIIS
   @DF-RHF iter  15:  -402.11013512651289   -2.27374e-13   2.14362e-10 DIIS
   @DF-RHF iter  16:  -402.11013512651249    3.97904e-13   8.46990e-11 DIIS
  Energy and wave function converged.


  ==> Post-Iterations <==

    Orbital Energies [Eh]
    ---------------------

    Doubly Occupied:                                                      

       1A    -20.505919     2A    -15.580880     3A    -11.340350  
       4A    -11.272015     5A    -11.250709     6A    -11.233467  
       7A    -11.233193     8A    -11.232679     9A    -11.232474  
      10A     -1.362100    11A     -1.241288    12A     -1.094050  
      13A     -1.040157    14A     -0.972926    15A     -0.914249  
      16A     -0.877196    17A     -0.793944    18A     -0.725542  
      19A     -0.691427    20A     -0.667947    21A     -0.633002  
      22A     -0.608844    23A     -0.599605    24A     -0.593948  
      25A     -0.583750    26A     -0.558348    27A     -0.546877  
      28A     -0.527414    29A     -0.511584    30A     -0.508864  
      31A     -0.481444    32A     -0.470482    33A     -0.455683  
      34A     -0.407722    35A     -0.365198  

    Virtual:                                                              

      36A      0.024231    37A      0.030386    38A      0.033015  
      39A      0.037771    40A      0.048659    41A      0.049911  
      42A      0.051559    43A      0.055231    44A      0.058194  
      45A      0.072761    46A      0.074470    47A      0.075572  
      48A      0.079900    49A      0.093988    50A      0.105370  
      51A      0.111535    52A      0.115517    53A      0.116676  
      54A      0.119076    55A      0.127095    56A      0.128604  
      57A      0.131510    58A      0.132996    59A      0.139202  
      60A      0.142540    61A      0.144127    62A      0.146366  
      63A      0.149777    64A      0.156819    65A      0.161553  
      66A      0.165417    67A      0.172437    68A      0.175528  
      69A      0.180901    70A      0.181337    71A      0.190252  
      72A      0.195414    73A      0.202341    74A      0.213627  
      75A      0.218777    76A      0.221831    77A      0.236938  
      78A      0.242281    79A      0.243989    80A      0.256827  
      81A      0.262672    82A      0.265648    83A      0.273240  
      84A      0.277445    85A      0.286860    86A      0.290551  
      87A      0.293864    88A      0.302498    89A      0.309677  
      90A      0.310791    91A      0.312077    92A      0.314698  
      93A      0.320342    94A      0.320772    95A      0.330523  
      96A      0.335668    97A      0.337563    98A      0.339915  
      99A      0.350085   100A      0.353124   101A      0.354421  
     102A      0.360769   103A      0.365345   104A      0.371499  
     105A      0.375451   106A      0.378688   107A      0.382166  
     108A      0.388596   109A      0.391266   110A      0.394479  
     111A      0.399141   112A      0.405054   113A      0.411942  
     114A      0.416993   115A      0.422962   116A      0.426901  
     117A      0.429810   118A      0.431407   119A      0.438221  
     120A      0.446238   121A      0.448513   122A      0.452333  
     123A      0.457355   124A      0.459153   125A      0.466074  
     126A      0.466523   127A      0.474301   128A      0.479108  
     129A      0.482328   130A      0.484946   131A      0.495050  
     132A      0.499732   133A      0.500887   134A      0.503481  
     135A      0.513796   136A      0.518170   137A      0.518979  
     138A      0.522789   139A      0.525996   140A      0.531696  
     141A      0.534401   142A      0.539905   143A      0.547225  
     144A      0.553003   145A      0.556195   146A      0.561457  
     147A      0.564177   148A      0.571166   149A      0.576426  
     150A      0.578982   151A      0.582023   152A      0.587749  
     153A      0.592728   154A      0.600354   155A      0.604866  
     156A      0.612614   157A      0.622645   158A      0.623240  
     159A      0.624605   160A      0.629158   161A      0.642994  
     162A      0.646671   163A      0.648533   164A      0.654009  
     165A      0.661234   166A      0.664424   167A      0.671946  
     168A      0.678866   169A      0.684410   170A      0.690986  
     171A      0.696426   172A      0.697890   173A      0.704593  
     174A      0.713014   175A      0.716022   176A      0.724584  
     177A      0.730709   178A      0.734991   179A      0.751223  
     180A      0.763607   181A      0.769721   182A      0.772706  
     183A      0.774751   184A      0.792356   185A      0.805029  
     186A      0.821086   187A      0.825685   188A      0.830211  
     189A      0.838754   190A      0.846548   191A      0.852361  
     192A      0.858785   193A      0.863205   194A      0.871728  
     195A      0.874261   196A      0.876171   197A      0.884065  
     198A      0.885570   199A      0.896645   200A      0.903309  
     201A      0.912894   202A      0.916576   203A      0.921609  
     204A      0.924005   205A      0.927961   206A      0.938169  
     207A      0.940911   208A      0.953274   209A      0.954789  
     210A      0.962682   211A      0.965909   212A      0.972203  
     213A      0.975632   214A      0.978929   215A      0.985634  
     216A      0.994822   217A      1.000061   218A      1.001814  
     219A      1.007747   220A      1.015464   221A      1.031225  
     222A      1.035844   223A      1.042630   224A      1.048132  
     225A      1.052285   226A      1.062465   227A      1.063399  
     228A      1.066574   229A      1.071066   230A      1.075156  
     231A      1.079754   232A      1.088858   233A      1.094135  
     234A      1.100483   235A      1.109402   236A      1.122116  
     237A      1.125077   238A      1.134012   239A      1.138021  
     240A      1.145528   241A      1.147028   242A      1.151345  
     243A      1.156275   244A      1.161622   245A      1.166761  
     246A      1.180885   247A      1.181327   248A      1.190649  
     249A      1.195913   250A      1.198003   251A      1.202400  
     252A      1.211326   253A      1.221687   254A      1.229458  
     255A      1.233009   256A      1.241563   257A      1.252148  
     258A      1.252574   259A      1.258073   260A      1.264345  
     261A      1.276002   262A      1.284253   263A      1.289037  
     264A      1.296820   265A      1.302124   266A      1.311618  
     267A      1.317950   268A      1.319515   269A      1.333136  
     270A      1.336746   271A      1.351293   272A      1.353566  
     273A      1.361702   274A      1.364472   275A      1.371608  
     276A      1.383430   277A      1.391409   278A      1.399680  
     279A      1.409041   280A      1.413669   281A      1.423404  
     282A      1.428531   283A      1.440020   284A      1.443936  
     285A      1.451676   286A      1.465932   287A      1.470066  
     288A      1.474146   289A      1.479902   290A      1.495392  
     291A      1.501778   292A      1.507794   293A      1.515345  
     294A      1.520381   295A      1.525774   296A      1.533673  
     297A      1.542500   298A      1.553752   299A      1.555813  
     300A      1.568367   301A      1.576117   302A      1.585565  
     303A      1.591866   304A      1.599637   305A      1.605973  
     306A      1.616196   307A      1.623270   308A      1.625360  
     309A      1.636487   310A      1.643521   311A      1.655150  
     312A      1.661413   313A      1.666060   314A      1.676176  
     315A      1.683690   316A      1.691761   317A      1.696919  
     318A      1.699401   319A      1.705595   320A      1.715284  
     321A      1.720664   322A      1.728144   323A      1.743546  
     324A      1.748190   325A      1.755477   326A      1.756796  
     327A      1.763672   328A      1.771163   329A      1.776276  
     330A      1.787373   331A      1.793893   332A      1.796886  
     333A      1.798705   334A      1.808880   335A      1.818949  
     336A      1.821508   337A      1.833272   338A      1.838745  
     339A      1.846669   340A      1.853724   341A      1.860134  
     342A      1.865570   343A      1.873270   344A      1.880856  
     345A      1.890461   346A      1.897497   347A      1.913860  
     348A      1.916173   349A      1.923100   350A      1.933468  
     351A      1.946688   352A      1.953755   353A      1.954765  
     354A      1.965127   355A      1.970229   356A      1.979754  
     357A      1.993260   358A      2.004780   359A      2.008161  
     360A      2.011628   361A      2.023166   362A      2.029397  
     363A      2.038024   364A      2.042751   365A      2.050534  
     366A      2.059898   367A      2.063123   368A      2.067485  
     369A      2.083952   370A      2.093040   371A      2.102695  
     372A      2.116937   373A      2.124014   374A      2.138234  
     375A      2.151136   376A      2.156890   377A      2.169110  
     378A      2.177341   379A      2.191177   380A      2.196595  
     381A      2.216184   382A      2.223806   383A      2.234413  
     384A      2.246509   385A      2.248642   386A      2.266269  
     387A      2.272473   388A      2.284034   389A      2.292251  
     390A      2.297946   391A      2.309221   392A      2.319859  
     393A      2.324530   394A      2.337550   395A      2.347191  
     396A      2.364428   397A      2.369583   398A      2.380657  
     399A      2.388768   400A      2.403337   401A      2.416728  
     402A      2.424682   403A      2.445301   404A      2.452436  
     405A      2.464977   406A      2.468571   407A      2.482279  
     408A      2.493235   409A      2.514253   410A      2.527475  
     411A      2.534615   412A      2.548053   413A      2.553680  
     414A      2.581488   415A      2.589103   416A      2.599161  
     417A      2.609862   418A      2.632264   419A      2.641077  
     420A      2.651128   421A      2.662330   422A      2.676377  
     423A      2.690572   424A      2.705961   425A      2.714233  
     426A      2.725403   427A      2.757192   428A      2.759738  
     429A      2.773142   430A      2.793257   431A      2.810453  
     432A      2.833035   433A      2.847638   434A      2.867082  
     435A      2.880459   436A      2.909561   437A      2.952337  
     438A      2.988839   439A      3.004041   440A      3.023130  
     441A      3.049350   442A      3.107646   443A      3.121201  
     444A      3.144307   445A      3.158049   446A      3.163794  
     447A      3.171297   448A      3.205839   449A      3.229357  
     450A      3.289705   451A      3.337486   452A      3.356456  
     453A      3.405478   454A      3.415145   455A      3.442165  
     456A      3.471538   457A      3.484643   458A      3.505178  
     459A      3.526948   460A      3.537826   461A      3.541570  
     462A      3.556566   463A      3.574111   464A      3.579405  
     465A      3.595711   466A      3.611172   467A      3.627842  
     468A      3.635156   469A      3.659723   470A      3.662228  
     471A      3.675091   472A      3.686128   473A      3.693017  
     474A      3.701548   475A      3.713493   476A      3.734449  
     477A      3.738911   478A      3.760639   479A      3.770663  
     480A      3.776442   481A      3.791136   482A      3.797414  
     483A      3.800246   484A      3.803564   485A      3.818253  
     486A      3.828322   487A      3.842250   488A      3.846391  
     489A      3.869687   490A      3.873681   491A      3.878913  
     492A      3.893284   493A      3.904281   494A      3.906817  
     495A      3.917989   496A      3.934326   497A      3.944360  
     498A      3.947826   499A      3.951536   500A      3.956504  
     501A      3.969768   502A      3.973225   503A      3.976903  
     504A      3.989807   505A      4.010215   506A      4.012748  
     507A      4.024189   508A      4.032181   509A      4.039732  
     510A      4.050396   511A      4.056261   512A      4.067972  
     513A      4.078137   514A      4.084922   515A      4.112008  
     516A      4.124164   517A      4.127650   518A      4.135916  
     519A      4.142239   520A      4.158001   521A      4.166474  
     522A      4.174407   523A      4.175711   524A      4.190483  
     525A      4.196584   526A      4.198734   527A      4.232028  
     528A      4.236063   529A      4.239521   530A      4.255085  
     531A      4.262623   532A      4.275469   533A      4.290168  
     534A      4.308559   535A      4.315391   536A      4.318519  
     537A      4.322695   538A      4.333831   539A      4.337110  
     540A      4.350703   541A      4.367941   542A      4.377157  
     543A      4.393180   544A      4.395308   545A      4.410710  
     546A      4.432460   547A      4.444314   548A      4.461007  
     549A      4.468268   550A      4.475102   551A      4.499474  
     552A      4.521644   553A      4.535248   554A      4.554131  
     555A      4.557969   556A      4.590714   557A      4.604280  
     558A      4.618365   559A      4.630448   560A      4.641228  
     561A      4.646707   562A      4.662010   563A      4.679811  
     564A      4.685237   565A      4.708515   566A      4.723248  
     567A      4.740249   568A      4.742731   569A      4.759947  
     570A      4.770374   571A      4.791232   572A      4.801349  
     573A      4.808848   574A      4.819215   575A      4.830277  
     576A      4.838734   577A      4.849297   578A      4.858056  
     579A      4.871664   580A      4.894696   581A      4.902941  
     582A      4.915570   583A      4.921753   584A      4.942861  
     585A      4.954306   586A      4.967748   587A      4.989584  
     588A      5.009850   589A      5.027656   590A      5.036273  
     591A      5.046969   592A      5.050721   593A      5.060066  
     594A      5.084933   595A      5.099786   596A      5.118396  
     597A      5.133640   598A      5.142270   599A      5.151521  
     600A      5.176372   601A      5.185459   602A      5.210290  
     603A      5.216604   604A      5.228500   605A      5.243844  
     606A      5.256597   607A      5.258673   608A      5.280687  
     609A      5.288481   610A      5.293868   611A      5.299000  
     612A      5.316231   613A      5.340760   614A      5.355316  
     615A      5.362220   616A      5.380143   617A      5.391693  
     618A      5.403885   619A      5.427018   620A      5.437587  
     621A      5.457273   622A      5.475446   623A      5.487350  
     624A      5.496626   625A      5.501388   626A      5.517282  
     627A      5.530324   628A      5.548000   629A      5.557691  
     630A      5.582438   631A      5.595395   632A      5.607643  
     633A      5.628830   634A      5.636280   635A      5.649055  
     636A      5.659221   637A      5.666192   638A      5.689718  
     639A      5.691932   640A      5.710598   641A      5.728459  
     642A      5.742827   643A      5.757737   644A      5.773986  
     645A      5.793885   646A      5.810822   647A      5.861355  
     648A      5.864695   649A      5.878789   650A      5.889492  
     651A      5.912178   652A      5.942140   653A      5.951352  
     654A      5.989852   655A      5.996352   656A      6.038061  
     657A      6.067815   658A      6.070145   659A      6.092714  
     660A      6.139644   661A      6.166417   662A      6.170644  
     663A      6.182366   664A      6.216882   665A      6.230751  
     666A      6.257105   667A      6.264956   668A      6.274915  
     669A      6.301172   670A      6.348450   671A      6.353849  
     672A      6.374098   673A      6.461643   674A      6.477515  
     675A      6.531379   676A      6.545973   677A      6.592103  
     678A      6.653957   679A      6.698242   680A      6.723025  
     681A      6.757867   682A      6.802818   683A      6.820348  
     684A      6.842023   685A      6.885765   686A      6.911495  
     687A      6.932794   688A      6.946843   689A      6.999359  
     690A      7.034642   691A      7.059366   692A      7.070792  
     693A      7.101295   694A      7.120781   695A      7.189296  
     696A      7.291729   697A      7.344540   698A      7.500239  
     699A      7.545863   700A      7.691866   701A      7.778647  
     702A      7.820749   703A      8.033134   704A      8.120586  
     705A     16.077141   706A     17.214786   707A     17.888150  
     708A     17.946004   709A     18.569726   710A     19.095706  
     711A     19.162992   712A     19.967035   713A     21.674940  

    Final Occupation by Irrep:
              A 
    DOCC [    35 ]

  @DF-RHF Final Energy:  -402.11013512651249

   => Energetics <=

    Nuclear Repulsion Energy =            485.9778531490946420
    One-Electron Energy =               -1509.9454201443163583
    Two-Electron Energy =                 621.8574318687092273
    Total Energy =                       -402.1101351265124322

Computation Completed

*** tstop() called on c446-001.stampede2.tacc.utexas.edu at Sat Mar 20 00:04:04 2021
Module time:
	user time   =     742.90 seconds =      12.38 minutes
	system time =      47.82 seconds =       0.80 minutes
	total time  =         40 seconds =       0.67 minutes
Total time:
	user time   =     742.90 seconds =      12.38 minutes
	system time =      47.82 seconds =       0.80 minutes
	total time  =         40 seconds =       0.67 minutes
   => Loading Basis Set <=

    Name: (AUG-CC-PVTZ AUX)
    Role: RIFIT
    Keyword: DF_BASIS_MP2
    atoms 1     entry O          line   264 file /home1/07844/xy3866/miniconda3/envs/p4env/share/psi4/basis/aug-cc-pvtz-ri.gbs 
    atoms 2     entry N          line   206 file /home1/07844/xy3866/miniconda3/envs/p4env/share/psi4/basis/aug-cc-pvtz-ri.gbs 
    atoms 3-9   entry C          line   148 file /home1/07844/xy3866/miniconda3/envs/p4env/share/psi4/basis/aug-cc-pvtz-ri.gbs 
    atoms 10-22 entry H          line    30 file /home1/07844/xy3866/miniconda3/envs/p4env/share/psi4/basis/aug-cc-pvtz-ri.gbs 


*** tstart() called on c446-001.stampede2.tacc.utexas.edu
*** at Sat Mar 20 00:04:06 2021


  //>>>>>>>>>>>>>>>>>>>>>>>>>>>>>>>>>>>//
  //               DFMP2               //
  //<<<<<<<<<<<<<<<<<<<<<<<<<<<<<<<<<<<//

	 --------------------------------------------------------
	                          DF-MP2                         
	      2nd-Order Density-Fitted Moller-Plesset Theory     
	              RMP2 Wavefunction,  32 Threads             
	                                                         
	        Rob Parrish, Justin Turney, Andy Simmonett,      
	           Ed Hohenstein, and C. David Sherrill          
	 --------------------------------------------------------

   => Auxiliary Basis Set <=

  Basis Set: (AUG-CC-PVTZ AUX)
    Blend: AUG-CC-PVTZ-RI
    Number of shells: 434
    Number of basis functions: 1552
    Number of Cartesian functions: 1939
    Spherical Harmonics?: true
    Max angular momentum: 4

	 --------------------------------------------------------
	                 NBF =   713, NAUX =  1552
	 --------------------------------------------------------
	   CLASS    FOCC     OCC    AOCC    AVIR     VIR    FVIR
	   PAIRS       0      35      35     678     678       0
	 --------------------------------------------------------

  DFHelper Memory: AOs need 5.854 GiB; user supplied 22.352 GiB. Using in-core AOs.


         ------------------------------------------------------------
                                     CPHF                           
                                  Rob Parrish                       
         ------------------------------------------------------------

  ==> Geometry <==

    Molecular point group: c1
    Full point group: C1

    Geometry (in Angstrom), charge = 0, multiplicity = 1:

       Center              X                  Y                   Z               Mass       
    ------------   -----------------  -----------------  -----------------  -----------------
         O            1.728033381034     1.556951263263    -0.290600428175    15.994914619570
         N            0.944707381034    -0.535367736737     0.206367571825    14.003074004430
         C           -2.274626618966    -0.294384736737    -0.175995428175    12.000000000000
         C           -1.318979618966    -1.478470736737    -0.314765428175    12.000000000000
         C           -1.624269818966     1.125891363263    -0.402247528175    12.000000000000
         C           -0.130077618966    -1.419309736737     0.646162571825    12.000000000000
         C           -0.504424618966     1.417021263263     0.578756571825    12.000000000000
         C            0.824796381034     0.829721263263     0.140985571825    12.000000000000
         C            2.145939381034    -1.162119736737    -0.325448428175    12.000000000000
         H           -2.715859618966    -0.319943736737     0.830276571825     1.007825032230
         H           -3.106806618966    -0.422486736737    -0.879153428175     1.007825032230
         H           -1.878111618966    -2.404004736737    -0.125012428175     1.007825032230
         H           -0.934659618966    -1.543911736737    -1.340453428175     1.007825032230
         H           -2.429414618966     1.839428263263    -0.288828428175     1.007825032230
         H           -1.270552618966     1.165664263263    -1.423317428175     1.007825032230
         H           -0.470382618966    -1.133400736737     1.649751571825     1.007825032230
         H            0.316069381034    -2.413486736737     0.745486571825     1.007825032230
         H           -0.767819618966     1.096696263263     1.594959571825     1.007825032230
         H           -0.336989618966     2.496124263263     0.607014571825     1.007825032230
         H            1.902670381034    -1.801227736737    -1.182028428175     1.007825032230
         H            2.630344381034    -1.772168736737     0.443986571825     1.007825032230
         H            2.821497381034    -0.370290736737    -0.643622428175     1.007825032230

  Nuclear repulsion =  485.977853149094642
  Reference energy  = -402.110135126512489

  ==> Basis Set <==

  Basis Set: AUG-CC-PVTZ
    Blend: AUG-CC-PVTZ
    Number of shells: 243
    Number of basis functions: 713
    Number of Cartesian functions: 820
    Spherical Harmonics?: true
    Max angular momentum: 3

  ==> CGRSolver (by Rob Parrish) <==

   Number of roots    =         1
   Preconditioning    =    JACOBI
   Convergence cutoff =     1E-06
   Maximum iterations =       100

  ==> CPHFRHamiltonian (by Rob Parrish) <== 

  ==> MemDFJK: Density-Fitted J/K Matrices <==

    J tasked:                   Yes
    K tasked:                   Yes
    wK tasked:                   No
    OpenMP threads:              32
    Memory [MiB]:             22888
    Algorithm:                 Core
    Schwarz Cutoff:           1E-12
    Mask sparsity (%):       3.3971
    Fitting Condition:        1E-10

   => Auxiliary Basis Set <=

  Basis Set: (AUG-CC-PVTZ AUX)
    Blend: AUG-CC-PVTZ-JKFIT
    Number of shells: 452
    Number of basis functions: 1534
    Number of Cartesian functions: 1894
    Spherical Harmonics?: true
    Max angular momentum: 4

  ==> CPHF Iterations <==

  => Iterations <=

             Iter  Converged  Remaining    Residual
  CGR           1          0          1   1.201E-01
  CGR           2          0          1   3.401E-02
  CGR           3          0          1   1.420E-02
  CGR           4          0          1   4.059E-03
  CGR           5          0          1   1.409E-03
  CGR           6          0          1   4.215E-04
  CGR           7          0          1   1.460E-04
  CGR           8          0          1   5.406E-05
  CGR           9          0          1   2.134E-05
  CGR          10          0          1   6.647E-06
  CGR          11          0          1   2.012E-06
  CGR          12          1          0   6.405E-07

    CGRSolver converged.

	-----------------------------------------------------------
	 ==================> DF-MP2 Energies <==================== 
	-----------------------------------------------------------
	 Reference Energy          =    -402.1101351265124890 [Eh]
	 Singles Energy            =      -0.0000000000000000 [Eh]
	 Same-Spin Energy          =      -0.4216693106019552 [Eh]
	 Opposite-Spin Energy      =      -1.4052185181916537 [Eh]
	 Correlation Energy        =      -1.8268878287936090 [Eh]
	 Total Energy              =    -403.9370229553060767 [Eh]
	-----------------------------------------------------------
	 ================> DF-SCS-MP2 Energies <================== 
	-----------------------------------------------------------
	 SCS Same-Spin Scale       =       0.3333333333333333 [-]
	 SCS Opposite-Spin Scale   =       1.2000000000000000 [-]
	 SCS Same-Spin Energy      =      -0.1405564368673184 [Eh]
	 SCS Opposite-Spin Energy  =      -1.6862622218299843 [Eh]
	 SCS Correlation Energy    =      -1.8268186586973028 [Eh]
	 SCS Total Energy          =    -403.9369537852097665 [Eh]
	-----------------------------------------------------------



Properties will be evaluated at  -0.000000,  -0.000000,   0.000000 [a0]

Properties computed using the MP2 density matrix

  Nuclear Dipole Moment: [e a0]
     X:    -5.8443      Y:    -5.2249      Z:    -0.0123

  Electronic Dipole Moment: [e a0]
     X:     4.8380      Y:     4.0083      Z:     0.3230

  Dipole Moment: [e a0]
     X:    -1.0062      Y:    -1.2166      Z:     0.3108     Total:     1.6091

  Dipole Moment: [D]
     X:    -2.5576      Y:    -3.0922      Z:     0.7899     Total:     4.0899


*** tstop() called on c446-001.stampede2.tacc.utexas.edu at Sat Mar 20 00:07:51 2021
Module time:
	user time   =    2187.70 seconds =      36.46 minutes
	system time =      63.60 seconds =       1.06 minutes
	total time  =        225 seconds =       3.75 minutes
Total time:
	user time   =    2931.68 seconds =      48.86 minutes
	system time =     111.44 seconds =       1.86 minutes
	total time  =        267 seconds =       4.45 minutes

    Psi4 stopped on: Saturday, 20 March 2021 12:07AM
    Psi4 wall time for execution: 0:04:28.25

*** Psi4 exiting successfully. Buy a developer a beer!
