2795526                                                                 
Freq      RMP2-FC                                                     6-31G(d)            
Number of atoms                            I               14
Info1-9                                    I   N=           9
          26          24        1002           0           0         100
           6           2           1
Charge                                     I                0
Multiplicity                               I                1
Number of electrons                        I               66
Number of alpha electrons                  I               33
Number of beta electrons                   I               33
Number of basis functions                  I              136
Number of independent functions            I              136
Number of point charges in /Mol/           I                0
Number of translation vectors              I                0
Atomic numbers                             I   N=          14
          16           8           6           6           6           6
           6           6           1           1           1           1
           1           1
Nuclear charges                            R   N=          14
  1.60000000E+01  8.00000000E+00  6.00000000E+00  6.00000000E+00  6.00000000E+00
  6.00000000E+00  6.00000000E+00  6.00000000E+00  1.00000000E+00  1.00000000E+00
  1.00000000E+00  1.00000000E+00  1.00000000E+00  1.00000000E+00
Current cartesian coordinates              R   N=          42
  2.42889147E-01  3.03542495E+00  7.30878294E-07  5.27813973E+00 -2.45270595E+00
 -1.29413026E-05 -2.76338482E+00 -8.21027707E-01 -1.15559294E-05 -2.78502625E-01
 -1.80365779E+00 -1.62445658E-06  1.56618556E+00  5.20549110E-02  1.33819811E-05
 -2.74726221E+00  1.79682550E+00 -1.01621779E-05 -5.12064161E+00 -2.40188885E+00
  8.55570444E-06  4.30389555E+00 -3.43772320E-01  9.23361766E-06  2.06609643E-01
 -3.79869000E+00 -5.72212965E-06 -4.36874479E+00  3.04887060E+00 -2.71623433E-05
 -5.19521132E+00 -3.61954851E+00 -1.66935985E+00 -5.19522890E+00 -3.61946918E+00
  1.66943390E+00 -6.80888307E+00 -1.21191928E+00 -2.90009477E-05  5.48837520E+00
  1.38440246E+00  3.27079966E-05
Force Field                                I                0
Int Atom Types                             I   N=          14
           0           0           0           0           0           0
           0           0           0           0           0           0
           0           0
MM charges                                 R   N=          14
  0.00000000E+00  0.00000000E+00  0.00000000E+00  0.00000000E+00  0.00000000E+00
  0.00000000E+00  0.00000000E+00  0.00000000E+00  0.00000000E+00  0.00000000E+00
  0.00000000E+00  0.00000000E+00  0.00000000E+00  0.00000000E+00
Integer atomic weights                     I   N=          14
          32          16          12          12          12          12
          12          12           1           1           1           1
           1           1
Real atomic weights                        R   N=          14
  3.19720718E+01  1.59949146E+01  1.20000000E+01  1.20000000E+01  1.20000000E+01
  1.20000000E+01  1.20000000E+01  1.20000000E+01  1.00782504E+00  1.00782504E+00
  1.00782504E+00  1.00782504E+00  1.00782504E+00  1.00782504E+00
Atom fragment info                         I   N=          14
           0           0           0           0           0           0
           0           0           0           0           0           0
           0           0
Atom residue num                           I   N=          14
           0           0           0           0           0           0
           0           0           0           0           0           0
           0           0
Nuclear spins                              I   N=          14
           0           0           0           0           0           0
           0           0           1           1           1           1
           1           1
Nuclear ZEff                               R   N=          14
 -1.36000000E+01 -5.60000000E+00 -3.60000000E+00 -3.60000000E+00 -3.60000000E+00
 -3.60000000E+00 -3.60000000E+00 -3.60000000E+00 -1.00000000E+00 -1.00000000E+00
 -1.00000000E+00 -1.00000000E+00 -1.00000000E+00 -1.00000000E+00
Nuclear QMom                               R   N=          14
  0.00000000E+00  0.00000000E+00  0.00000000E+00  0.00000000E+00  0.00000000E+00
  0.00000000E+00  0.00000000E+00  0.00000000E+00  0.00000000E+00  0.00000000E+00
  0.00000000E+00  0.00000000E+00  0.00000000E+00  0.00000000E+00
Nuclear GFac                               R   N=          14
  0.00000000E+00  0.00000000E+00  0.00000000E+00  0.00000000E+00  0.00000000E+00
  0.00000000E+00  0.00000000E+00  0.00000000E+00  2.79284600E+00  2.79284600E+00
  2.79284600E+00  2.79284600E+00  2.79284600E+00  2.79284600E+00
MicOpt                                     I   N=          14
          -1          -1          -1          -1          -1          -1
          -1          -1          -1          -1          -1          -1
          -1          -1
Number of contracted shells                I               45
Number of primitive shells                 I              118
Pure/Cartesian d shells                    I                1
Pure/Cartesian f shells                    I                0
Highest angular momentum                   I                2
Largest degree of contraction              I                6
Shell types                                I   N=          45
           0          -1          -1          -1           2           0
          -1          -1           2           0          -1          -1
           2           0          -1          -1           2           0
          -1          -1           2           0          -1          -1
           2           0          -1          -1           2           0
          -1          -1           2           0           0           0
           0           0           0           0           0           0
           0           0           0
Number of primitives per shell             I   N=          45
           6           6           3           1           1           6
           3           1           1           6           3           1
           1           6           3           1           1           6
           3           1           1           6           3           1
           1           6           3           1           1           6
           3           1           1           3           1           3
           1           3           1           3           1           3
           1           3           1
Shell to atom map                          I   N=          45
           1           1           1           1           1           2
           2           2           2           3           3           3
           3           4           4           4           4           5
           5           5           5           6           6           6
           6           7           7           7           7           8
           8           8           8           9           9          10
          10          11          11          12          12          13
          13          14          14
Primitive exponents                        R   N=         118
  2.19171000E+04  3.30149000E+03  7.54146000E+02  2.12711000E+02  6.79896000E+01
  2.30515000E+01  4.23735000E+02  1.00710000E+02  3.21599000E+01  1.18079000E+01
  4.63110000E+00  1.87025000E+00  2.61584000E+00  9.22167000E-01  3.41287000E-01
  1.17167000E-01  6.50000000E-01  5.48467166E+03  8.25234946E+02  1.88046958E+02
  5.29645000E+01  1.68975704E+01  5.79963534E+00  1.55396162E+01  3.59993359E+00
  1.01376175E+00  2.70005823E-01  8.00000000E-01  3.04752488E+03  4.57369518E+02
  1.03948685E+02  2.92101553E+01  9.28666296E+00  3.16392696E+00  7.86827235E+00
  1.88128854E+00  5.44249258E-01  1.68714478E-01  8.00000000E-01  3.04752488E+03
  4.57369518E+02  1.03948685E+02  2.92101553E+01  9.28666296E+00  3.16392696E+00
  7.86827235E+00  1.88128854E+00  5.44249258E-01  1.68714478E-01  8.00000000E-01
  3.04752488E+03  4.57369518E+02  1.03948685E+02  2.92101553E+01  9.28666296E+00
  3.16392696E+00  7.86827235E+00  1.88128854E+00  5.44249258E-01  1.68714478E-01
  8.00000000E-01  3.04752488E+03  4.57369518E+02  1.03948685E+02  2.92101553E+01
  9.28666296E+00  3.16392696E+00  7.86827235E+00  1.88128854E+00  5.44249258E-01
  1.68714478E-01  8.00000000E-01  3.04752488E+03  4.57369518E+02  1.03948685E+02
  2.92101553E+01  9.28666296E+00  3.16392696E+00  7.86827235E+00  1.88128854E+00
  5.44249258E-01  1.68714478E-01  8.00000000E-01  3.04752488E+03  4.57369518E+02
  1.03948685E+02  2.92101553E+01  9.28666296E+00  3.16392696E+00  7.86827235E+00
  1.88128854E+00  5.44249258E-01  1.68714478E-01  8.00000000E-01  1.87311370E+01
  2.82539436E+00  6.40121692E-01  1.61277759E-01  1.87311370E+01  2.82539436E+00
  6.40121692E-01  1.61277759E-01  1.87311370E+01  2.82539436E+00  6.40121692E-01
  1.61277759E-01  1.87311370E+01  2.82539436E+00  6.40121692E-01  1.61277759E-01
  1.87311370E+01  2.82539436E+00  6.40121692E-01  1.61277759E-01  1.87311370E+01
  2.82539436E+00  6.40121692E-01  1.61277759E-01
Contraction coefficients                   R   N=         118
  1.86924085E-03  1.42303065E-02  6.96962317E-02  2.38487108E-01  4.83307220E-01
  3.38074154E-01 -2.37677050E-03 -3.16930067E-02 -1.13317024E-01  5.60900118E-02
  5.92255124E-01  4.55006095E-01 -2.50373114E-01  6.69567631E-02  1.05450627E+00
  1.00000000E+00  1.00000000E+00  1.83107443E-03  1.39501722E-02  6.84450781E-02
  2.32714336E-01  4.70192898E-01  3.58520853E-01 -1.10777550E-01 -1.48026263E-01
  1.13076702E+00  1.00000000E+00  1.00000000E+00  1.83473713E-03  1.40373228E-02
  6.88426223E-02  2.32184443E-01  4.67941348E-01  3.62311985E-01 -1.19332420E-01
 -1.60854152E-01  1.14345644E+00  1.00000000E+00  1.00000000E+00  1.83473713E-03
  1.40373228E-02  6.88426223E-02  2.32184443E-01  4.67941348E-01  3.62311985E-01
 -1.19332420E-01 -1.60854152E-01  1.14345644E+00  1.00000000E+00  1.00000000E+00
  1.83473713E-03  1.40373228E-02  6.88426223E-02  2.32184443E-01  4.67941348E-01
  3.62311985E-01 -1.19332420E-01 -1.60854152E-01  1.14345644E+00  1.00000000E+00
  1.00000000E+00  1.83473713E-03  1.40373228E-02  6.88426223E-02  2.32184443E-01
  4.67941348E-01  3.62311985E-01 -1.19332420E-01 -1.60854152E-01  1.14345644E+00
  1.00000000E+00  1.00000000E+00  1.83473713E-03  1.40373228E-02  6.88426223E-02
  2.32184443E-01  4.67941348E-01  3.62311985E-01 -1.19332420E-01 -1.60854152E-01
  1.14345644E+00  1.00000000E+00  1.00000000E+00  1.83473713E-03  1.40373228E-02
  6.88426223E-02  2.32184443E-01  4.67941348E-01  3.62311985E-01 -1.19332420E-01
 -1.60854152E-01  1.14345644E+00  1.00000000E+00  1.00000000E+00  3.34946043E-02
  2.34726953E-01  8.13757326E-01  1.00000000E+00  3.34946043E-02  2.34726953E-01
  8.13757326E-01  1.00000000E+00  3.34946043E-02  2.34726953E-01  8.13757326E-01
  1.00000000E+00  3.34946043E-02  2.34726953E-01  8.13757326E-01  1.00000000E+00
  3.34946043E-02  2.34726953E-01  8.13757326E-01  1.00000000E+00  3.34946043E-02
  2.34726953E-01  8.13757326E-01  1.00000000E+00
P(S=P) Contraction coefficients            R   N=         118
  0.00000000E+00  0.00000000E+00  0.00000000E+00  0.00000000E+00  0.00000000E+00
  0.00000000E+00  4.06100998E-03  3.06812999E-02  1.30451999E-01  3.27204999E-01
  4.52850998E-01  2.56041999E-01 -1.45104895E-02  3.10262776E-01  7.54482456E-01
  1.00000000E+00  0.00000000E+00  0.00000000E+00  0.00000000E+00  0.00000000E+00
  0.00000000E+00  0.00000000E+00  0.00000000E+00  7.08742682E-02  3.39752839E-01
  7.27158577E-01  1.00000000E+00  0.00000000E+00  0.00000000E+00  0.00000000E+00
  0.00000000E+00  0.00000000E+00  0.00000000E+00  0.00000000E+00  6.89990666E-02
  3.16423961E-01  7.44308291E-01  1.00000000E+00  0.00000000E+00  0.00000000E+00
  0.00000000E+00  0.00000000E+00  0.00000000E+00  0.00000000E+00  0.00000000E+00
  6.89990666E-02  3.16423961E-01  7.44308291E-01  1.00000000E+00  0.00000000E+00
  0.00000000E+00  0.00000000E+00  0.00000000E+00  0.00000000E+00  0.00000000E+00
  0.00000000E+00  6.89990666E-02  3.16423961E-01  7.44308291E-01  1.00000000E+00
  0.00000000E+00  0.00000000E+00  0.00000000E+00  0.00000000E+00  0.00000000E+00
  0.00000000E+00  0.00000000E+00  6.89990666E-02  3.16423961E-01  7.44308291E-01
  1.00000000E+00  0.00000000E+00  0.00000000E+00  0.00000000E+00  0.00000000E+00
  0.00000000E+00  0.00000000E+00  0.00000000E+00  6.89990666E-02  3.16423961E-01
  7.44308291E-01  1.00000000E+00  0.00000000E+00  0.00000000E+00  0.00000000E+00
  0.00000000E+00  0.00000000E+00  0.00000000E+00  0.00000000E+00  6.89990666E-02
  3.16423961E-01  7.44308291E-01  1.00000000E+00  0.00000000E+00  0.00000000E+00
  0.00000000E+00  0.00000000E+00  0.00000000E+00  0.00000000E+00  0.00000000E+00
  0.00000000E+00  0.00000000E+00  0.00000000E+00  0.00000000E+00  0.00000000E+00
  0.00000000E+00  0.00000000E+00  0.00000000E+00  0.00000000E+00  0.00000000E+00
  0.00000000E+00  0.00000000E+00  0.00000000E+00  0.00000000E+00  0.00000000E+00
  0.00000000E+00  0.00000000E+00  0.00000000E+00
Coordinates of each shell                  R   N=         135
  2.42889147E-01  3.03542495E+00  7.30878294E-07  2.42889147E-01  3.03542495E+00
  7.30878294E-07  2.42889147E-01  3.03542495E+00  7.30878294E-07  2.42889147E-01
  3.03542495E+00  7.30878294E-07  2.42889147E-01  3.03542495E+00  7.30878294E-07
  5.27813973E+00 -2.45270595E+00 -1.29413026E-05  5.27813973E+00 -2.45270595E+00
 -1.29413026E-05  5.27813973E+00 -2.45270595E+00 -1.29413026E-05  5.27813973E+00
 -2.45270595E+00 -1.29413026E-05 -2.76338482E+00 -8.21027707E-01 -1.15559294E-05
 -2.76338482E+00 -8.21027707E-01 -1.15559294E-05 -2.76338482E+00 -8.21027707E-01
 -1.15559294E-05 -2.76338482E+00 -8.21027707E-01 -1.15559294E-05 -2.78502625E-01
 -1.80365779E+00 -1.62445658E-06 -2.78502625E-01 -1.80365779E+00 -1.62445658E-06
 -2.78502625E-01 -1.80365779E+00 -1.62445658E-06 -2.78502625E-01 -1.80365779E+00
 -1.62445658E-06  1.56618556E+00  5.20549110E-02  1.33819811E-05  1.56618556E+00
  5.20549110E-02  1.33819811E-05  1.56618556E+00  5.20549110E-02  1.33819811E-05
  1.56618556E+00  5.20549110E-02  1.33819811E-05 -2.74726221E+00  1.79682550E+00
 -1.01621779E-05 -2.74726221E+00  1.79682550E+00 -1.01621779E-05 -2.74726221E+00
  1.79682550E+00 -1.01621779E-05 -2.74726221E+00  1.79682550E+00 -1.01621779E-05
 -5.12064161E+00 -2.40188885E+00  8.55570444E-06 -5.12064161E+00 -2.40188885E+00
  8.55570444E-06 -5.12064161E+00 -2.40188885E+00  8.55570444E-06 -5.12064161E+00
 -2.40188885E+00  8.55570444E-06  4.30389555E+00 -3.43772320E-01  9.23361766E-06
  4.30389555E+00 -3.43772320E-01  9.23361766E-06  4.30389555E+00 -3.43772320E-01
  9.23361766E-06  4.30389555E+00 -3.43772320E-01  9.23361766E-06  2.06609643E-01
 -3.79869000E+00 -5.72212965E-06  2.06609643E-01 -3.79869000E+00 -5.72212965E-06
 -4.36874479E+00  3.04887060E+00 -2.71623433E-05 -4.36874479E+00  3.04887060E+00
 -2.71623433E-05 -5.19521132E+00 -3.61954851E+00 -1.66935985E+00 -5.19521132E+00
 -3.61954851E+00 -1.66935985E+00 -5.19522890E+00 -3.61946918E+00  1.66943390E+00
 -5.19522890E+00 -3.61946918E+00  1.66943390E+00 -6.80888307E+00 -1.21191928E+00
 -2.90009477E-05 -6.80888307E+00 -1.21191928E+00 -2.90009477E-05  5.48837520E+00
  1.38440246E+00  3.27079966E-05  5.48837520E+00  1.38440246E+00  3.27079966E-05
Constraint Structure                       R   N=          42
  2.42889147E-01  3.03542495E+00  7.30878294E-07  5.27813973E+00 -2.45270595E+00
 -1.29413026E-05 -2.76338482E+00 -8.21027707E-01 -1.15559294E-05 -2.78502625E-01
 -1.80365779E+00 -1.62445658E-06  1.56618556E+00  5.20549110E-02  1.33819811E-05
 -2.74726221E+00  1.79682550E+00 -1.01621779E-05 -5.12064161E+00 -2.40188885E+00
  8.55570444E-06  4.30389555E+00 -3.43772320E-01  9.23361766E-06  2.06609643E-01
 -3.79869000E+00 -5.72212965E-06 -4.36874479E+00  3.04887060E+00 -2.71623433E-05
 -5.19521132E+00 -3.61954851E+00 -1.66935985E+00 -5.19522890E+00 -3.61946918E+00
  1.66943390E+00 -6.80888307E+00 -1.21191928E+00 -2.90009477E-05  5.48837520E+00
  1.38440246E+00  3.27079966E-05
Num ILSW                                   I              100
ILSW                                       I   N=         100
           0           1           0           0           2           0
           0           0           0           0           0          -1
           0           0           0           0           0           0
           0           0           0           0           1           0
           1           0           0           0           0           0
           0           0      100000           0          -1           0
           0           0           0           0           0           0
           0           0           0           1           1           0
           0           0           1           0           0           0
           0           0           4          40           0           0
           0           0           0           0           0           0
           0           0           0           0           0           0
           0           0           0           0           0           0
           0           0           0           0           0           0
           0           0           0           0           0           0
           0           0           0           0           0           0
           0           0           0           0
Num RLSW                                   I               40
RLSW                                       R   N=          40
  1.00000000E+00  1.00000000E+00  1.00000000E+00  1.00000000E+00  1.00000000E+00
  0.00000000E+00  0.00000000E+00  1.00000000E+00  0.00000000E+00  0.00000000E+00
  0.00000000E+00  0.00000000E+00  1.00000000E+00  0.00000000E+00  0.00000000E+00
  0.00000000E+00  0.00000000E+00  1.00000000E+00  0.00000000E+00  0.00000000E+00
  0.00000000E+00  0.00000000E+00  1.00000000E+00  0.00000000E+00  0.00000000E+00
  0.00000000E+00  0.00000000E+00  1.00000000E+00  0.00000000E+00  0.00000000E+00
  0.00000000E+00  0.00000000E+00  0.00000000E+00  0.00000000E+00  0.00000000E+00
  0.00000000E+00  0.00000000E+00  0.00000000E+00  1.00000000E+00  1.00000000E+00
MxBond                                     I                4
NBond                                      I   N=          14
           2           1           3           3           3           3
           4           3           1           1           1           1
           1           1
IBond                                      I   N=          56
           5           6           0           0           8           0
           0           0           4           6           7           0
           3           5           9           0           1           4
           8           0           1           3          10           0
           3          11          12          13           2           5
          14           0           4           0           0           0
           6           0           0           0           7           0
           0           0           7           0           0           0
           7           0           0           0           8           0
           0           0
RBond                                      R   N=          56
  1.00000000E+00  1.00000000E+00  0.00000000E+00  0.00000000E+00  2.00000000E+00
  0.00000000E+00  0.00000000E+00  0.00000000E+00  1.50000000E+00  1.50000000E+00
  1.00000000E+00  0.00000000E+00  1.50000000E+00  1.50000000E+00  1.00000000E+00
  0.00000000E+00  1.00000000E+00  1.50000000E+00  1.50000000E+00  0.00000000E+00
  1.00000000E+00  1.50000000E+00  1.00000000E+00  0.00000000E+00  1.00000000E+00
  1.00000000E+00  1.00000000E+00  1.00000000E+00  2.00000000E+00  1.50000000E+00
  1.00000000E+00  0.00000000E+00  1.00000000E+00  0.00000000E+00  0.00000000E+00
  0.00000000E+00  1.00000000E+00  0.00000000E+00  0.00000000E+00  0.00000000E+00
  1.00000000E+00  0.00000000E+00  0.00000000E+00  0.00000000E+00  1.00000000E+00
  0.00000000E+00  0.00000000E+00  0.00000000E+00  1.00000000E+00  0.00000000E+00
  0.00000000E+00  0.00000000E+00  1.00000000E+00  0.00000000E+00  0.00000000E+00
  0.00000000E+00
Virial Ratio                               R      2.001303029778387E+00
SCF Energy                                 R     -7.030523317159884E+02
MP2 Energy                                 R     -7.041249716754893E+02
Total Energy                               R     -7.041249716754893E+02
Post-SCF wavefunction norm                 R      1.668872083065128E+00
RMS Force                                  R      3.279776629473266E-07
RMS Density                                R      1.309092908266115E-09
External E-field                           R   N=          35
  0.00000000E+00  0.00000000E+00  0.00000000E+00  0.00000000E+00  0.00000000E+00
  0.00000000E+00  0.00000000E+00  0.00000000E+00  0.00000000E+00  0.00000000E+00
  0.00000000E+00  0.00000000E+00  0.00000000E+00  0.00000000E+00  0.00000000E+00
  0.00000000E+00  0.00000000E+00  0.00000000E+00  0.00000000E+00  0.00000000E+00
  0.00000000E+00  0.00000000E+00  0.00000000E+00  0.00000000E+00  0.00000000E+00
  0.00000000E+00  0.00000000E+00  0.00000000E+00  0.00000000E+00  0.00000000E+00
  0.00000000E+00  0.00000000E+00  0.00000000E+00  0.00000000E+00  0.00000000E+00
IOpCl                                      I                0
IROHF                                      I                0
Alpha Orbital Energies                     R   N=         136
 -9.19894013E+01 -2.05615681E+01 -1.13453537E+01 -1.12827297E+01 -1.12746911E+01
 -1.12617106E+01 -1.12606548E+01 -1.12409288E+01 -8.99956373E+00 -6.68211061E+00
 -6.68117422E+00 -6.67964748E+00 -1.37695837E+00 -1.19204158E+00 -1.05296931E+00
 -1.00780032E+00 -9.44309593E-01 -8.63840479E-01 -7.69962081E-01 -7.37105442E-01
 -6.76061316E-01 -6.43265285E-01 -6.01908473E-01 -5.93681822E-01 -5.87286007E-01
 -5.49314043E-01 -5.36427051E-01 -5.30988451E-01 -4.97621455E-01 -4.87785652E-01
 -4.29064620E-01 -3.52792419E-01 -3.31658124E-01  6.79161061E-02  1.66245613E-01
  1.77966785E-01  2.34351377E-01  2.50119832E-01  2.51346827E-01  2.68830640E-01
  2.91015783E-01  3.07540296E-01  3.12593458E-01  3.35768002E-01  3.77779134E-01
  3.84611367E-01  4.35991115E-01  4.59582285E-01  5.07076384E-01  5.25451568E-01
  5.47260746E-01  5.84688425E-01  6.23639562E-01  6.40961971E-01  7.22427221E-01
  7.28644138E-01  7.34510533E-01  7.52510788E-01  7.84858891E-01  8.06147732E-01
  8.14236284E-01  8.64644233E-01  8.87732777E-01  9.06058107E-01  9.40574701E-01
  9.64169656E-01  9.78933238E-01  1.00596974E+00  1.03073261E+00  1.03921932E+00
  1.05287345E+00  1.07978836E+00  1.09644564E+00  1.10419135E+00  1.11451442E+00
  1.14316697E+00  1.15539882E+00  1.18067194E+00  1.19753476E+00  1.21475771E+00
  1.25827110E+00  1.28987769E+00  1.29909258E+00  1.30680676E+00  1.35097801E+00
  1.38863395E+00  1.41546177E+00  1.47109252E+00  1.51629881E+00  1.54615689E+00
  1.55698091E+00  1.63067978E+00  1.66727220E+00  1.69351708E+00  1.77058280E+00
  1.78769130E+00  1.84860748E+00  1.89901828E+00  2.03304949E+00  2.05230617E+00
  2.09405211E+00  2.11562956E+00  2.13499215E+00  2.14384745E+00  2.20193401E+00
  2.21452558E+00  2.25020011E+00  2.36131523E+00  2.39786882E+00  2.40581617E+00
  2.46899952E+00  2.51553917E+00  2.54072024E+00  2.59628149E+00  2.63045868E+00
  2.64193373E+00  2.70676613E+00  2.74162044E+00  2.74858980E+00  2.77759081E+00
  2.89972090E+00  2.95364989E+00  3.04600991E+00  3.05630211E+00  3.22374730E+00
  3.28836388E+00  3.36669503E+00  3.48781443E+00  4.27124761E+00  4.36134047E+00
  4.50066975E+00  4.52347552E+00  4.59897791E+00  4.66140271E+00  4.83978788E+00
  4.96653547E+00
Alpha MO coefficients                      R   N=       18496
  9.96254885E-01  1.42567961E-02 -2.54527064E-05 -8.90580187E-05  1.32674590E-10
 -1.99889349E-02  2.17247457E-05  1.91659785E-04 -1.49413912E-10  2.13963542E-03
 -1.24015757E-05  3.99694637E-05 -8.24167683E-10  6.88338843E-03  6.88818193E-03
  6.91606842E-03  1.86583019E-06 -2.55397162E-10  1.70425367E-10  1.05742058E-05
  4.96344815E-05  7.34010177E-06  4.06115529E-06  1.86107009E-10 -3.95540667E-04
  2.28559831E-05 -6.55093782E-05 -1.84315921E-09  3.09714448E-05  3.94554994E-05
  1.59854380E-05 -1.20755387E-06  5.65672931E-11 -4.05711432E-12  1.08792778E-05
  4.13232943E-05  1.68993321E-05 -1.40601690E-05  1.54614971E-10 -6.25572645E-04
 -5.30875773E-04 -4.32040474E-04 -2.92118274E-09  1.83857983E-05 -1.19327771E-05
  1.44355306E-05 -2.05849761E-07 -2.50641208E-10 -7.65968637E-11 -6.00357616E-06
 -6.10227654E-05 -1.83302835E-05 -9.34271864E-06 -4.50405212E-10  8.81721747E-04
  2.19433362E-04  2.82952418E-04  3.91977855E-09  2.86208113E-05  6.31925679E-06
 -2.01473173E-05 -1.41494801E-05  5.17919617E-10  1.01335695E-10  1.82900300E-05
  1.24130246E-04 -1.44051738E-05  7.41884682E-06  1.93337808E-11 -4.34582216E-04
  1.52459616E-04  7.40144131E-04 -2.24394402E-10  2.96865182E-05 -4.08048860E-05
  2.53012144E-06  2.96494220E-05  5.62124062E-11 -1.21929360E-10  6.73329117E-06
  7.16912731E-05  3.80683775E-05  1.11069119E-05  1.96869642E-11  5.22364924E-04
  3.92842291E-04 -2.96033523E-04  2.06066730E-09 -5.87224719E-05  2.95523250E-05
 -2.54810236E-05 -4.35014607E-05 -2.22404386E-10 -1.04579605E-10 -2.78944958E-06
  2.40199607E-06 -2.21399823E-05 -1.41424076E-05 -1.39623898E-10 -2.54145544E-04
 -5.99248184E-05 -4.82356096E-05  4.92069311E-09 -1.09935316E-05 -1.06710505E-05
 -1.35752941E-05 -2.83898924E-06  4.91806043E-10 -2.32377579E-11  3.75823930E-06
  2.77007817E-05  5.26637356E-06  6.73176516E-06 -6.03747829E-11  7.11856689E-05
  6.07227633E-05 -4.89855789E-04 -1.21806210E-09 -6.27712466E-06 -1.56216819E-06
 -2.62477022E-06  3.82719846E-05 -4.56458657E-10 -3.12078108E-10 -2.11022885E-05
  9.12915550E-06  1.33256000E-05  7.44916152E-05  4.56643181E-06 -1.15150395E-06
  4.56599719E-06 -1.15523406E-06 -4.74481342E-06  3.51266283E-05  4.99537237E-05
  5.22475385E-05  1.09682553E-07  4.94911340E-06 -2.97237409E-06  2.41683436E-06
 -4.05795937E-11 -8.75091120E-07  2.29634556E-05 -1.24182024E-05  2.00567875E-10
 -3.31148322E-05 -4.48887409E-05  2.50137729E-05  5.50965684E-11  9.77757382E-06
  1.89816394E-05  1.55912111E-05 -6.79387261E-07  1.06365643E-10 -1.47527606E-10
  9.94706333E-01  2.09092770E-02 -6.56059983E-04  1.37057523E-03  1.46582087E-08
  4.50583982E-03  3.80292771E-05 -3.03125892E-05 -3.85626761E-10 -3.82847394E-03
 -3.65496262E-03 -4.16019136E-03 -1.06723031E-04 -3.83805046E-10  6.42791522E-09
  2.45888147E-06  1.23603613E-05 -1.14262903E-06 -3.37645896E-06  7.15169210E-11
 -1.08862155E-04 -6.89752690E-05  7.76134379E-05 -5.45417833E-10 -4.02328180E-06
  1.18320497E-06  6.42424772E-06  5.41478520E-06 -6.11947412E-11  4.24958663E-11
 -1.64908247E-06 -1.72915496E-06 -4.47069989E-06 -1.22034401E-05 -2.12097192E-10
 -4.20944826E-05 -1.69005153E-04 -1.31528963E-04 -8.09569549E-10  3.74745194E-07
 -3.07290087E-05 -3.53748884E-08 -2.58008212E-05 -9.97357819E-11 -2.47484741E-10
 -1.27913382E-07 -7.93321178E-06 -1.63033385E-05  2.15228617E-05  2.94410004E-10
 -1.81225147E-05 -2.55286050E-04 -1.45620753E-04 -1.67961102E-09  2.34212238E-05
 -1.08533338E-05 -1.94463768E-05  7.80135435E-05  7.42552443E-10  1.19085887E-10
  9.79880593E-07  5.62476388E-06 -2.15703159E-06  4.46248538E-06 -2.80230648E-11
 -5.65072670E-05  1.68754242E-05 -8.06401062E-06  1.13775699E-10 -3.22701802E-06
  1.20423353E-06  2.34970883E-06  8.77353725E-07 -8.28923025E-11  2.47052426E-12
  1.04154503E-06  3.52832207E-06  4.12415863E-06 -9.15839678E-07  1.57834633E-13
 -5.03269907E-06  6.81964919E-07 -5.54856326E-06 -2.73162514E-11  3.68801388E-06
 -9.39227659E-07  3.35768833E-06 -4.74521731E-07  8.88731701E-12  5.61947392E-11
 -5.02532878E-06  4.76996547E-04 -1.10660479E-05  2.90565629E-05  3.09015272E-10
 -1.32048772E-04 -3.39091258E-04  5.49563401E-04  5.96663182E-09 -1.83785199E-04
 -6.23786465E-04 -4.21302254E-05  3.06719581E-04  3.11508760E-09 -7.11211976E-09
  2.29050540E-05 -1.07751728E-04  6.80559505E-06  8.24192806E-06  5.62475995E-07
  1.48064614E-06  5.62461425E-07  1.48080038E-06  6.18926715E-07 -3.28582415E-06
 -3.65523246E-05 -1.15812805E-04 -4.38622726E-06 -3.79306630E-05  3.49165278E-05
 -1.80364221E-05 -3.51627717E-11 -1.67572579E-04 -2.59363866E-04  1.69126831E-04
  1.03579989E-10 -1.23856675E-04  3.06599583E-04 -8.35652145E-05 -6.21991194E-09
 -9.47896429E-05 -3.67439539E-05 -1.00997339E-04  2.58827354E-05 -1.17903834E-09
  1.00949493E-09 -2.79542507E-04  5.36920610E-04 -1.04520611E-04  2.51148565E-04
  2.92063635E-09 -2.48727668E-03  5.36541312E-04 -1.43901787E-03 -1.48970209E-08
  1.13916923E-04 -5.76033206E-05  3.72119042E-04  6.63243331E-05  1.70758111E-10
 -5.01540671E-09 -1.07589642E-06 -3.44009907E-05  1.69160299E-05  2.29499343E-05
  3.46491544E-12  4.56757895E-04  1.76223164E-04 -2.25502603E-04 -4.75394192E-10
  1.12023325E-05 -1.21637305E-06 -1.62215487E-05 -6.72741212E-06  1.85251093E-10
 -9.11094940E-11 -1.08325497E-05 -1.64651612E-04 -2.06091712E-05  8.04442717E-05
  3.33168977E-10  1.36479142E-03  1.03541594E-03  4.80248636E-04  6.46301769E-09
  4.07620246E-05  1.03912639E-04 -5.79688872E-05  1.01420171E-04  4.89257763E-10
  1.40150011E-09  5.34820028E-03  3.77493824E-04 -1.98283225E-04 -3.12994863E-05
 -1.11882604E-10  1.97248073E-03  2.24232879E-03  1.41872053E-03  1.23977919E-08
 -6.88076746E-04 -2.61116764E-04 -1.07000813E-04  7.80916533E-07  8.16905795E-10
 -2.43176367E-09 -9.32276498E-06 -3.62785122E-05  1.00623339E-05 -3.27910126E-05
 -5.78348738E-10  3.53261723E-04  3.14158233E-05  1.39059810E-04  3.36191051E-09
  5.91040995E-06 -1.79142670E-05 -1.55608817E-05 -4.18743897E-06  5.75623841E-10
 -1.60049828E-10 -1.08046718E-05 -2.06199786E-05 -2.89377580E-05  7.06620491E-06