opt=Tight                                                               
Freq      RMP2-FC                                                     6-31G(d)            
Number of atoms                            I               13
Info1-9                                    I   N=           9
          22          22        1002           0           0         100
           6           2           1
Charge                                     I                1
Multiplicity                               I                1
Number of electrons                        I               40
Number of alpha electrons                  I               20
Number of beta electrons                   I               20
Number of basis functions                  I               91
Number of independent functions            I               91
Number of point charges in /Mol/           I                0
Number of translation vectors              I                0
Atomic numbers                             I   N=          13
           6           6           7           7           7           1
           1           1           1           1           1           1
           1
Nuclear charges                            R   N=          13
  6.00000000E+00  6.00000000E+00  7.00000000E+00  7.00000000E+00  7.00000000E+00
  1.00000000E+00  1.00000000E+00  1.00000000E+00  1.00000000E+00  1.00000000E+00
  1.00000000E+00  1.00000000E+00  1.00000000E+00
Current cartesian coordinates              R   N=          39
  3.68756364E+00 -9.01119493E-02  7.76497048E-02 -9.65580032E-01 -1.66866857E-02
 -3.93201487E-02  1.20633060E+00 -1.28325696E+00 -1.00235843E-01 -9.49114162E-01
  2.51241741E+00  4.68959406E-02 -3.17256254E+00 -1.25196170E+00  1.15465686E-01
  1.13246226E+00 -3.17874579E+00 -3.56314734E-01  5.80482687E-01  3.49409281E+00
 -5.43343536E-01 -2.60247786E+00  3.47194479E+00  1.05389913E-01 -3.21224818E+00
 -3.16365685E+00  9.77819542E-02 -4.79600168E+00 -3.65528063E-01 -3.70890079E-01
  3.74402041E+00  1.18909615E+00  1.69478406E+00  4.15632277E+00  9.35255498E-01
 -1.65301956E+00  5.07296069E+00 -1.58205802E+00  3.60754155E-01
Force Field                                I                0
Int Atom Types                             I   N=          13
           0           0           0           0           0           0
           0           0           0           0           0           0
           0
MM charges                                 R   N=          13
  0.00000000E+00  0.00000000E+00  0.00000000E+00  0.00000000E+00  0.00000000E+00
  0.00000000E+00  0.00000000E+00  0.00000000E+00  0.00000000E+00  0.00000000E+00
  0.00000000E+00  0.00000000E+00  0.00000000E+00
Integer atomic weights                     I   N=          13
          12          12          14          14          14           1
           1           1           1           1           1           1
           1
Real atomic weights                        R   N=          13
  1.20000000E+01  1.20000000E+01  1.40030740E+01  1.40030740E+01  1.40030740E+01
  1.00782504E+00  1.00782504E+00  1.00782504E+00  1.00782504E+00  1.00782504E+00
  1.00782504E+00  1.00782504E+00  1.00782504E+00
Atom fragment info                         I   N=          13
           0           0           0           0           0           0
           0           0           0           0           0           0
           0
Atom residue num                           I   N=          13
           0           0           0           0           0           0
           0           0           0           0           0           0
           0
Nuclear spins                              I   N=          13
           0           0           2           2           2           1
           1           1           1           1           1           1
           1
Nuclear ZEff                               R   N=          13
 -3.60000000E+00 -3.60000000E+00 -4.55000000E+00 -4.55000000E+00 -4.55000000E+00
 -1.00000000E+00 -1.00000000E+00 -1.00000000E+00 -1.00000000E+00 -1.00000000E+00
 -1.00000000E+00 -1.00000000E+00 -1.00000000E+00
Nuclear QMom                               R   N=          13
  0.00000000E+00  0.00000000E+00  2.04400000E+00  2.04400000E+00  2.04400000E+00
  0.00000000E+00  0.00000000E+00  0.00000000E+00  0.00000000E+00  0.00000000E+00
  0.00000000E+00  0.00000000E+00  0.00000000E+00
Nuclear GFac                               R   N=          13
  0.00000000E+00  0.00000000E+00  4.03761000E-01  4.03761000E-01  4.03761000E-01
  2.79284600E+00  2.79284600E+00  2.79284600E+00  2.79284600E+00  2.79284600E+00
  2.79284600E+00  2.79284600E+00  2.79284600E+00
MicOpt                                     I   N=          13
          -1          -1          -1          -1          -1          -1
          -1          -1          -1          -1          -1          -1
          -1
Number of contracted shells                I               36
Number of primitive shells                 I               87
Pure/Cartesian d shells                    I                1
Pure/Cartesian f shells                    I                0
Highest angular momentum                   I                2
Largest degree of contraction              I                6
Shell types                                I   N=          36
           0          -1          -1           2           0          -1
          -1           2           0          -1          -1           2
           0          -1          -1           2           0          -1
          -1           2           0           0           0           0
           0           0           0           0           0           0
           0           0           0           0           0           0
Number of primitives per shell             I   N=          36
           6           3           1           1           6           3
           1           1           6           3           1           1
           6           3           1           1           6           3
           1           1           3           1           3           1
           3           1           3           1           3           1
           3           1           3           1           3           1
Shell to atom map                          I   N=          36
           1           1           1           1           2           2
           2           2           3           3           3           3
           4           4           4           4           5           5
           5           5           6           6           7           7
           8           8           9           9          10          10
          11          11          12          12          13          13
Primitive exponents                        R   N=          87
  3.04752488E+03  4.57369518E+02  1.03948685E+02  2.92101553E+01  9.28666296E+00
  3.16392696E+00  7.86827235E+00  1.88128854E+00  5.44249258E-01  1.68714478E-01
  8.00000000E-01  3.04752488E+03  4.57369518E+02  1.03948685E+02  2.92101553E+01
  9.28666296E+00  3.16392696E+00  7.86827235E+00  1.88128854E+00  5.44249258E-01
  1.68714478E-01  8.00000000E-01  4.17351146E+03  6.27457911E+02  1.42902093E+02
  4.02343293E+01  1.28202129E+01  4.39043701E+00  1.16263619E+01  2.71627981E+00
  7.72218397E-01  2.12031498E-01  8.00000000E-01  4.17351146E+03  6.27457911E+02
  1.42902093E+02  4.02343293E+01  1.28202129E+01  4.39043701E+00  1.16263619E+01
  2.71627981E+00  7.72218397E-01  2.12031498E-01  8.00000000E-01  4.17351146E+03
  6.27457911E+02  1.42902093E+02  4.02343293E+01  1.28202129E+01  4.39043701E+00
  1.16263619E+01  2.71627981E+00  7.72218397E-01  2.12031498E-01  8.00000000E-01
  1.87311370E+01  2.82539436E+00  6.40121692E-01  1.61277759E-01  1.87311370E+01
  2.82539436E+00  6.40121692E-01  1.61277759E-01  1.87311370E+01  2.82539436E+00
  6.40121692E-01  1.61277759E-01  1.87311370E+01  2.82539436E+00  6.40121692E-01
  1.61277759E-01  1.87311370E+01  2.82539436E+00  6.40121692E-01  1.61277759E-01
  1.87311370E+01  2.82539436E+00  6.40121692E-01  1.61277759E-01  1.87311370E+01
  2.82539436E+00  6.40121692E-01  1.61277759E-01  1.87311370E+01  2.82539436E+00
  6.40121692E-01  1.61277759E-01
Contraction coefficients                   R   N=          87
  1.83473713E-03  1.40373228E-02  6.88426223E-02  2.32184443E-01  4.67941348E-01
  3.62311985E-01 -1.19332420E-01 -1.60854152E-01  1.14345644E+00  1.00000000E+00
  1.00000000E+00  1.83473713E-03  1.40373228E-02  6.88426223E-02  2.32184443E-01
  4.67941348E-01  3.62311985E-01 -1.19332420E-01 -1.60854152E-01  1.14345644E+00
  1.00000000E+00  1.00000000E+00  1.83477216E-03  1.39946270E-02  6.85865518E-02
  2.32240873E-01  4.69069948E-01  3.60455199E-01 -1.14961182E-01 -1.69117479E-01
  1.14585195E+00  1.00000000E+00  1.00000000E+00  1.83477216E-03  1.39946270E-02
  6.85865518E-02  2.32240873E-01  4.69069948E-01  3.60455199E-01 -1.14961182E-01
 -1.69117479E-01  1.14585195E+00  1.00000000E+00  1.00000000E+00  1.83477216E-03
  1.39946270E-02  6.85865518E-02  2.32240873E-01  4.69069948E-01  3.60455199E-01
 -1.14961182E-01 -1.69117479E-01  1.14585195E+00  1.00000000E+00  1.00000000E+00
  3.34946043E-02  2.34726953E-01  8.13757326E-01  1.00000000E+00  3.34946043E-02
  2.34726953E-01  8.13757326E-01  1.00000000E+00  3.34946043E-02  2.34726953E-01
  8.13757326E-01  1.00000000E+00  3.34946043E-02  2.34726953E-01  8.13757326E-01
  1.00000000E+00  3.34946043E-02  2.34726953E-01  8.13757326E-01  1.00000000E+00
  3.34946043E-02  2.34726953E-01  8.13757326E-01  1.00000000E+00  3.34946043E-02
  2.34726953E-01  8.13757326E-01  1.00000000E+00  3.34946043E-02  2.34726953E-01
  8.13757326E-01  1.00000000E+00
P(S=P) Contraction coefficients            R   N=          87
  0.00000000E+00  0.00000000E+00  0.00000000E+00  0.00000000E+00  0.00000000E+00
  0.00000000E+00  6.89990666E-02  3.16423961E-01  7.44308291E-01  1.00000000E+00
  0.00000000E+00  0.00000000E+00  0.00000000E+00  0.00000000E+00  0.00000000E+00
  0.00000000E+00  0.00000000E+00  6.89990666E-02  3.16423961E-01  7.44308291E-01
  1.00000000E+00  0.00000000E+00  0.00000000E+00  0.00000000E+00  0.00000000E+00
  0.00000000E+00  0.00000000E+00  0.00000000E+00  6.75797439E-02  3.23907296E-01
  7.40895140E-01  1.00000000E+00  0.00000000E+00  0.00000000E+00  0.00000000E+00
  0.00000000E+00  0.00000000E+00  0.00000000E+00  0.00000000E+00  6.75797439E-02
  3.23907296E-01  7.40895140E-01  1.00000000E+00  0.00000000E+00  0.00000000E+00
  0.00000000E+00  0.00000000E+00  0.00000000E+00  0.00000000E+00  0.00000000E+00
  6.75797439E-02  3.23907296E-01  7.40895140E-01  1.00000000E+00  0.00000000E+00
  0.00000000E+00  0.00000000E+00  0.00000000E+00  0.00000000E+00  0.00000000E+00
  0.00000000E+00  0.00000000E+00  0.00000000E+00  0.00000000E+00  0.00000000E+00
  0.00000000E+00  0.00000000E+00  0.00000000E+00  0.00000000E+00  0.00000000E+00
  0.00000000E+00  0.00000000E+00  0.00000000E+00  0.00000000E+00  0.00000000E+00
  0.00000000E+00  0.00000000E+00  0.00000000E+00  0.00000000E+00  0.00000000E+00
  0.00000000E+00  0.00000000E+00  0.00000000E+00  0.00000000E+00  0.00000000E+00
  0.00000000E+00  0.00000000E+00
Coordinates of each shell                  R   N=         108
  3.68756364E+00 -9.01119493E-02  7.76497048E-02  3.68756364E+00 -9.01119493E-02
  7.76497048E-02  3.68756364E+00 -9.01119493E-02  7.76497048E-02  3.68756364E+00
 -9.01119493E-02  7.76497048E-02 -9.65580032E-01 -1.66866857E-02 -3.93201487E-02
 -9.65580032E-01 -1.66866857E-02 -3.93201487E-02 -9.65580032E-01 -1.66866857E-02
 -3.93201487E-02 -9.65580032E-01 -1.66866857E-02 -3.93201487E-02  1.20633060E+00
 -1.28325696E+00 -1.00235843E-01  1.20633060E+00 -1.28325696E+00 -1.00235843E-01
  1.20633060E+00 -1.28325696E+00 -1.00235843E-01  1.20633060E+00 -1.28325696E+00
 -1.00235843E-01 -9.49114162E-01  2.51241741E+00  4.68959406E-02 -9.49114162E-01
  2.51241741E+00  4.68959406E-02 -9.49114162E-01  2.51241741E+00  4.68959406E-02
 -9.49114162E-01  2.51241741E+00  4.68959406E-02 -3.17256254E+00 -1.25196170E+00
  1.15465686E-01 -3.17256254E+00 -1.25196170E+00  1.15465686E-01 -3.17256254E+00
 -1.25196170E+00  1.15465686E-01 -3.17256254E+00 -1.25196170E+00  1.15465686E-01
  1.13246226E+00 -3.17874579E+00 -3.56314734E-01  1.13246226E+00 -3.17874579E+00
 -3.56314734E-01  5.80482687E-01  3.49409281E+00 -5.43343536E-01  5.80482687E-01
  3.49409281E+00 -5.43343536E-01 -2.60247786E+00  3.47194479E+00  1.05389913E-01
 -2.60247786E+00  3.47194479E+00  1.05389913E-01 -3.21224818E+00 -3.16365685E+00
  9.77819542E-02 -3.21224818E+00 -3.16365685E+00  9.77819542E-02 -4.79600168E+00
 -3.65528063E-01 -3.70890079E-01 -4.79600168E+00 -3.65528063E-01 -3.70890079E-01
  3.74402041E+00  1.18909615E+00  1.69478406E+00  3.74402041E+00  1.18909615E+00
  1.69478406E+00  4.15632277E+00  9.35255498E-01 -1.65301956E+00  4.15632277E+00
  9.35255498E-01 -1.65301956E+00  5.07296069E+00 -1.58205802E+00  3.60754155E-01
  5.07296069E+00 -1.58205802E+00  3.60754155E-01
Constraint Structure                       R   N=          39
  3.68756364E+00 -9.01119493E-02  7.76497048E-02 -9.65580032E-01 -1.66866857E-02
 -3.93201487E-02  1.20633060E+00 -1.28325696E+00 -1.00235843E-01 -9.49114162E-01
  2.51241741E+00  4.68959406E-02 -3.17256254E+00 -1.25196170E+00  1.15465686E-01
  1.13246226E+00 -3.17874579E+00 -3.56314734E-01  5.80482687E-01  3.49409281E+00
 -5.43343536E-01 -2.60247786E+00  3.47194479E+00  1.05389913E-01 -3.21224818E+00
 -3.16365685E+00  9.77819542E-02 -4.79600168E+00 -3.65528063E-01 -3.70890079E-01
  3.74402041E+00  1.18909615E+00  1.69478406E+00  4.15632277E+00  9.35255498E-01
 -1.65301956E+00  5.07296069E+00 -1.58205802E+00  3.60754155E-01
Num ILSW                                   I              100
ILSW                                       I   N=         100
           0           1           0           0           2           0
           0           0           0           0           0          -1
           0           0           0           0           0           0
           0           0           0           0           1           0
           1           0           0           0           0           0
           0           0      100000           0          -1           0
           0           0           0           0           0           0
           0           0           0           1           1           0
           0           0           1           0           0           0
           0           0           4          40           0           0
           0           0           0           0           0           0
           0           0           0           0           0           0
           0           0           0           0           0           0
           0           0           0           0           0           0
           0           0           0           0           0           0
           0           0           0           0           0           0
           0           0           0           0
Num RLSW                                   I               40
RLSW                                       R   N=          40
  1.00000000E+00  1.00000000E+00  1.00000000E+00  1.00000000E+00  1.00000000E+00
  0.00000000E+00  0.00000000E+00  1.00000000E+00  0.00000000E+00  0.00000000E+00
  0.00000000E+00  0.00000000E+00  1.00000000E+00  0.00000000E+00  0.00000000E+00
  0.00000000E+00  0.00000000E+00  1.00000000E+00  0.00000000E+00  0.00000000E+00
  0.00000000E+00  0.00000000E+00  1.00000000E+00  0.00000000E+00  0.00000000E+00
  0.00000000E+00  0.00000000E+00  1.00000000E+00  0.00000000E+00  0.00000000E+00
  0.00000000E+00  0.00000000E+00  0.00000000E+00  0.00000000E+00  0.00000000E+00
  0.00000000E+00  0.00000000E+00  0.00000000E+00  1.00000000E+00  1.00000000E+00
MxBond                                     I                4
NBond                                      I   N=          13
           4           3           3           3           3           1
           1           1           1           1           1           1
           1
IBond                                      I   N=          52
           3          11          12          13           3           4
           5           0           1           2           6           0
           2           7           8           0           2           9
          10           0           3           0           0           0
           4           0           0           0           4           0
           0           0           5           0           0           0
           5           0           0           0           1           0
           0           0           1           0           0           0
           1           0           0           0
RBond                                      R   N=          52
  1.00000000E+00  1.00000000E+00  1.00000000E+00  1.00000000E+00  1.50000000E+00
  1.50000000E+00  1.50000000E+00  0.00000000E+00  1.00000000E+00  1.50000000E+00
  1.00000000E+00  0.00000000E+00  1.50000000E+00  1.00000000E+00  1.00000000E+00
  0.00000000E+00  1.50000000E+00  1.00000000E+00  1.00000000E+00  0.00000000E+00
  1.00000000E+00  0.00000000E+00  0.00000000E+00  0.00000000E+00  1.00000000E+00
  0.00000000E+00  0.00000000E+00  0.00000000E+00  1.00000000E+00  0.00000000E+00
  0.00000000E+00  0.00000000E+00  1.00000000E+00  0.00000000E+00  0.00000000E+00
  0.00000000E+00  1.00000000E+00  0.00000000E+00  0.00000000E+00  0.00000000E+00
  1.00000000E+00  0.00000000E+00  0.00000000E+00  0.00000000E+00  1.00000000E+00
  0.00000000E+00  0.00000000E+00  0.00000000E+00  1.00000000E+00  0.00000000E+00
  0.00000000E+00  0.00000000E+00
Virial Ratio                               R      2.003403472106235E+00
SCF Energy                                 R     -2.436392615718654E+02
MP2 Energy                                 R     -2.443708857086782E+02
Total Energy                               R     -2.443708857086782E+02
Post-SCF wavefunction norm                 R      1.564172277269112E+00
RMS Force                                  R      1.175570984717509E-05
RMS Density                                R      1.586829344660174E-09
External E-field                           R   N=          35
  0.00000000E+00  0.00000000E+00  0.00000000E+00  0.00000000E+00  0.00000000E+00
  0.00000000E+00  0.00000000E+00  0.00000000E+00  0.00000000E+00  0.00000000E+00
  0.00000000E+00  0.00000000E+00  0.00000000E+00  0.00000000E+00  0.00000000E+00
  0.00000000E+00  0.00000000E+00  0.00000000E+00  0.00000000E+00  0.00000000E+00
  0.00000000E+00  0.00000000E+00  0.00000000E+00  0.00000000E+00  0.00000000E+00
  0.00000000E+00  0.00000000E+00  0.00000000E+00  0.00000000E+00  0.00000000E+00
  0.00000000E+00  0.00000000E+00  0.00000000E+00  0.00000000E+00  0.00000000E+00
IOpCl                                      I                0
IROHF                                      I                0
Alpha Orbital Energies                     R   N=          91
 -1.56357064E+01 -1.56312230E+01 -1.56288842E+01 -1.14362006E+01 -1.12843858E+01
 -1.37771089E+00 -1.24273831E+00 -1.22506909E+00 -9.88928880E-01 -8.79878817E-01
 -8.14204686E-01 -7.74398339E-01 -6.99158055E-01 -6.97476391E-01 -6.62596918E-01
 -6.39562933E-01 -5.86352651E-01 -5.75017896E-01 -4.58146089E-01 -4.30937988E-01
  1.65065657E-01  1.87589579E-01  2.25945051E-01  2.36112553E-01  2.53671474E-01
  2.79967929E-01  3.03215783E-01  3.19132086E-01  3.25331949E-01  3.68884735E-01
  4.39856445E-01  5.33784614E-01  5.42513880E-01  7.07806547E-01  7.25526545E-01
  7.48976351E-01  7.58512905E-01  7.67527691E-01  7.89753642E-01  8.75348689E-01
  8.87008552E-01  9.32508739E-01  9.73155715E-01  9.82991365E-01  1.02550696E+00
  1.05088655E+00  1.11889758E+00  1.13093849E+00  1.14006336E+00  1.14319573E+00
  1.14990832E+00  1.18691386E+00  1.19425573E+00  1.22182238E+00  1.30978581E+00
  1.36517468E+00  1.39079526E+00  1.51755333E+00  1.52428648E+00  1.56460770E+00
  1.63045981E+00  1.72156241E+00  1.74292103E+00  1.79029296E+00  1.97090373E+00
  1.98489111E+00  2.08066105E+00  2.15559488E+00  2.25745835E+00  2.28062404E+00
  2.30960076E+00  2.36529523E+00  2.42580739E+00  2.50060877E+00  2.53204779E+00
  2.58362641E+00  2.61308162E+00  2.71774368E+00  2.76613416E+00  2.81940672E+00
  2.86208629E+00  2.91628633E+00  2.93546048E+00  2.98425347E+00  3.37254243E+00
  3.45112233E+00  4.18619595E+00  4.24891633E+00  4.36162879E+00  4.56705860E+00
  4.73089207E+00
Alpha MO coefficients                      R   N=        8281
 -4.69877774E-06  1.38577609E-04 -2.74958812E-04 -9.85742362E-05 -2.17535340E-05
  1.11162013E-03 -3.67684490E-04 -4.78407281E-05 -2.22350994E-06 -2.39122533E-05
 -1.23823388E-04 -3.97082080E-05 -8.70984458E-06 -3.62678347E-07 -3.71817709E-06
  3.17725093E-05  2.51177686E-04  1.32306545E-04 -6.18642869E-05 -4.12876113E-06
  1.59583827E-03  2.34386613E-03 -9.01136042E-04 -8.56407478E-05 -1.91261768E-04
 -1.32350703E-04 -5.59457310E-05  9.65062239E-05  6.16764279E-06 -1.40568452E-05
  9.94945621E-01  2.54359627E-02 -3.44766755E-04  2.57230344E-04 -5.38479913E-05
 -3.98044601E-03  7.23763039E-04 -1.06788734E-03 -2.57657258E-05 -3.45202742E-03
 -3.45399906E-03 -3.34214774E-03 -5.59729324E-05 -1.35769490E-05 -1.36020244E-05
 -2.85367182E-03 -1.41684443E-04  1.39710445E-05  2.62236832E-05  3.09611629E-06
  3.58660919E-04 -6.55862087E-04 -1.04701934E-04  2.86452687E-05  2.02534456E-05
  1.14590259E-05 -5.53574404E-05  5.94895991E-05  1.54437348E-05  7.64875369E-06
 -1.95560304E-03 -1.44716047E-04 -2.42453064E-05 -2.69362734E-05  3.05960967E-06
  7.96258545E-04  1.64998814E-05  6.78474884E-04 -4.55583630E-05 -4.41593067E-05
  3.00624406E-05 -5.73164733E-05  3.70165533E-05  1.20146698E-05 -1.95743461E-05
  2.55918671E-04  8.23634154E-05  6.73998004E-05  6.93072543E-05 -1.02342018E-04
 -9.77548365E-05  5.19401957E-05  1.56572343E-04 -9.11163156E-05 -4.04883755E-05
 -8.74810053E-05 -1.40207413E-04 -8.80150132E-05 -9.62289543E-05 -5.02137582E-05
 -1.28844349E-04 -3.26023070E-06 -6.46807930E-06 -3.11328408E-05 -3.21822268E-05
 -5.88138844E-07  5.61328805E-04 -1.42724034E-04 -1.06481211E-04 -4.57750400E-05
 -1.15294615E-05 -1.01987180E-05 -6.26538449E-06  2.02953649E-05  3.89578608E-06
  2.52287990E-06  2.59078038E-05  2.73644391E-04 -1.12678172E-05  1.43415396E-04
  1.04274126E-06  1.05060238E-03 -6.13261848E-06  2.60513195E-03 -4.02389537E-05
 -1.14341137E-04 -2.71772177E-04 -6.32697442E-05  1.07658741E-05  1.35298657E-05
 -3.61934381E-06  2.82693478E-03 -5.02042940E-06  5.39161610E-05 -2.43889586E-06
 -6.60556769E-07  5.65712087E-04 -8.69815940E-04 -4.01371736E-04  7.12595270E-06
  4.68952815E-05 -4.70328882E-05 -6.49153072E-05  2.16156160E-06 -6.91083445E-06
  8.98027850E-06  9.94886170E-01  2.53997593E-02 -7.55776129E-05 -4.40761137E-04
 -4.04435027E-04 -3.25955554E-03  4.66341655E-05  1.21030520E-03  2.90336508E-04
 -3.53516523E-03 -3.51007499E-03 -3.46354351E-03  4.91393190E-06  2.20053730E-05
 -6.08169062E-06 -5.54995955E-03 -2.48750721E-04 -3.07446549E-05 -9.97776479E-06
  2.37885093E-06  7.88001370E-04  5.96624826E-04 -3.64726253E-04 -1.21316478E-06
  5.87614464E-05 -3.70602204E-05 -6.38576633E-05 -1.93634257E-05 -1.76656178E-05
  1.17680481E-05 -9.47321049E-05 -4.19836373E-05  2.90350770E-04  2.05952824E-04
  2.99074017E-04  1.81967512E-04 -9.61206289E-05 -6.58038095E-05  3.99315637E-05
  1.45345120E-04 -2.22851093E-05 -4.07498576E-05 -1.29488892E-05 -9.41924488E-05
 -1.88713149E-05 -4.65664437E-05 -1.36321580E-05 -4.66625867E-05  5.65588922E-05
  5.91413194E-06  4.57008149E-06 -1.09215343E-04 -4.03593399E-05  6.99197264E-05
  4.33048878E-06 -2.56646675E-05 -1.38283611E-05 -3.09461169E-05  3.70852124E-08
 -3.47598723E-06  8.38070665E-07  2.83767679E-05  2.81115868E-04 -1.13839585E-04
 -6.74673625E-05  4.82221767E-06  1.20653483E-03 -2.10716339E-03 -1.34979378E-03
  2.48723580E-05 -2.16641240E-04 -1.36079757E-04 -6.03600144E-05 -7.94732130E-05
  2.61900432E-06  1.20769310E-05  1.94133605E-03 -4.58805038E-05  7.33554922E-06
 -2.62573521E-05  3.10353778E-07  6.24539796E-04  1.24015214E-04  6.75209184E-04
  2.60093409E-05 -6.18416413E-05  1.94554667E-05 -8.55000898E-05 -4.23017299E-05
 -1.18214658E-06 -2.31460722E-06  5.50949965E-03  3.24685806E-05 -5.09903770E-06
  2.70094810E-05 -4.84777867E-07  8.06761314E-04  5.75250809E-04 -3.51621672E-04
 -5.42419376E-05 -5.34936404E-05 -1.81732364E-05 -9.36807458E-05 -6.07240572E-05
 -2.16302937E-05 -1.88874290E-06  9.94886340E-01  2.53915319E-02  4.03507116E-04
  1.58504926E-04 -4.24769720E-04 -3.18389111E-03 -1.08423262E-03 -5.25876185E-04
  3.21888371E-04 -3.53460630E-03 -3.53553559E-03 -3.46081970E-03  1.07374594E-05
 -1.79414048E-06  1.85202365E-05  4.99724358E-05  1.48176016E-04 -7.66710327E-05
 -7.73502059E-05  3.98076907E-05  1.55125350E-04  2.98814833E-04  1.88126042E-04
  2.93952626E-04  1.69691360E-04  1.06561285E-06  3.25805979E-06 -5.41757159E-06
  2.21250821E-05  9.03282414E-06  6.72181410E-05 -8.07154175E-05 -2.37381424E-04
  2.10605445E-05 -5.39086663E-05 -7.56700087E-06  3.42621128E-04 -7.11438782E-04
  4.57653271E-04  1.54091848E-05  2.06070865E-04 -8.17691245E-05 -4.21084286E-07
  2.01189954E-05 -3.21508402E-06  2.22785924E-05  9.95707367E-01  2.59364043E-02
  5.90884535E-05  5.24650449E-05  1.26300696E-04 -6.25377039E-03 -1.36931601E-05
 -6.04893787E-04 -1.46981203E-04 -1.14601801E-03 -1.22244003E-03 -2.57746498E-03
  8.22759781E-06 -7.01533146E-05  9.47348678E-06 -3.35878471E-04  2.10872584E-04
  6.43084743E-06  1.27717874E-05 -2.06622776E-06  2.63311710E-04  2.51342288E-04
 -4.95786337E-04 -1.38413896E-05 -4.15265198E-04 -2.68340113E-04  8.79786446E-05
  9.34549640E-05  2.00533272E-07 -2.10834026E-05 -3.55149526E-04  5.03708871E-05
  2.19549253E-05  6.19044355E-05  3.39760288E-06  1.68604537E-03 -4.50912842E-05
 -1.17843262E-05  9.81105793E-06 -2.11553282E-04 -5.39529677E-04 -4.98610121E-06
 -1.73154809E-05  2.18586368E-05 -1.28558413E-05 -3.26142984E-04  1.54327636E-04
 -7.85393957E-05 -4.96935696E-05 -9.08074182E-06  6.54804071E-04 -2.05239489E-04
  2.23623587E-05  9.14088444E-05 -4.34891538E-04 -2.50375355E-04  5.25098246E-05
 -1.74657713E-04  2.93440469E-05  2.36911553E-05 -1.16990908E-05 -5.25468523E-05
  6.35010319E-05 -1.81255673E-04 -3.35410488E-05  5.31580092E-05  4.84416319E-05
  9.65306130E-05  7.50087978E-06  1.03155958E-04 -1.35415776E-04  3.49542608E-06
 -9.42828077E-05  5.26253545E-05  8.43617800E-05  2.88781491E-04  9.95755852E-01
  2.80170455E-02 -9.85715550E-04 -3.31127015E-04 -7.50160508E-05 -1.28018959E-02
  3.68566193E-04 -1.22819392E-04  3.82948017E-05 -1.68869351E-03 -1.74804828E-03
 -1.76735387E-03  1.05785559E-05  7.30222713E-06 -6.78467745E-06  4.25761487E-05
 -2.07904067E-04 -4.88200394E-05 -1.18148143E-04 -1.13833664E-05 -2.51602105E-04
  3.00800996E-03  1.94819974E-03 -2.81255908E-05  6.14274904E-05  7.63577969E-05
 -7.33827365E-05 -1.21113338E-04  1.62264287E-05  2.26384677E-05 -1.92512096E-04
  2.85867277E-04  7.97624790E-05  1.09756082E-04  8.04119563E-06  1.34262357E-03
  2.45105060E-04 -1.31557766E-03 -8.30020414E-05 -7.05970559E-04 -1.78963789E-04
  2.96723345E-06 -2.60514637E-04 -5.96644045E-05 -9.84424752E-06  4.68213187E-06
  2.95672064E-05 -7.34440362E-05  7.35520960E-05  7.24846724E-06 -1.20759833E-03
 -2.86872294E-04  2.72748694E-04  2.29743784E-05  2.87359179E-05 -3.22872116E-05
 -5.76464023E-05  4.08467310E-05  1.02553493E-05  6.66855594E-06 -6.78205445E-05
 -2.72431757E-04  1.43499553E-05 -2.51661744E-05  8.02653906E-06  3.02242674E-03
  1.04139624E-03  7.00073706E-04 -1.48416004E-04 -5.77020875E-05 -1.32915973E-04
 -1.42718395E-04  4.68116822E-05 -3.64888877E-06 -1.45135143E-05 -3.22270146E-04
 -3.94922206E-04  4.09195563E-05  1.03640120E-04  2.98328888E-05  2.82683522E-05
 -1.90622340E-05  1.45094713E-04 -1.00512870E-04  8.47784483E-05  1.57168805E-04
  2.41213971E-03  1.40491852E-04  2.45986726E-03  7.79146867E-05  2.23586530E-03
 -2.97374706E-02  5.59646686E-02 -3.65048155E-02 -1.22960321E-02 -1.90364428E-03
  1.59661445E-02  4.08971216E-03  3.08655961E-04 -8.85570894E-04  7.23152124E-03
  5.96501244E-04 -1.58200214E-03  3.94091722E-03  6.88230695E-04  3.49823541E-04
 -1.38250454E-01  2.88144444E-01  1.00324011E-02 -1.53277096E-03  2.67477269E-03
  3.28977924E-02 -7.70359562E-03 -4.25200228E-03 -1.42509586E-03  1.01811496E-02
  9.61529712E-03 -1.85420800E-02 -1.14319502E-03 -1.29226800E-03  1.61302368E-04
 -1.08706135E-01  2.23215034E-01 -5.35102838E-02  3.39013510E-02  1.00187538E-03
  2.26130387E-01 -2.19045548E-02  2.14882557E-02  1.29075421E-03  1.05849401E-02
  8.03975720E-03 -6.80582173E-03 -4.68961560E-03  1.46821681E-04  1.83872054E-03
 -9.71198640E-02  2.00348266E-01 -5.35467464E-04 -6.37589569E-02 -9.52363544E-03
  1.98850826E-01  2.06900435E-03 -3.00914691E-02 -5.18357095E-03  5.41251336E-03
  1.36313376E-02 -5.31694488E-03 -1.95496247E-04 -2.63466288E-03 -2.58720585E-04
 -9.33156201E-02  1.93481052E-01  5.49611802E-02  2.91094912E-02 -1.10948819E-02
  1.82351070E-01  2.26452613E-02  1.15138160E-02 -5.59721729E-03  1.15837862E-02
  7.47443752E-03 -5.07896379E-03  3.90159601E-03  5.59528019E-04 -1.71963115E-03
  4.99982716E-02 -2.75134887E-03  4.39059524E-02 -2.62688356E-03  4.37775228E-02
 -2.46805647E-03  4.21246443E-02 -2.94719259E-03  4.20665922E-02 -3.35266073E-03
  1.26784490E-02  1.53504599E-03  1.13859454E-02  2.19075284E-04  9.97223935E-03
  1.38319086E-03 -6.57069254E-02  1.22598380E-01 -6.30686566E-02 -3.16210219E-02
 -4.15156422E-03  6.26883517E-02  4.55831003E-04  3.78940847E-03 -6.55706563E-04
  1.25915316E-02  1.74867371E-03 -2.42664050E-03  7.55767158E-03  1.19897988E-03
  6.63546609E-04  1.43442469E-02 -3.03934516E-02  1.80844793E-01 -8.76328596E-02
 -7.58056184E-03 -8.07751787E-03 -3.12878685E-02 -1.24440949E-03  7.72192973E-04
  7.07633123E-03 -9.56182507E-03  2.02860101E-03 -1.93213689E-02 -1.31197368E-04
  2.97981927E-04 -1.53410027E-01  3.16572271E-01  7.43333629E-03  1.02694156E-02