
    -----------------------------------------------------------------------
          Psi4: An Open-Source Ab Initio Electronic Structure Package
                               Psi4 1.3.2 release

                         Git: Rev {HEAD} ecbda83 


    R. M. Parrish, L. A. Burns, D. G. A. Smith, A. C. Simmonett,
    A. E. DePrince III, E. G. Hohenstein, U. Bozkaya, A. Yu. Sokolov,
    R. Di Remigio, R. M. Richard, J. F. Gonthier, A. M. James,
    H. R. McAlexander, A. Kumar, M. Saitow, X. Wang, B. P. Pritchard,
    P. Verma, H. F. Schaefer III, K. Patkowski, R. A. King, E. F. Valeev,
    F. A. Evangelista, J. M. Turney, T. D. Crawford, and C. D. Sherrill,
    J. Chem. Theory Comput. 13(7) pp 3185--3197 (2017).
    (doi: 10.1021/acs.jctc.7b00174)


                         Additional Contributions by
    P. Kraus, H. Kruse, M. H. Lechner, M. C. Schieber, R. A. Shaw,
    A. Alenaizan, R. Galvelis, Z. L. Glick, S. Lehtola, and J. P. Misiewicz

    -----------------------------------------------------------------------


    Psi4 started on: Tuesday, 17 November 2020 12:25AM

    Process ID: 6772
    Host:       node142.bme.utexas.edu
    PSIDATADIR: /home/xy3866/psi4conda/share/psi4
    Memory:     500.0 MiB
    Threads:    8
    
  ==> Input File <==

--------------------------------------------------------------------------
#psi4
#
memory 32 gb

molecule  {
0 1
  O        0.3919700     1.5293850    -0.0006790
  O       -2.1568130     0.7397400     0.0007420
  O       -1.4819380    -1.4327800    -0.0008360
  C        1.2904720    -0.7184350     0.0008240
  C        2.6798860    -0.0990590    -0.0001190
  C        0.1998040     0.3200060    -0.0000370
  C       -1.0443661    -0.1650439    -0.0000918
  H        1.1330450    -1.3706030    -0.8672720
  H        1.1334350    -1.3685260     0.8705840
  H        2.8258740     0.5280000    -0.8820420
  H        2.8261650     0.5300460     0.8802900
  H        3.4430440    -0.8810290     0.0006450
  H       -3.0240490     0.2824300     0.0005820
units angstrom
no_reorient  #important for SAPT in psi4, default
symmetry c1  #important for SAPT in psi4, default
}

set PROPERTIES_ORIGIN ["COM"]
properties('MP2/aug-cc-pvtz', properties = ['dipole'])
--------------------------------------------------------------------------

  Memory set to  29.802 GiB by Python driver.
    SCF Algorithm Type (re)set to DF.

*** tstart() called on node142.bme.utexas.edu
*** at Tue Nov 17 00:25:18 2020

   => Loading Basis Set <=

    Name: AUG-CC-PVTZ
    Role: ORBITAL
    Keyword: BASIS
    atoms 1-3  entry O          line   327 file /home/xy3866/psi4conda/share/psi4/basis/aug-cc-pvtz.gbs 
    atoms 4-7  entry C          line   235 file /home/xy3866/psi4conda/share/psi4/basis/aug-cc-pvtz.gbs 
    atoms 8-13 entry H          line    36 file /home/xy3866/psi4conda/share/psi4/basis/aug-cc-pvtz.gbs 


         ---------------------------------------------------------
                                   SCF
               by Justin Turney, Rob Parrish, Andy Simmonett
                          and Daniel G. A. Smith
                              RHF Reference
                        8 Threads,  30517 MiB Core
         ---------------------------------------------------------

  ==> Geometry <==

    Molecular point group: c1
    Full point group: C1

    Geometry (in Angstrom), charge = 0, multiplicity = 1:

       Center              X                  Y                   Z               Mass       
    ------------   -----------------  -----------------  -----------------  -----------------
         O            0.450968126255     1.498714495982    -0.000653117252    15.994914619570
         O           -2.097814873745     0.709069495982     0.000767882748    15.994914619570
         O           -1.422939873745    -1.463450504018    -0.000810117252    15.994914619570
         C            1.349470126255    -0.749105504018     0.000849882748    12.000000000000
         C            2.738884126255    -0.129729504018    -0.000093117252    12.000000000000
         C            0.258802126255     0.289335495982    -0.000011117252    12.000000000000
         C           -0.985367973745    -0.195714404018    -0.000065917252    12.000000000000
         H            1.192043126255    -1.401273504018    -0.867246117252     1.007825032230
         H            1.192433126255    -1.399196504018     0.870609882748     1.007825032230
         H            2.884872126255     0.497329495982    -0.882016117252     1.007825032230
         H            2.885163126255     0.499375495982     0.880315882748     1.007825032230
         H            3.502042126255    -0.911699504018     0.000670882748     1.007825032230
         H           -2.965050873745     0.251759495982     0.000607882748     1.007825032230

  Running in c1 symmetry.

  Rotational constants: A =      0.17740  B =      0.06145  C =      0.04641 [cm^-1]
  Rotational constants: A =   5318.36214  B =   1842.12341  C =   1391.47264 [MHz]
  Nuclear repulsion =  297.165624750856523

  Charge       = 0
  Multiplicity = 1
  Electrons    = 54
  Nalpha       = 27
  Nbeta        = 27

  ==> Algorithm <==

  SCF Algorithm Type is DF.
  DIIS enabled.
  MOM disabled.
  Fractional occupation disabled.
  Guess Type is SAD.
  Energy threshold   = 1.00e-10
  Density threshold  = 1.00e-10
  Integral threshold = 0.00e+00

  ==> Primary Basis <==

  Basis Set: AUG-CC-PVTZ
    Blend: AUG-CC-PVTZ
    Number of shells: 152
    Number of basis function: 460
    Number of Cartesian functions: 535
    Spherical Harmonics?: true
    Max angular momentum: 3

   => Loading Basis Set <=

    Name: (AUG-CC-PVTZ AUX)
    Role: JKFIT
    Keyword: DF_BASIS_SCF
    atoms 1-3  entry O          line   286 file /home/xy3866/psi4conda/share/psi4/basis/aug-cc-pvtz-jkfit.gbs 
    atoms 4-7  entry C          line   162 file /home/xy3866/psi4conda/share/psi4/basis/aug-cc-pvtz-jkfit.gbs 
    atoms 8-13 entry H          line    70 file /home/xy3866/psi4conda/share/psi4/basis/aug-cc-pvtz-jkfit.gbs 

  ==> Pre-Iterations <==

   -------------------------------------------------------
    Irrep   Nso     Nmo     Nalpha   Nbeta   Ndocc  Nsocc
   -------------------------------------------------------
     A        460     460       0       0       0       0
   -------------------------------------------------------
    Total     460     460      27      27      27       0
   -------------------------------------------------------

  ==> Integral Setup <==

  DFHelper Memory: AOs need 1.582 GiB; user supplied 22.352 GiB. Using in-core AOs.

  ==> MemDFJK: Density-Fitted J/K Matrices <==

    J tasked:                   Yes
    K tasked:                   Yes
    wK tasked:                   No
    OpenMP threads:               8
    Memory [MiB]:             22888
    Algorithm:                 Core
    Schwarz Cutoff:           1E-12
    Mask sparsity (%):       4.0454
    Fitting Condition:        1E-10

   => Auxiliary Basis Set <=

  Basis Set: (AUG-CC-PVTZ AUX)
    Blend: AUG-CC-PVTZ-JKFIT
    Number of shells: 294
    Number of basis function: 1004
    Number of Cartesian functions: 1247
    Spherical Harmonics?: true
    Max angular momentum: 4

  Minimum eigenvalue in the overlap matrix is 4.4499242958E-06.
  Using Symmetric Orthogonalization.

  SCF Guess: Superposition of Atomic Densities via on-the-fly atomic UHF.

  ==> Iterations <==

                           Total Energy        Delta E     RMS |[F,P]|

   @DF-RHF iter SAD:  -378.35248525834515   -3.78352e+02   0.00000e+00 
   @DF-RHF iter   1:  -379.36717813921018   -1.01469e+00   1.60160e-03 DIIS
   @DF-RHF iter   2:  -379.52130395767620   -1.54126e-01   1.17528e-03 DIIS
   @DF-RHF iter   3:  -379.62081307875849   -9.95091e-02   2.13062e-04 DIIS
   @DF-RHF iter   4:  -379.62663809550276   -5.82502e-03   9.23481e-05 DIIS
   @DF-RHF iter   5:  -379.62790849693721   -1.27040e-03   2.71972e-05 DIIS
   @DF-RHF iter   6:  -379.62806406397920   -1.55567e-04   1.36950e-05 DIIS
   @DF-RHF iter   7:  -379.62811149838871   -4.74344e-05   5.97383e-06 DIIS
   @DF-RHF iter   8:  -379.62812063085056   -9.13246e-06   2.76114e-06 DIIS
   @DF-RHF iter   9:  -379.62812260265076   -1.97180e-06   1.09758e-06 DIIS
   @DF-RHF iter  10:  -379.62812295354598   -3.50895e-07   3.72905e-07 DIIS
   @DF-RHF iter  11:  -379.62812299377970   -4.02337e-08   1.56764e-07 DIIS
   @DF-RHF iter  12:  -379.62812300269127   -8.91157e-09   7.11373e-08 DIIS
   @DF-RHF iter  13:  -379.62812300471739   -2.02613e-09   2.53126e-08 DIIS
   @DF-RHF iter  14:  -379.62812300497825   -2.60854e-10   8.80940e-09 DIIS
   @DF-RHF iter  15:  -379.62812300500701   -2.87628e-11   2.93373e-09 DIIS
   @DF-RHF iter  16:  -379.62812300500838   -1.36424e-12   1.16927e-09 DIIS
   @DF-RHF iter  17:  -379.62812300500792    4.54747e-13   4.50489e-10 DIIS
   @DF-RHF iter  18:  -379.62812300500957   -1.64846e-12   2.10263e-10 DIIS
   @DF-RHF iter  19:  -379.62812300500946    1.13687e-13   5.89441e-11 DIIS
  Energy and wave function converged.


  ==> Post-Iterations <==

    Orbital Energies [Eh]
    ---------------------

    Doubly Occupied:                                                      

       1A    -20.619321     2A    -20.611897     3A    -20.591485  
       4A    -11.432543     5A    -11.366859     6A    -11.261604  
       7A    -11.234294     8A     -1.454223     9A     -1.413673  
      10A     -1.321884    11A     -1.100746    12A     -1.027048  
      13A     -0.889116    14A     -0.772327    15A     -0.724048  
      16A     -0.707361    17A     -0.667590    18A     -0.660635  
      19A     -0.611128    20A     -0.593626    21A     -0.555537  
      22A     -0.543526    23A     -0.538153    24A     -0.508613  
      25A     -0.502193    26A     -0.468852    27A     -0.464493  

    Virtual:                                                              

      28A      0.004121    29A      0.026292    30A      0.033748  
      31A      0.040753    32A      0.043052    33A      0.052094  
      34A      0.064215    35A      0.081397    36A      0.094446  
      37A      0.098434    38A      0.102541    39A      0.115659  
      40A      0.121547    41A      0.122241    42A      0.125455  
      43A      0.134918    44A      0.140810    45A      0.145364  
      46A      0.156919    47A      0.157435    48A      0.181643  
      49A      0.194768    50A      0.197161    51A      0.200039  
      52A      0.208989    53A      0.212125    54A      0.223226  
      55A      0.230043    56A      0.232145    57A      0.242074  
      58A      0.248395    59A      0.255756    60A      0.269485  
      61A      0.270787    62A      0.282449    63A      0.290495  
      64A      0.295558    65A      0.298124    66A      0.310120  
      67A      0.313100    68A      0.317941    69A      0.336231  
      70A      0.340967    71A      0.350146    72A      0.352161  
      73A      0.361585    74A      0.361715    75A      0.374452  
      76A      0.379164    77A      0.384008    78A      0.395225  
      79A      0.402588    80A      0.406582    81A      0.412908  
      82A      0.414432    83A      0.418297    84A      0.433640  
      85A      0.439647    86A      0.442144    87A      0.447328  
      88A      0.455855    89A      0.460062    90A      0.462254  
      91A      0.473993    92A      0.494241    93A      0.495922  
      94A      0.504595    95A      0.506566    96A      0.513215  
      97A      0.528953    98A      0.536755    99A      0.538468  
     100A      0.546215   101A      0.559439   102A      0.574677  
     103A      0.577765   104A      0.591451   105A      0.598352  
     106A      0.604805   107A      0.621514   108A      0.643693  
     109A      0.656543   110A      0.662007   111A      0.690681  
     112A      0.706818   113A      0.713002   114A      0.720302  
     115A      0.744580   116A      0.744706   117A      0.756386  
     118A      0.766477   119A      0.778710   120A      0.796255  
     121A      0.802929   122A      0.815935   123A      0.816698  
     124A      0.828936   125A      0.836761   126A      0.839232  
     127A      0.853763   128A      0.854772   129A      0.860477  
     130A      0.864377   131A      0.873066   132A      0.883701  
     133A      0.887074   134A      0.897299   135A      0.898617  
     136A      0.911651   137A      0.917379   138A      0.922427  
     139A      0.933277   140A      0.937376   141A      0.940717  
     142A      0.962184   143A      0.974457   144A      0.981287  
     145A      0.984432   146A      0.990129   147A      0.999720  
     148A      1.005671   149A      1.013647   150A      1.018774  
     151A      1.039811   152A      1.053603   153A      1.064536  
     154A      1.066841   155A      1.071969   156A      1.074630  
     157A      1.080531   158A      1.084209   159A      1.106175  
     160A      1.121359   161A      1.121603   162A      1.141883  
     163A      1.149009   164A      1.162250   165A      1.171439  
     166A      1.183349   167A      1.183557   168A      1.201248  
     169A      1.215544   170A      1.218222   171A      1.242057  
     172A      1.246714   173A      1.255267   174A      1.273397  
     175A      1.273870   176A      1.294377   177A      1.303313  
     178A      1.310012   179A      1.311862   180A      1.321417  
     181A      1.356505   182A      1.364997   183A      1.385910  
     184A      1.400202   185A      1.410730   186A      1.429271  
     187A      1.431135   188A      1.434274   189A      1.442628  
     190A      1.454842   191A      1.476316   192A      1.477309  
     193A      1.501591   194A      1.504954   195A      1.522527  
     196A      1.547547   197A      1.561574   198A      1.586618  
     199A      1.595641   200A      1.599029   201A      1.625566  
     202A      1.629680   203A      1.640685   204A      1.642467  
     205A      1.649382   206A      1.659113   207A      1.672483  
     208A      1.690755   209A      1.693274   210A      1.712380  
     211A      1.725519   212A      1.746210   213A      1.748087  
     214A      1.780346   215A      1.781027   216A      1.789525  
     217A      1.801835   218A      1.813520   219A      1.832238  
     220A      1.837869   221A      1.855728   222A      1.890829  
     223A      1.891642   224A      1.907032   225A      1.920263  
     226A      1.933533   227A      1.960925   228A      1.976743  
     229A      1.984740   230A      1.993956   231A      1.999584  
     232A      2.019478   233A      2.056419   234A      2.071085  
     235A      2.077263   236A      2.115252   237A      2.142136  
     238A      2.173150   239A      2.173488   240A      2.192975  
     241A      2.198049   242A      2.227355   243A      2.240241  
     244A      2.271699   245A      2.277442   246A      2.282950  
     247A      2.300483   248A      2.301436   249A      2.331822  
     250A      2.349218   251A      2.387384   252A      2.387947  
     253A      2.396144   254A      2.424921   255A      2.441142  
     256A      2.454684   257A      2.479730   258A      2.508525  
     259A      2.518245   260A      2.523767   261A      2.527162  
     262A      2.557623   263A      2.568073   264A      2.596891  
     265A      2.601351   266A      2.617376   267A      2.619158  
     268A      2.656313   269A      2.660089   270A      2.698034  
     271A      2.706340   272A      2.722957   273A      2.735872  
     274A      2.805030   275A      2.833320   276A      2.848537  
     277A      2.871234   278A      2.889844   279A      2.893447  
     280A      2.931292   281A      2.969593   282A      2.985262  
     283A      3.000505   284A      3.039397   285A      3.055792  
     286A      3.104675   287A      3.126906   288A      3.128442  
     289A      3.151497   290A      3.201946   291A      3.224596  
     292A      3.247067   293A      3.297257   294A      3.317716  
     295A      3.353199   296A      3.359651   297A      3.387160  
     298A      3.399595   299A      3.435982   300A      3.446277  
     301A      3.451661   302A      3.482584   303A      3.506901  
     304A      3.520360   305A      3.523463   306A      3.546786  
     307A      3.611957   308A      3.637561   309A      3.638897  
     310A      3.655578   311A      3.663874   312A      3.684506  
     313A      3.687322   314A      3.718362   315A      3.744013  
     316A      3.772420   317A      3.800085   318A      3.802695  
     319A      3.816054   320A      3.822607   321A      3.850108  
     322A      3.861936   323A      3.877547   324A      3.900542  
     325A      3.919820   326A      3.958379   327A      3.973251  
     328A      3.974449   329A      3.984267   330A      3.990787  
     331A      4.028811   332A      4.057296   333A      4.081014  
     334A      4.092033   335A      4.122686   336A      4.140687  
     337A      4.160185   338A      4.169718   339A      4.179756  
     340A      4.189634   341A      4.229439   342A      4.240815  
     343A      4.242877   344A      4.269234   345A      4.278938  
     346A      4.300654   347A      4.328978   348A      4.333287  
     349A      4.362123   350A      4.412154   351A      4.425036  
     352A      4.445667   353A      4.473596   354A      4.512445  
     355A      4.557185   356A      4.568323   357A      4.587733  
     358A      4.595047   359A      4.645760   360A      4.660880  
     361A      4.691165   362A      4.711659   363A      4.713937  
     364A      4.752965   365A      4.814384   366A      4.825334  
     367A      4.840279   368A      4.863448   369A      4.896166  
     370A      4.915100   371A      4.937397   372A      4.944175  
     373A      4.957255   374A      4.978880   375A      5.035361  
     376A      5.055745   377A      5.059031   378A      5.088382  
     379A      5.111021   380A      5.113112   381A      5.172064  
     382A      5.177790   383A      5.212251   384A      5.248286  
     385A      5.261569   386A      5.320431   387A      5.341957  
     388A      5.361418   389A      5.367858   390A      5.391475  
     391A      5.399183   392A      5.486576   393A      5.514771  
     394A      5.518939   395A      5.550470   396A      5.594328  
     397A      5.595913   398A      5.657077   399A      5.696012  
     400A      5.785801   401A      5.832418   402A      5.858436  
     403A      5.990128   404A      6.014188   405A      6.054375  
     406A      6.081743   407A      6.148848   408A      6.204534  
     409A      6.205767   410A      6.255393   411A      6.351801  
     412A      6.429857   413A      6.470237   414A      6.608678  
     415A      6.657657   416A      6.685918   417A      6.723903  
     418A      6.735600   419A      6.760798   420A      6.798363  
     421A      6.805155   422A      6.811318   423A      6.868463  
     424A      6.880272   425A      6.939713   426A      6.972174  
     427A      6.978953   428A      7.045237   429A      7.055564  
     430A      7.123740   431A      7.200625   432A      7.216428  
     433A      7.218364   434A      7.261862   435A      7.334272  
     436A      7.351464   437A      7.369388   438A      7.403671  
     439A      7.417884   440A      7.493168   441A      7.540046  
     442A      7.568359   443A      7.617629   444A      7.653160  
     445A      7.694496   446A      7.759722   447A      7.817865  
     448A      7.875542   449A      7.929481   450A      7.978054  
     451A      8.071475   452A      8.328091   453A      8.467591  
     454A     14.031852   455A     14.638683   456A     16.558091  
     457A     17.063575   458A     17.796564   459A     18.719007  
     460A     19.847375  

    Final Occupation by Irrep:
              A 
    DOCC [    27 ]

  @DF-RHF Final Energy:  -379.62812300500946

   => Energetics <=

    Nuclear Repulsion Energy =            297.1656247508565230
    One-Electron Energy =               -1108.3019459527254185
    Two-Electron Energy =                 431.5081981968594391
    Total Energy =                       -379.6281230050094564

Computation Completed

*** tstop() called on node142.bme.utexas.edu at Tue Nov 17 00:25:30 2020
Module time:
	user time   =      85.09 seconds =       1.42 minutes
	system time =       2.61 seconds =       0.04 minutes
	total time  =         12 seconds =       0.20 minutes
Total time:
	user time   =      85.09 seconds =       1.42 minutes
	system time =       2.61 seconds =       0.04 minutes
	total time  =         12 seconds =       0.20 minutes
   => Loading Basis Set <=

    Name: (AUG-CC-PVTZ AUX)
    Role: RIFIT
    Keyword: DF_BASIS_MP2
    atoms 1-3  entry O          line   264 file /home/xy3866/psi4conda/share/psi4/basis/aug-cc-pvtz-ri.gbs 
    atoms 4-7  entry C          line   148 file /home/xy3866/psi4conda/share/psi4/basis/aug-cc-pvtz-ri.gbs 
    atoms 8-13 entry H          line    30 file /home/xy3866/psi4conda/share/psi4/basis/aug-cc-pvtz-ri.gbs 


*** tstart() called on node142.bme.utexas.edu
*** at Tue Nov 17 00:25:31 2020


  //>>>>>>>>>>>>>>>>>>>>>>>>>>>>>>>>>>>//
  //               DFMP2               //
  //<<<<<<<<<<<<<<<<<<<<<<<<<<<<<<<<<<<//

	 --------------------------------------------------------
	                          DF-MP2                         
	      2nd-Order Density-Fitted Moller-Plesset Theory     
	              RMP2 Wavefunction,   8 Threads             
	                                                         
	        Rob Parrish, Justin Turney, Andy Simmonett,      
	           Ed Hohenstein, and C. David Sherrill          
	 --------------------------------------------------------

   => Auxiliary Basis Set <=

  Basis Set: (AUG-CC-PVTZ AUX)
    Blend: AUG-CC-PVTZ-RI
    Number of shells: 280
    Number of basis function: 1018
    Number of Cartesian functions: 1282
    Spherical Harmonics?: true
    Max angular momentum: 4

	 --------------------------------------------------------
	                 NBF =   460, NAUX =  1018
	 --------------------------------------------------------
	   CLASS    FOCC     OCC    AOCC    AVIR     VIR    FVIR
	   PAIRS       0      27      27     433     433       0
	 --------------------------------------------------------

  DFHelper Memory: AOs need 1.582 GiB; user supplied 22.352 GiB. Using in-core AOs.


         ------------------------------------------------------------
                                     CPHF                           
                                  Rob Parrish                       
         ------------------------------------------------------------

  ==> Geometry <==

    Molecular point group: c1
    Full point group: C1

    Geometry (in Angstrom), charge = 0, multiplicity = 1:

       Center              X                  Y                   Z               Mass       
    ------------   -----------------  -----------------  -----------------  -----------------
         O            0.450968126255     1.498714495982    -0.000653117252    15.994914619570
         O           -2.097814873745     0.709069495982     0.000767882748    15.994914619570
         O           -1.422939873745    -1.463450504018    -0.000810117252    15.994914619570
         C            1.349470126255    -0.749105504018     0.000849882748    12.000000000000
         C            2.738884126255    -0.129729504018    -0.000093117252    12.000000000000
         C            0.258802126255     0.289335495982    -0.000011117252    12.000000000000
         C           -0.985367973745    -0.195714404018    -0.000065917252    12.000000000000
         H            1.192043126255    -1.401273504018    -0.867246117252     1.007825032230
         H            1.192433126255    -1.399196504018     0.870609882748     1.007825032230
         H            2.884872126255     0.497329495982    -0.882016117252     1.007825032230
         H            2.885163126255     0.499375495982     0.880315882748     1.007825032230
         H            3.502042126255    -0.911699504018     0.000670882748     1.007825032230
         H           -2.965050873745     0.251759495982     0.000607882748     1.007825032230

  Nuclear repulsion =  297.165624750856523
  Reference energy  = -379.628123005009456

  ==> Basis Set <==

  Basis Set: AUG-CC-PVTZ
    Blend: AUG-CC-PVTZ
    Number of shells: 152
    Number of basis function: 460
    Number of Cartesian functions: 535
    Spherical Harmonics?: true
    Max angular momentum: 3

  ==> CGRSolver (by Rob Parrish) <==

   Number of roots    =         1
   Preconditioning    =    JACOBI
   Convergence cutoff =     1E-06
   Maximum iterations =       100

  ==> CPHFRHamiltonian (by Rob Parrish) <== 

  ==> MemDFJK: Density-Fitted J/K Matrices <==

    J tasked:                   Yes
    K tasked:                   Yes
    wK tasked:                   No
    OpenMP threads:               8
    Memory [MiB]:             22888
    Algorithm:                 Core
    Schwarz Cutoff:           1E-12
    Mask sparsity (%):       4.0454
    Fitting Condition:        1E-10

   => Auxiliary Basis Set <=

  Basis Set: (AUG-CC-PVTZ AUX)
    Blend: AUG-CC-PVTZ-JKFIT
    Number of shells: 294
    Number of basis function: 1004
    Number of Cartesian functions: 1247
    Spherical Harmonics?: true
    Max angular momentum: 4

  ==> CPHF Iterations <==

  => Iterations <=

             Iter  Converged  Remaining    Residual
  CGR           1          0          1   1.414E-01
  CGR           2          0          1   5.214E-02
  CGR           3          0          1   2.205E-02
  CGR           4          0          1   1.117E-02
  CGR           5          0          1   4.791E-03
  CGR           6          0          1   2.296E-03
  CGR           7          0          1   1.080E-03
  CGR           8          0          1   3.692E-04
  CGR           9          0          1   9.807E-05
  CGR          10          0          1   3.441E-05
  CGR          11          0          1   1.053E-05
  CGR          12          0          1   3.609E-06
  CGR          13          0          1   1.260E-06
  CGR          14          1          0   3.855E-07

    CGRSolver converged.

	-----------------------------------------------------------
	 ==================> DF-MP2 Energies <==================== 
	-----------------------------------------------------------
	 Reference Energy          =    -379.6281230050094564 [Eh]
	 Singles Energy            =      -0.0000000000000000 [Eh]
	 Same-Spin Energy          =      -0.3721496920724666 [Eh]
	 Opposite-Spin Energy      =      -1.1506881375292588 [Eh]
	 Correlation Energy        =      -1.5228378296017255 [Eh]
	 Total Energy              =    -381.1509608346111690 [Eh]
	-----------------------------------------------------------
	 ================> DF-SCS-MP2 Energies <================== 
	-----------------------------------------------------------
	 SCS Same-Spin Scale       =       0.3333333333333333 [-]
	 SCS Opposite-Spin Scale   =       1.2000000000000000 [-]
	 SCS Same-Spin Energy      =      -0.1240498973574889 [Eh]
	 SCS Opposite-Spin Energy  =      -1.3808257650351106 [Eh]
	 SCS Correlation Energy    =      -1.5048756623925994 [Eh]
	 SCS Total Energy          =    -381.1329986674020347 [Eh]
	-----------------------------------------------------------



Properties will be evaluated at  -0.000000,  -0.000000,  -0.000000 [a0]

Properties computed using the MP2 density matrix

  Nuclear Dipole Moment: [e a0]
     X:     8.1333      Y:    -2.3061      Z:     0.0028

  Electronic Dipole Moment: [e a0]
     X:    -7.8824      Y:     1.8150      Z:    -0.0019

  Dipole Moment: [e a0]
     X:     0.2509      Y:    -0.4911      Z:     0.0009     Total:     0.5515

  Dipole Moment: [D]
     X:     0.6377      Y:    -1.2483      Z:     0.0023     Total:     1.4017


*** tstop() called on node142.bme.utexas.edu at Tue Nov 17 00:26:10 2020
Module time:
	user time   =     270.36 seconds =       4.51 minutes
	system time =       6.75 seconds =       0.11 minutes
	total time  =         39 seconds =       0.65 minutes
Total time:
	user time   =     356.44 seconds =       5.94 minutes
	system time =       9.42 seconds =       0.16 minutes
	total time  =         52 seconds =       0.87 minutes

    Psi4 stopped on: Tuesday, 17 November 2020 12:26AM
    Psi4 wall time for execution: 0:00:52.40

*** Psi4 exiting successfully. Buy a developer a beer!
