11364                                                                   
Freq      RMP2-FC                                                     6-31G(d)            
Number of atoms                            I               22
Info1-9                                    I   N=           9
          34          32        1002           0           0         100
           6           2           1
Charge                                     I                0
Multiplicity                               I                1
Number of electrons                        I               80
Number of alpha electrons                  I               40
Number of beta electrons                   I               40
Number of basis functions                  I              187
Number of independent functions            I              187
Number of point charges in /Mol/           I                0
Number of translation vectors              I                0
Atomic numbers                             I   N=          22
           8           7           6           6           6           6
           6           6           6           6           6           1
           1           1           1           1           1           1
           1           1           1           1
Nuclear charges                            R   N=          22
  8.00000000E+00  7.00000000E+00  6.00000000E+00  6.00000000E+00  6.00000000E+00
  6.00000000E+00  6.00000000E+00  6.00000000E+00  6.00000000E+00  6.00000000E+00
  6.00000000E+00  1.00000000E+00  1.00000000E+00  1.00000000E+00  1.00000000E+00
  1.00000000E+00  1.00000000E+00  1.00000000E+00  1.00000000E+00  1.00000000E+00
  1.00000000E+00  1.00000000E+00
Current cartesian coordinates              R   N=          66
  2.90146106E+00 -3.12769043E+00 -1.19909229E+00  1.89854300E+00  7.60103520E-01
  4.44578311E-01 -7.49756649E-01  3.20923283E-01  2.00521852E-01 -1.82867539E+00
 -1.91332628E+00  1.12227301E+00 -2.28926927E+00  2.17241430E+00 -8.96639223E-01
  2.70882767E+00  3.30150947E+00  1.15597716E+00  3.59086329E+00 -1.04821654E+00
 -4.13270526E-01 -4.42896876E+00 -2.28322439E+00  9.21436906E-01 -4.89461026E+00
  1.79563562E+00 -1.06042840E+00 -5.97447710E+00 -4.33208289E-01 -1.55814163E-01
  6.36803268E+00 -3.47214809E-01 -2.98724772E-01 -6.29992712E-01 -3.34555171E+00
  1.96323794E+00 -1.45466553E+00  3.89028188E+00 -1.65313971E+00  4.45018448E+00
  3.21365981E+00  2.25340309E+00  1.24330569E+00  4.13150097E+00  2.34412886E+00
  3.01813294E+00  4.53642234E+00 -4.80126047E-01 -5.25491744E+00 -4.02417723E+00
  1.63502044E+00 -6.07554556E+00  3.24429547E+00 -1.91461734E+00 -8.00231025E+00
 -7.30396781E-01 -2.94394360E-01  7.00510011E+00 -1.09209285E-01  1.65425949E+00
  6.77447963E+00  1.40166934E+00 -1.32147741E+00  7.41294188E+00 -1.89945023E+00
 -1.15759586E+00
Force Field                                I                0
Int Atom Types                             I   N=          22
           0           0           0           0           0           0
           0           0           0           0           0           0
           0           0           0           0           0           0
           0           0           0           0
MM charges                                 R   N=          22
  0.00000000E+00  0.00000000E+00  0.00000000E+00  0.00000000E+00  0.00000000E+00
  0.00000000E+00  0.00000000E+00  0.00000000E+00  0.00000000E+00  0.00000000E+00
  0.00000000E+00  0.00000000E+00  0.00000000E+00  0.00000000E+00  0.00000000E+00
  0.00000000E+00  0.00000000E+00  0.00000000E+00  0.00000000E+00  0.00000000E+00
  0.00000000E+00  0.00000000E+00
Integer atomic weights                     I   N=          22
          16          14          12          12          12          12
          12          12          12          12          12           1
           1           1           1           1           1           1
           1           1           1           1
Real atomic weights                        R   N=          22
  1.59949146E+01  1.40030740E+01  1.20000000E+01  1.20000000E+01  1.20000000E+01
  1.20000000E+01  1.20000000E+01  1.20000000E+01  1.20000000E+01  1.20000000E+01
  1.20000000E+01  1.00782504E+00  1.00782504E+00  1.00782504E+00  1.00782504E+00
  1.00782504E+00  1.00782504E+00  1.00782504E+00  1.00782504E+00  1.00782504E+00
  1.00782504E+00  1.00782504E+00
Atom fragment info                         I   N=          22
           0           0           0           0           0           0
           0           0           0           0           0           0
           0           0           0           0           0           0
           0           0           0           0
Atom residue num                           I   N=          22
           0           0           0           0           0           0
           0           0           0           0           0           0
           0           0           0           0           0           0
           0           0           0           0
Nuclear spins                              I   N=          22
           0           2           0           0           0           0
           0           0           0           0           0           1
           1           1           1           1           1           1
           1           1           1           1
Nuclear ZEff                               R   N=          22
 -5.60000000E+00 -4.55000000E+00 -3.60000000E+00 -3.60000000E+00 -3.60000000E+00
 -3.60000000E+00 -3.60000000E+00 -3.60000000E+00 -3.60000000E+00 -3.60000000E+00
 -3.60000000E+00 -1.00000000E+00 -1.00000000E+00 -1.00000000E+00 -1.00000000E+00
 -1.00000000E+00 -1.00000000E+00 -1.00000000E+00 -1.00000000E+00 -1.00000000E+00
 -1.00000000E+00 -1.00000000E+00
Nuclear QMom                               R   N=          22
  0.00000000E+00  2.04400000E+00  0.00000000E+00  0.00000000E+00  0.00000000E+00
  0.00000000E+00  0.00000000E+00  0.00000000E+00  0.00000000E+00  0.00000000E+00
  0.00000000E+00  0.00000000E+00  0.00000000E+00  0.00000000E+00  0.00000000E+00
  0.00000000E+00  0.00000000E+00  0.00000000E+00  0.00000000E+00  0.00000000E+00
  0.00000000E+00  0.00000000E+00
Nuclear GFac                               R   N=          22
  0.00000000E+00  4.03761000E-01  0.00000000E+00  0.00000000E+00  0.00000000E+00
  0.00000000E+00  0.00000000E+00  0.00000000E+00  0.00000000E+00  0.00000000E+00
  0.00000000E+00  2.79284600E+00  2.79284600E+00  2.79284600E+00  2.79284600E+00
  2.79284600E+00  2.79284600E+00  2.79284600E+00  2.79284600E+00  2.79284600E+00
  2.79284600E+00  2.79284600E+00
MicOpt                                     I   N=          22
          -1          -1          -1          -1          -1          -1
          -1          -1          -1          -1          -1          -1
          -1          -1          -1          -1          -1          -1
          -1          -1          -1          -1
Number of contracted shells                I               66
Number of primitive shells                 I              165
Pure/Cartesian d shells                    I                1
Pure/Cartesian f shells                    I                0
Highest angular momentum                   I                2
Largest degree of contraction              I                6
Shell types                                I   N=          66
           0          -1          -1           2           0          -1
          -1           2           0          -1          -1           2
           0          -1          -1           2           0          -1
          -1           2           0          -1          -1           2
           0          -1          -1           2           0          -1
          -1           2           0          -1          -1           2
           0          -1          -1           2           0          -1
          -1           2           0           0           0           0
           0           0           0           0           0           0
           0           0           0           0           0           0
           0           0           0           0           0           0
Number of primitives per shell             I   N=          66
           6           3           1           1           6           3
           1           1           6           3           1           1
           6           3           1           1           6           3
           1           1           6           3           1           1
           6           3           1           1           6           3
           1           1           6           3           1           1
           6           3           1           1           6           3
           1           1           3           1           3           1
           3           1           3           1           3           1
           3           1           3           1           3           1
           3           1           3           1           3           1
Shell to atom map                          I   N=          66
           1           1           1           1           2           2
           2           2           3           3           3           3
           4           4           4           4           5           5
           5           5           6           6           6           6
           7           7           7           7           8           8
           8           8           9           9           9           9
          10          10          10          10          11          11
          11          11          12          12          13          13
          14          14          15          15          16          16
          17          17          18          18          19          19
          20          20          21          21          22          22
Primitive exponents                        R   N=         165
  5.48467166E+03  8.25234946E+02  1.88046958E+02  5.29645000E+01  1.68975704E+01
  5.79963534E+00  1.55396162E+01  3.59993359E+00  1.01376175E+00  2.70005823E-01
  8.00000000E-01  4.17351146E+03  6.27457911E+02  1.42902093E+02  4.02343293E+01
  1.28202129E+01  4.39043701E+00  1.16263619E+01  2.71627981E+00  7.72218397E-01
  2.12031498E-01  8.00000000E-01  3.04752488E+03  4.57369518E+02  1.03948685E+02
  2.92101553E+01  9.28666296E+00  3.16392696E+00  7.86827235E+00  1.88128854E+00
  5.44249258E-01  1.68714478E-01  8.00000000E-01  3.04752488E+03  4.57369518E+02
  1.03948685E+02  2.92101553E+01  9.28666296E+00  3.16392696E+00  7.86827235E+00
  1.88128854E+00  5.44249258E-01  1.68714478E-01  8.00000000E-01  3.04752488E+03
  4.57369518E+02  1.03948685E+02  2.92101553E+01  9.28666296E+00  3.16392696E+00
  7.86827235E+00  1.88128854E+00  5.44249258E-01  1.68714478E-01  8.00000000E-01
  3.04752488E+03  4.57369518E+02  1.03948685E+02  2.92101553E+01  9.28666296E+00
  3.16392696E+00  7.86827235E+00  1.88128854E+00  5.44249258E-01  1.68714478E-01
  8.00000000E-01  3.04752488E+03  4.57369518E+02  1.03948685E+02  2.92101553E+01
  9.28666296E+00  3.16392696E+00  7.86827235E+00  1.88128854E+00  5.44249258E-01
  1.68714478E-01  8.00000000E-01  3.04752488E+03  4.57369518E+02  1.03948685E+02
  2.92101553E+01  9.28666296E+00  3.16392696E+00  7.86827235E+00  1.88128854E+00
  5.44249258E-01  1.68714478E-01  8.00000000E-01  3.04752488E+03  4.57369518E+02
  1.03948685E+02  2.92101553E+01  9.28666296E+00  3.16392696E+00  7.86827235E+00
  1.88128854E+00  5.44249258E-01  1.68714478E-01  8.00000000E-01  3.04752488E+03
  4.57369518E+02  1.03948685E+02  2.92101553E+01  9.28666296E+00  3.16392696E+00
  7.86827235E+00  1.88128854E+00  5.44249258E-01  1.68714478E-01  8.00000000E-01
  3.04752488E+03  4.57369518E+02  1.03948685E+02  2.92101553E+01  9.28666296E+00
  3.16392696E+00  7.86827235E+00  1.88128854E+00  5.44249258E-01  1.68714478E-01
  8.00000000E-01  1.87311370E+01  2.82539436E+00  6.40121692E-01  1.61277759E-01
  1.87311370E+01  2.82539436E+00  6.40121692E-01  1.61277759E-01  1.87311370E+01
  2.82539436E+00  6.40121692E-01  1.61277759E-01  1.87311370E+01  2.82539436E+00
  6.40121692E-01  1.61277759E-01  1.87311370E+01  2.82539436E+00  6.40121692E-01
  1.61277759E-01  1.87311370E+01  2.82539436E+00  6.40121692E-01  1.61277759E-01
  1.87311370E+01  2.82539436E+00  6.40121692E-01  1.61277759E-01  1.87311370E+01
  2.82539436E+00  6.40121692E-01  1.61277759E-01  1.87311370E+01  2.82539436E+00
  6.40121692E-01  1.61277759E-01  1.87311370E+01  2.82539436E+00  6.40121692E-01
  1.61277759E-01  1.87311370E+01  2.82539436E+00  6.40121692E-01  1.61277759E-01
Contraction coefficients                   R   N=         165
  1.83107443E-03  1.39501722E-02  6.84450781E-02  2.32714336E-01  4.70192898E-01
  3.58520853E-01 -1.10777550E-01 -1.48026263E-01  1.13076702E+00  1.00000000E+00
  1.00000000E+00  1.83477216E-03  1.39946270E-02  6.85865518E-02  2.32240873E-01
  4.69069948E-01  3.60455199E-01 -1.14961182E-01 -1.69117479E-01  1.14585195E+00
  1.00000000E+00  1.00000000E+00  1.83473713E-03  1.40373228E-02  6.88426223E-02
  2.32184443E-01  4.67941348E-01  3.62311985E-01 -1.19332420E-01 -1.60854152E-01
  1.14345644E+00  1.00000000E+00  1.00000000E+00  1.83473713E-03  1.40373228E-02
  6.88426223E-02  2.32184443E-01  4.67941348E-01  3.62311985E-01 -1.19332420E-01
 -1.60854152E-01  1.14345644E+00  1.00000000E+00  1.00000000E+00  1.83473713E-03
  1.40373228E-02  6.88426223E-02  2.32184443E-01  4.67941348E-01  3.62311985E-01
 -1.19332420E-01 -1.60854152E-01  1.14345644E+00  1.00000000E+00  1.00000000E+00
  1.83473713E-03  1.40373228E-02  6.88426223E-02  2.32184443E-01  4.67941348E-01
  3.62311985E-01 -1.19332420E-01 -1.60854152E-01  1.14345644E+00  1.00000000E+00
  1.00000000E+00  1.83473713E-03  1.40373228E-02  6.88426223E-02  2.32184443E-01
  4.67941348E-01  3.62311985E-01 -1.19332420E-01 -1.60854152E-01  1.14345644E+00
  1.00000000E+00  1.00000000E+00  1.83473713E-03  1.40373228E-02  6.88426223E-02
  2.32184443E-01  4.67941348E-01  3.62311985E-01 -1.19332420E-01 -1.60854152E-01
  1.14345644E+00  1.00000000E+00  1.00000000E+00  1.83473713E-03  1.40373228E-02
  6.88426223E-02  2.32184443E-01  4.67941348E-01  3.62311985E-01 -1.19332420E-01
 -1.60854152E-01  1.14345644E+00  1.00000000E+00  1.00000000E+00  1.83473713E-03
  1.40373228E-02  6.88426223E-02  2.32184443E-01  4.67941348E-01  3.62311985E-01
 -1.19332420E-01 -1.60854152E-01  1.14345644E+00  1.00000000E+00  1.00000000E+00
  1.83473713E-03  1.40373228E-02  6.88426223E-02  2.32184443E-01  4.67941348E-01
  3.62311985E-01 -1.19332420E-01 -1.60854152E-01  1.14345644E+00  1.00000000E+00
  1.00000000E+00  3.34946043E-02  2.34726953E-01  8.13757326E-01  1.00000000E+00
  3.34946043E-02  2.34726953E-01  8.13757326E-01  1.00000000E+00  3.34946043E-02
  2.34726953E-01  8.13757326E-01  1.00000000E+00  3.34946043E-02  2.34726953E-01
  8.13757326E-01  1.00000000E+00  3.34946043E-02  2.34726953E-01  8.13757326E-01
  1.00000000E+00  3.34946043E-02  2.34726953E-01  8.13757326E-01  1.00000000E+00
  3.34946043E-02  2.34726953E-01  8.13757326E-01  1.00000000E+00  3.34946043E-02
  2.34726953E-01  8.13757326E-01  1.00000000E+00  3.34946043E-02  2.34726953E-01
  8.13757326E-01  1.00000000E+00  3.34946043E-02  2.34726953E-01  8.13757326E-01
  1.00000000E+00  3.34946043E-02  2.34726953E-01  8.13757326E-01  1.00000000E+00
P(S=P) Contraction coefficients            R   N=         165
  0.00000000E+00  0.00000000E+00  0.00000000E+00  0.00000000E+00  0.00000000E+00
  0.00000000E+00  7.08742682E-02  3.39752839E-01  7.27158577E-01  1.00000000E+00
  0.00000000E+00  0.00000000E+00  0.00000000E+00  0.00000000E+00  0.00000000E+00
  0.00000000E+00  0.00000000E+00  6.75797439E-02  3.23907296E-01  7.40895140E-01
  1.00000000E+00  0.00000000E+00  0.00000000E+00  0.00000000E+00  0.00000000E+00
  0.00000000E+00  0.00000000E+00  0.00000000E+00  6.89990666E-02  3.16423961E-01
  7.44308291E-01  1.00000000E+00  0.00000000E+00  0.00000000E+00  0.00000000E+00
  0.00000000E+00  0.00000000E+00  0.00000000E+00  0.00000000E+00  6.89990666E-02
  3.16423961E-01  7.44308291E-01  1.00000000E+00  0.00000000E+00  0.00000000E+00
  0.00000000E+00  0.00000000E+00  0.00000000E+00  0.00000000E+00  0.00000000E+00
  6.89990666E-02  3.16423961E-01  7.44308291E-01  1.00000000E+00  0.00000000E+00
  0.00000000E+00  0.00000000E+00  0.00000000E+00  0.00000000E+00  0.00000000E+00
  0.00000000E+00  6.89990666E-02  3.16423961E-01  7.44308291E-01  1.00000000E+00
  0.00000000E+00  0.00000000E+00  0.00000000E+00  0.00000000E+00  0.00000000E+00
  0.00000000E+00  0.00000000E+00  6.89990666E-02  3.16423961E-01  7.44308291E-01
  1.00000000E+00  0.00000000E+00  0.00000000E+00  0.00000000E+00  0.00000000E+00
  0.00000000E+00  0.00000000E+00  0.00000000E+00  6.89990666E-02  3.16423961E-01
  7.44308291E-01  1.00000000E+00  0.00000000E+00  0.00000000E+00  0.00000000E+00
  0.00000000E+00  0.00000000E+00  0.00000000E+00  0.00000000E+00  6.89990666E-02
  3.16423961E-01  7.44308291E-01  1.00000000E+00  0.00000000E+00  0.00000000E+00
  0.00000000E+00  0.00000000E+00  0.00000000E+00  0.00000000E+00  0.00000000E+00
  6.89990666E-02  3.16423961E-01  7.44308291E-01  1.00000000E+00  0.00000000E+00
  0.00000000E+00  0.00000000E+00  0.00000000E+00  0.00000000E+00  0.00000000E+00
  0.00000000E+00  6.89990666E-02  3.16423961E-01  7.44308291E-01  1.00000000E+00
  0.00000000E+00  0.00000000E+00  0.00000000E+00  0.00000000E+00  0.00000000E+00
  0.00000000E+00  0.00000000E+00  0.00000000E+00  0.00000000E+00  0.00000000E+00
  0.00000000E+00  0.00000000E+00  0.00000000E+00  0.00000000E+00  0.00000000E+00
  0.00000000E+00  0.00000000E+00  0.00000000E+00  0.00000000E+00  0.00000000E+00
  0.00000000E+00  0.00000000E+00  0.00000000E+00  0.00000000E+00  0.00000000E+00
  0.00000000E+00  0.00000000E+00  0.00000000E+00  0.00000000E+00  0.00000000E+00
  0.00000000E+00  0.00000000E+00  0.00000000E+00  0.00000000E+00  0.00000000E+00
  0.00000000E+00  0.00000000E+00  0.00000000E+00  0.00000000E+00  0.00000000E+00
  0.00000000E+00  0.00000000E+00  0.00000000E+00  0.00000000E+00  0.00000000E+00
Coordinates of each shell                  R   N=         198
  2.90146106E+00 -3.12769043E+00 -1.19909229E+00  2.90146106E+00 -3.12769043E+00
 -1.19909229E+00  2.90146106E+00 -3.12769043E+00 -1.19909229E+00  2.90146106E+00
 -3.12769043E+00 -1.19909229E+00  1.89854300E+00  7.60103520E-01  4.44578311E-01
  1.89854300E+00  7.60103520E-01  4.44578311E-01  1.89854300E+00  7.60103520E-01
  4.44578311E-01  1.89854300E+00  7.60103520E-01  4.44578311E-01 -7.49756649E-01
  3.20923283E-01  2.00521852E-01 -7.49756649E-01  3.20923283E-01  2.00521852E-01
 -7.49756649E-01  3.20923283E-01  2.00521852E-01 -7.49756649E-01  3.20923283E-01
  2.00521852E-01 -1.82867539E+00 -1.91332628E+00  1.12227301E+00 -1.82867539E+00
 -1.91332628E+00  1.12227301E+00 -1.82867539E+00 -1.91332628E+00  1.12227301E+00
 -1.82867539E+00 -1.91332628E+00  1.12227301E+00 -2.28926927E+00  2.17241430E+00
 -8.96639223E-01 -2.28926927E+00  2.17241430E+00 -8.96639223E-01 -2.28926927E+00
  2.17241430E+00 -8.96639223E-01 -2.28926927E+00  2.17241430E+00 -8.96639223E-01
  2.70882767E+00  3.30150947E+00  1.15597716E+00  2.70882767E+00  3.30150947E+00
  1.15597716E+00  2.70882767E+00  3.30150947E+00  1.15597716E+00  2.70882767E+00
  3.30150947E+00  1.15597716E+00  3.59086329E+00 -1.04821654E+00 -4.13270526E-01
  3.59086329E+00 -1.04821654E+00 -4.13270526E-01  3.59086329E+00 -1.04821654E+00
 -4.13270526E-01  3.59086329E+00 -1.04821654E+00 -4.13270526E-01 -4.42896876E+00
 -2.28322439E+00  9.21436906E-01 -4.42896876E+00 -2.28322439E+00  9.21436906E-01
 -4.42896876E+00 -2.28322439E+00  9.21436906E-01 -4.42896876E+00 -2.28322439E+00
  9.21436906E-01 -4.89461026E+00  1.79563562E+00 -1.06042840E+00 -4.89461026E+00
  1.79563562E+00 -1.06042840E+00 -4.89461026E+00  1.79563562E+00 -1.06042840E+00
 -4.89461026E+00  1.79563562E+00 -1.06042840E+00 -5.97447710E+00 -4.33208289E-01
 -1.55814163E-01 -5.97447710E+00 -4.33208289E-01 -1.55814163E-01 -5.97447710E+00
 -4.33208289E-01 -1.55814163E-01 -5.97447710E+00 -4.33208289E-01 -1.55814163E-01
  6.36803268E+00 -3.47214809E-01 -2.98724772E-01  6.36803268E+00 -3.47214809E-01
 -2.98724772E-01  6.36803268E+00 -3.47214809E-01 -2.98724772E-01  6.36803268E+00
 -3.47214809E-01 -2.98724772E-01 -6.29992712E-01 -3.34555171E+00  1.96323794E+00
 -6.29992712E-01 -3.34555171E+00  1.96323794E+00 -1.45466553E+00  3.89028188E+00
 -1.65313971E+00 -1.45466553E+00  3.89028188E+00 -1.65313971E+00  4.45018448E+00
  3.21365981E+00  2.25340309E+00  4.45018448E+00  3.21365981E+00  2.25340309E+00
  1.24330569E+00  4.13150097E+00  2.34412886E+00  1.24330569E+00  4.13150097E+00
  2.34412886E+00  3.01813294E+00  4.53642234E+00 -4.80126047E-01  3.01813294E+00
  4.53642234E+00 -4.80126047E-01 -5.25491744E+00 -4.02417723E+00  1.63502044E+00
 -5.25491744E+00 -4.02417723E+00  1.63502044E+00 -6.07554556E+00  3.24429547E+00
 -1.91461734E+00 -6.07554556E+00  3.24429547E+00 -1.91461734E+00 -8.00231025E+00
 -7.30396781E-01 -2.94394360E-01 -8.00231025E+00 -7.30396781E-01 -2.94394360E-01
  7.00510011E+00 -1.09209285E-01  1.65425949E+00  7.00510011E+00 -1.09209285E-01
  1.65425949E+00  6.77447963E+00  1.40166934E+00 -1.32147741E+00  6.77447963E+00
  1.40166934E+00 -1.32147741E+00  7.41294188E+00 -1.89945023E+00 -1.15759586E+00
  7.41294188E+00 -1.89945023E+00 -1.15759586E+00
Constraint Structure                       R   N=          66
  2.90146106E+00 -3.12769043E+00 -1.19909229E+00  1.89854300E+00  7.60103520E-01
  4.44578311E-01 -7.49756649E-01  3.20923283E-01  2.00521852E-01 -1.82867539E+00
 -1.91332628E+00  1.12227301E+00 -2.28926927E+00  2.17241430E+00 -8.96639223E-01
  2.70882767E+00  3.30150947E+00  1.15597716E+00  3.59086329E+00 -1.04821654E+00
 -4.13270526E-01 -4.42896876E+00 -2.28322439E+00  9.21436906E-01 -4.89461026E+00
  1.79563562E+00 -1.06042840E+00 -5.97447710E+00 -4.33208289E-01 -1.55814163E-01
  6.36803268E+00 -3.47214809E-01 -2.98724772E-01 -6.29992712E-01 -3.34555171E+00
  1.96323794E+00 -1.45466553E+00  3.89028188E+00 -1.65313971E+00  4.45018448E+00
  3.21365981E+00  2.25340309E+00  1.24330569E+00  4.13150097E+00  2.34412886E+00
  3.01813294E+00  4.53642234E+00 -4.80126047E-01 -5.25491744E+00 -4.02417723E+00
  1.63502044E+00 -6.07554556E+00  3.24429547E+00 -1.91461734E+00 -8.00231025E+00
 -7.30396781E-01 -2.94394360E-01  7.00510011E+00 -1.09209285E-01  1.65425949E+00
  6.77447963E+00  1.40166934E+00 -1.32147741E+00  7.41294188E+00 -1.89945023E+00
 -1.15759586E+00
Num ILSW                                   I              100
ILSW                                       I   N=         100
           0           1           0           0           2           0
           0           0           0           0           0          -1
           0           0           0           0           0           0
           0           0           0           0           1           0
           1           0           0           0           0           0
           0           0      100000           0          -1           0
           0           0           0           0           0           0
           0           0           0           1           1           0
           0           0           1           0           0           0
           0           0           4          40           0           0
           0           0           0           0           0           0
           0           0           0           0           0           0
           0           0           0           0           0           0
           0           0           0           0           0           0
           0           0           0           0           0           0
           0           0           0           0           0           0
           0           0           0           0
Num RLSW                                   I               40
RLSW                                       R   N=          40
  1.00000000E+00  1.00000000E+00  1.00000000E+00  1.00000000E+00  1.00000000E+00
  0.00000000E+00  0.00000000E+00  1.00000000E+00  0.00000000E+00  0.00000000E+00
  0.00000000E+00  0.00000000E+00  1.00000000E+00  0.00000000E+00  0.00000000E+00
  0.00000000E+00  0.00000000E+00  1.00000000E+00  0.00000000E+00  0.00000000E+00
  0.00000000E+00  0.00000000E+00  1.00000000E+00  0.00000000E+00  0.00000000E+00
  0.00000000E+00  0.00000000E+00  1.00000000E+00  0.00000000E+00  0.00000000E+00
  0.00000000E+00  0.00000000E+00  0.00000000E+00  0.00000000E+00  0.00000000E+00
  0.00000000E+00  0.00000000E+00  0.00000000E+00  1.00000000E+00  1.00000000E+00
MxBond                                     I                4
NBond                                      I   N=          22
           1           3           3           3           3           4
           3           3           3           3           4           1
           1           1           1           1           1           1
           1           1           1           1
IBond                                      I   N=          88
           7           0           0           0           3           6
           7           0           2           4           5           0
           3           8          12           0           3           9
          13           0           2          14          15          16
           1           2          11           0           4          10
          17           0           5          10          18           0
           8           9          19           0           7          20
          21          22           4           0           0           0
           5           0           0           0           6           0
           0           0           6           0           0           0
           6           0           0           0           8           0
           0           0           9           0           0           0
          10           0           0           0          11           0
           0           0          11           0           0           0
          11           0           0           0
RBond                                      R   N=          88
  2.00000000E+00  0.00000000E+00  0.00000000E+00  0.00000000E+00  1.00000000E+00
  1.00000000E+00  1.00000000E+00  0.00000000E+00  1.00000000E+00  1.50000000E+00
  1.50000000E+00  0.00000000E+00  1.50000000E+00  1.50000000E+00  1.00000000E+00
  0.00000000E+00  1.50000000E+00  1.50000000E+00  1.00000000E+00  0.00000000E+00
  1.00000000E+00  1.00000000E+00  1.00000000E+00  1.00000000E+00  2.00000000E+00
  1.00000000E+00  1.00000000E+00  0.00000000E+00  1.50000000E+00  1.50000000E+00
  1.00000000E+00  0.00000000E+00  1.50000000E+00  1.50000000E+00  1.00000000E+00
  0.00000000E+00  1.50000000E+00  1.50000000E+00  1.00000000E+00  0.00000000E+00
  1.00000000E+00  1.00000000E+00  1.00000000E+00  1.00000000E+00  1.00000000E+00
  0.00000000E+00  0.00000000E+00  0.00000000E+00  1.00000000E+00  0.00000000E+00
  0.00000000E+00  0.00000000E+00  1.00000000E+00  0.00000000E+00  0.00000000E+00
  0.00000000E+00  1.00000000E+00  0.00000000E+00  0.00000000E+00  0.00000000E+00
  1.00000000E+00  0.00000000E+00  0.00000000E+00  0.00000000E+00  1.00000000E+00
  0.00000000E+00  0.00000000E+00  0.00000000E+00  1.00000000E+00  0.00000000E+00
  0.00000000E+00  0.00000000E+00  1.00000000E+00  0.00000000E+00  0.00000000E+00
  0.00000000E+00  1.00000000E+00  0.00000000E+00  0.00000000E+00  0.00000000E+00
  1.00000000E+00  0.00000000E+00  0.00000000E+00  0.00000000E+00  1.00000000E+00
  0.00000000E+00  0.00000000E+00  0.00000000E+00
Virial Ratio                               R      2.002348301476454E+00
SCF Energy                                 R     -4.765344097165315E+02
MP2 Energy                                 R     -4.780231868982443E+02
Total Energy                               R     -4.780231868982443E+02
Post-SCF wavefunction norm                 R      1.739057438530743E+00
RMS Force                                  R      1.889427576828474E-07
RMS Density                                R      1.002667127395860E-09
External E-field                           R   N=          35
  0.00000000E+00  0.00000000E+00  0.00000000E+00  0.00000000E+00  0.00000000E+00
  0.00000000E+00  0.00000000E+00  0.00000000E+00  0.00000000E+00  0.00000000E+00
  0.00000000E+00  0.00000000E+00  0.00000000E+00  0.00000000E+00  0.00000000E+00
  0.00000000E+00  0.00000000E+00  0.00000000E+00  0.00000000E+00  0.00000000E+00
  0.00000000E+00  0.00000000E+00  0.00000000E+00  0.00000000E+00  0.00000000E+00
  0.00000000E+00  0.00000000E+00  0.00000000E+00  0.00000000E+00  0.00000000E+00
  0.00000000E+00  0.00000000E+00  0.00000000E+00  0.00000000E+00  0.00000000E+00
IOpCl                                      I                0
IROHF                                      I                0
Alpha Orbital Energies                     R   N=         187
 -2.05236580E+01 -1.55995264E+01 -1.13567594E+01 -1.12763470E+01 -1.12752311E+01
 -1.12395906E+01 -1.12356907E+01 -1.12342756E+01 -1.12324228E+01 -1.12300187E+01
 -1.12279515E+01 -1.37207233E+00 -1.25477544E+00 -1.13695120E+00 -1.02687157E+00
 -1.01094920E+00 -9.90734133E-01 -9.50243340E-01 -8.37211183E-01 -8.21581896E-01
 -7.50652071E-01 -6.91118517E-01 -6.75244734E-01 -6.57786606E-01 -6.52702027E-01
 -6.14861493E-01 -6.07567026E-01 -5.85402066E-01 -5.80278233E-01 -5.72869521E-01
 -5.61755165E-01 -5.56930301E-01 -5.18202148E-01 -5.05831891E-01 -4.91739058E-01
 -4.89905626E-01 -4.16143234E-01 -3.98101821E-01 -3.29464085E-01 -3.08507843E-01
  1.41322447E-01  1.47384656E-01  1.96932783E-01  2.17185734E-01  2.42288195E-01
  2.63309596E-01  2.82562867E-01  2.87555320E-01  3.01991361E-01  3.16225809E-01
  3.21149478E-01  3.32207827E-01  3.43901323E-01  3.61727922E-01  3.72047300E-01
  3.76488543E-01  4.00887411E-01  4.49651987E-01  4.78105822E-01  4.85301016E-01