6386                                                                    
Freq      RMP2-FC                                                     6-31G(d)            
Number of atoms                            I               15
Info1-9                                    I   N=           9
          27          25        1002           0           0         100
           6           2           1
Charge                                     I                0
Multiplicity                               I                1
Number of electrons                        I               42
Number of alpha electrons                  I               21
Number of beta electrons                   I               21
Number of basis functions                  I               95
Number of independent functions            I               95
Number of point charges in /Mol/           I                0
Number of translation vectors              I                0
Atomic numbers                             I   N=          15
           8           6           6           6           6           1
           1           1           1           1           1           1
           1           1           1
Nuclear charges                            R   N=          15
  8.00000000E+00  6.00000000E+00  6.00000000E+00  6.00000000E+00  6.00000000E+00
  1.00000000E+00  1.00000000E+00  1.00000000E+00  1.00000000E+00  1.00000000E+00
  1.00000000E+00  1.00000000E+00  1.00000000E+00  1.00000000E+00  1.00000000E+00
Current cartesian coordinates              R   N=          45
  5.70331471E-03 -1.14813576E-06  2.73689789E+00 -8.84295389E-03  3.96647748E-07
  1.64837422E-02  1.30284006E+00  2.37717017E+00 -9.54136011E-01  1.30288446E+00
 -2.37714414E+00 -9.54139977E-01 -2.79415562E+00 -2.54759802E-05 -6.86866583E-01
  3.29165383E+00  2.39619635E+00 -3.74152329E-01  1.24262264E+00  2.47947162E+00
 -3.01904575E+00  3.81443543E-01  4.05358303E+00 -1.74091059E-01  3.81520529E-01
 -4.05357397E+00 -1.74092973E-01  3.29170087E+00 -2.39613328E+00 -3.74162376E-01
  1.24266373E+00 -2.47944593E+00 -3.01904924E+00 -3.71576414E+00  1.67537185E+00
  9.47787041E-02 -3.03194869E+00 -2.16213793E-05 -2.74023323E+00 -3.71572832E+00
 -1.67544650E+00  9.47689840E-02  1.76985380E+00  1.94695907E-06  3.26204910E+00
Force Field                                I                0
Int Atom Types                             I   N=          15
           0           0           0           0           0           0
           0           0           0           0           0           0
           0           0           0
MM charges                                 R   N=          15
  0.00000000E+00  0.00000000E+00  0.00000000E+00  0.00000000E+00  0.00000000E+00
  0.00000000E+00  0.00000000E+00  0.00000000E+00  0.00000000E+00  0.00000000E+00
  0.00000000E+00  0.00000000E+00  0.00000000E+00  0.00000000E+00  0.00000000E+00
Integer atomic weights                     I   N=          15
          16          12          12          12          12           1
           1           1           1           1           1           1
           1           1           1
Real atomic weights                        R   N=          15
  1.59949146E+01  1.20000000E+01  1.20000000E+01  1.20000000E+01  1.20000000E+01
  1.00782504E+00  1.00782504E+00  1.00782504E+00  1.00782504E+00  1.00782504E+00
  1.00782504E+00  1.00782504E+00  1.00782504E+00  1.00782504E+00  1.00782504E+00
Atom fragment info                         I   N=          15
           0           0           0           0           0           0
           0           0           0           0           0           0
           0           0           0
Atom residue num                           I   N=          15
           0           0           0           0           0           0
           0           0           0           0           0           0
           0           0           0
Nuclear spins                              I   N=          15
           0           0           0           0           0           1
           1           1           1           1           1           1
           1           1           1
Nuclear ZEff                               R   N=          15
 -5.60000000E+00 -3.60000000E+00 -3.60000000E+00 -3.60000000E+00 -3.60000000E+00
 -1.00000000E+00 -1.00000000E+00 -1.00000000E+00 -1.00000000E+00 -1.00000000E+00
 -1.00000000E+00 -1.00000000E+00 -1.00000000E+00 -1.00000000E+00 -1.00000000E+00
Nuclear QMom                               R   N=          15
  0.00000000E+00  0.00000000E+00  0.00000000E+00  0.00000000E+00  0.00000000E+00
  0.00000000E+00  0.00000000E+00  0.00000000E+00  0.00000000E+00  0.00000000E+00
  0.00000000E+00  0.00000000E+00  0.00000000E+00  0.00000000E+00  0.00000000E+00
Nuclear GFac                               R   N=          15
  0.00000000E+00  0.00000000E+00  0.00000000E+00  0.00000000E+00  0.00000000E+00
  2.79284600E+00  2.79284600E+00  2.79284600E+00  2.79284600E+00  2.79284600E+00
  2.79284600E+00  2.79284600E+00  2.79284600E+00  2.79284600E+00  2.79284600E+00
MicOpt                                     I   N=          15
          -1          -1          -1          -1          -1          -1
          -1          -1          -1          -1          -1          -1
          -1          -1          -1
Number of contracted shells                I               40
Number of primitive shells                 I               95
Pure/Cartesian d shells                    I                1
Pure/Cartesian f shells                    I                0
Highest angular momentum                   I                2
Largest degree of contraction              I                6
Shell types                                I   N=          40
           0          -1          -1           2           0          -1
          -1           2           0          -1          -1           2
           0          -1          -1           2           0          -1
          -1           2           0           0           0           0
           0           0           0           0           0           0
           0           0           0           0           0           0
           0           0           0           0
Number of primitives per shell             I   N=          40
           6           3           1           1           6           3
           1           1           6           3           1           1
           6           3           1           1           6           3
           1           1           3           1           3           1
           3           1           3           1           3           1
           3           1           3           1           3           1
           3           1           3           1
Shell to atom map                          I   N=          40
           1           1           1           1           2           2
           2           2           3           3           3           3
           4           4           4           4           5           5
           5           5           6           6           7           7
           8           8           9           9          10          10
          11          11          12          12          13          13
          14          14          15          15
Primitive exponents                        R   N=          95
  5.48467166E+03  8.25234946E+02  1.88046958E+02  5.29645000E+01  1.68975704E+01
  5.79963534E+00  1.55396162E+01  3.59993359E+00  1.01376175E+00  2.70005823E-01
  8.00000000E-01  3.04752488E+03  4.57369518E+02  1.03948685E+02  2.92101553E+01
  9.28666296E+00  3.16392696E+00  7.86827235E+00  1.88128854E+00  5.44249258E-01
  1.68714478E-01  8.00000000E-01  3.04752488E+03  4.57369518E+02  1.03948685E+02
  2.92101553E+01  9.28666296E+00  3.16392696E+00  7.86827235E+00  1.88128854E+00
  5.44249258E-01  1.68714478E-01  8.00000000E-01  3.04752488E+03  4.57369518E+02
  1.03948685E+02  2.92101553E+01  9.28666296E+00  3.16392696E+00  7.86827235E+00
  1.88128854E+00  5.44249258E-01  1.68714478E-01  8.00000000E-01  3.04752488E+03
  4.57369518E+02  1.03948685E+02  2.92101553E+01  9.28666296E+00  3.16392696E+00
  7.86827235E+00  1.88128854E+00  5.44249258E-01  1.68714478E-01  8.00000000E-01
  1.87311370E+01  2.82539436E+00  6.40121692E-01  1.61277759E-01  1.87311370E+01
  2.82539436E+00  6.40121692E-01  1.61277759E-01  1.87311370E+01  2.82539436E+00
  6.40121692E-01  1.61277759E-01  1.87311370E+01  2.82539436E+00  6.40121692E-01
  1.61277759E-01  1.87311370E+01  2.82539436E+00  6.40121692E-01  1.61277759E-01
  1.87311370E+01  2.82539436E+00  6.40121692E-01  1.61277759E-01  1.87311370E+01
  2.82539436E+00  6.40121692E-01  1.61277759E-01  1.87311370E+01  2.82539436E+00
  6.40121692E-01  1.61277759E-01  1.87311370E+01  2.82539436E+00  6.40121692E-01
  1.61277759E-01  1.87311370E+01  2.82539436E+00  6.40121692E-01  1.61277759E-01
Contraction coefficients                   R   N=          95
  1.83107443E-03  1.39501722E-02  6.84450781E-02  2.32714336E-01  4.70192898E-01
  3.58520853E-01 -1.10777550E-01 -1.48026263E-01  1.13076702E+00  1.00000000E+00
  1.00000000E+00  1.83473713E-03  1.40373228E-02  6.88426223E-02  2.32184443E-01
  4.67941348E-01  3.62311985E-01 -1.19332420E-01 -1.60854152E-01  1.14345644E+00
  1.00000000E+00  1.00000000E+00  1.83473713E-03  1.40373228E-02  6.88426223E-02
  2.32184443E-01  4.67941348E-01  3.62311985E-01 -1.19332420E-01 -1.60854152E-01
  1.14345644E+00  1.00000000E+00  1.00000000E+00  1.83473713E-03  1.40373228E-02
  6.88426223E-02  2.32184443E-01  4.67941348E-01  3.62311985E-01 -1.19332420E-01
 -1.60854152E-01  1.14345644E+00  1.00000000E+00  1.00000000E+00  1.83473713E-03
  1.40373228E-02  6.88426223E-02  2.32184443E-01  4.67941348E-01  3.62311985E-01
 -1.19332420E-01 -1.60854152E-01  1.14345644E+00  1.00000000E+00  1.00000000E+00
  3.34946043E-02  2.34726953E-01  8.13757326E-01  1.00000000E+00  3.34946043E-02
  2.34726953E-01  8.13757326E-01  1.00000000E+00  3.34946043E-02  2.34726953E-01
  8.13757326E-01  1.00000000E+00  3.34946043E-02  2.34726953E-01  8.13757326E-01
  1.00000000E+00  3.34946043E-02  2.34726953E-01  8.13757326E-01  1.00000000E+00
  3.34946043E-02  2.34726953E-01  8.13757326E-01  1.00000000E+00  3.34946043E-02
  2.34726953E-01  8.13757326E-01  1.00000000E+00  3.34946043E-02  2.34726953E-01
  8.13757326E-01  1.00000000E+00  3.34946043E-02  2.34726953E-01  8.13757326E-01
  1.00000000E+00  3.34946043E-02  2.34726953E-01  8.13757326E-01  1.00000000E+00
P(S=P) Contraction coefficients            R   N=          95
  0.00000000E+00  0.00000000E+00  0.00000000E+00  0.00000000E+00  0.00000000E+00
  0.00000000E+00  7.08742682E-02  3.39752839E-01  7.27158577E-01  1.00000000E+00
  0.00000000E+00  0.00000000E+00  0.00000000E+00  0.00000000E+00  0.00000000E+00
  0.00000000E+00  0.00000000E+00  6.89990666E-02  3.16423961E-01  7.44308291E-01
  1.00000000E+00  0.00000000E+00  0.00000000E+00  0.00000000E+00  0.00000000E+00
  0.00000000E+00  0.00000000E+00  0.00000000E+00  6.89990666E-02  3.16423961E-01
  7.44308291E-01  1.00000000E+00  0.00000000E+00  0.00000000E+00  0.00000000E+00
  0.00000000E+00  0.00000000E+00  0.00000000E+00  0.00000000E+00  6.89990666E-02
  3.16423961E-01  7.44308291E-01  1.00000000E+00  0.00000000E+00  0.00000000E+00
  0.00000000E+00  0.00000000E+00  0.00000000E+00  0.00000000E+00  0.00000000E+00
  6.89990666E-02  3.16423961E-01  7.44308291E-01  1.00000000E+00  0.00000000E+00
  0.00000000E+00  0.00000000E+00  0.00000000E+00  0.00000000E+00  0.00000000E+00
  0.00000000E+00  0.00000000E+00  0.00000000E+00  0.00000000E+00  0.00000000E+00
  0.00000000E+00  0.00000000E+00  0.00000000E+00  0.00000000E+00  0.00000000E+00
  0.00000000E+00  0.00000000E+00  0.00000000E+00  0.00000000E+00  0.00000000E+00
  0.00000000E+00  0.00000000E+00  0.00000000E+00  0.00000000E+00  0.00000000E+00
  0.00000000E+00  0.00000000E+00  0.00000000E+00  0.00000000E+00  0.00000000E+00
  0.00000000E+00  0.00000000E+00  0.00000000E+00  0.00000000E+00  0.00000000E+00
  0.00000000E+00  0.00000000E+00  0.00000000E+00  0.00000000E+00  0.00000000E+00
Coordinates of each shell                  R   N=         120
  5.70331471E-03 -1.14813576E-06  2.73689789E+00  5.70331471E-03 -1.14813576E-06
  2.73689789E+00  5.70331471E-03 -1.14813576E-06  2.73689789E+00  5.70331471E-03
 -1.14813576E-06  2.73689789E+00 -8.84295389E-03  3.96647748E-07  1.64837422E-02
 -8.84295389E-03  3.96647748E-07  1.64837422E-02 -8.84295389E-03  3.96647748E-07
  1.64837422E-02 -8.84295389E-03  3.96647748E-07  1.64837422E-02  1.30284006E+00
  2.37717017E+00 -9.54136011E-01  1.30284006E+00  2.37717017E+00 -9.54136011E-01
  1.30284006E+00  2.37717017E+00 -9.54136011E-01  1.30284006E+00  2.37717017E+00
 -9.54136011E-01  1.30288446E+00 -2.37714414E+00 -9.54139977E-01  1.30288446E+00
 -2.37714414E+00 -9.54139977E-01  1.30288446E+00 -2.37714414E+00 -9.54139977E-01
  1.30288446E+00 -2.37714414E+00 -9.54139977E-01 -2.79415562E+00 -2.54759802E-05
 -6.86866583E-01 -2.79415562E+00 -2.54759802E-05 -6.86866583E-01 -2.79415562E+00
 -2.54759802E-05 -6.86866583E-01 -2.79415562E+00 -2.54759802E-05 -6.86866583E-01
  3.29165383E+00  2.39619635E+00 -3.74152329E-01  3.29165383E+00  2.39619635E+00
 -3.74152329E-01  1.24262264E+00  2.47947162E+00 -3.01904575E+00  1.24262264E+00
  2.47947162E+00 -3.01904575E+00  3.81443543E-01  4.05358303E+00 -1.74091059E-01
  3.81443543E-01  4.05358303E+00 -1.74091059E-01  3.81520529E-01 -4.05357397E+00
 -1.74092973E-01  3.81520529E-01 -4.05357397E+00 -1.74092973E-01  3.29170087E+00
 -2.39613328E+00 -3.74162376E-01  3.29170087E+00 -2.39613328E+00 -3.74162376E-01
  1.24266373E+00 -2.47944593E+00 -3.01904924E+00  1.24266373E+00 -2.47944593E+00
 -3.01904924E+00 -3.71576414E+00  1.67537185E+00  9.47787041E-02 -3.71576414E+00
  1.67537185E+00  9.47787041E-02 -3.03194869E+00 -2.16213793E-05 -2.74023323E+00
 -3.03194869E+00 -2.16213793E-05 -2.74023323E+00 -3.71572832E+00 -1.67544650E+00
  9.47689840E-02 -3.71572832E+00 -1.67544650E+00  9.47689840E-02  1.76985380E+00
  1.94695907E-06  3.26204910E+00  1.76985380E+00  1.94695907E-06  3.26204910E+00
Constraint Structure                       R   N=          45
  5.70331471E-03 -1.14813576E-06  2.73689789E+00 -8.84295389E-03  3.96647748E-07
  1.64837422E-02  1.30284006E+00  2.37717017E+00 -9.54136011E-01  1.30288446E+00
 -2.37714414E+00 -9.54139977E-01 -2.79415562E+00 -2.54759802E-05 -6.86866583E-01
  3.29165383E+00  2.39619635E+00 -3.74152329E-01  1.24262264E+00  2.47947162E+00
 -3.01904575E+00  3.81443543E-01  4.05358303E+00 -1.74091059E-01  3.81520529E-01
 -4.05357397E+00 -1.74092973E-01  3.29170087E+00 -2.39613328E+00 -3.74162376E-01
  1.24266373E+00 -2.47944593E+00 -3.01904924E+00 -3.71576414E+00  1.67537185E+00
  9.47787041E-02 -3.03194869E+00 -2.16213793E-05 -2.74023323E+00 -3.71572832E+00
 -1.67544650E+00  9.47689840E-02  1.76985380E+00  1.94695907E-06  3.26204910E+00
Num ILSW                                   I              100
ILSW                                       I   N=         100
           0           1           0           0           2           0
           0           0           0           0           0          -1
           0           0           0           0           0           0
           0           0           0           0           1           0
           1           0           0           0           0           0
           0           0      100000           0          -1           0
           0           0           0           0           0           0
           0           0           0           1           1           0
           0           0           1           0           0           0
           0           0           4          40           0           0
           0           0           0           0           0           0
           0           0           0           0           0           0
           0           0           0           0           0           0
           0           0           0           0           0           0
           0           0           0           0           0           0
           0           0           0           0           0           0
           0           0           0           0
Num RLSW                                   I               40
RLSW                                       R   N=          40
  1.00000000E+00  1.00000000E+00  1.00000000E+00  1.00000000E+00  1.00000000E+00
  0.00000000E+00  0.00000000E+00  1.00000000E+00  0.00000000E+00  0.00000000E+00
  0.00000000E+00  0.00000000E+00  1.00000000E+00  0.00000000E+00  0.00000000E+00
  0.00000000E+00  0.00000000E+00  1.00000000E+00  0.00000000E+00  0.00000000E+00
  0.00000000E+00  0.00000000E+00  1.00000000E+00  0.00000000E+00  0.00000000E+00
  0.00000000E+00  0.00000000E+00  1.00000000E+00  0.00000000E+00  0.00000000E+00
  0.00000000E+00  0.00000000E+00  0.00000000E+00  0.00000000E+00  0.00000000E+00
  0.00000000E+00  0.00000000E+00  0.00000000E+00  1.00000000E+00  1.00000000E+00
MxBond                                     I                4
NBond                                      I   N=          15
           2           4           4           4           4           1
           1           1           1           1           1           1
           1           1           1
IBond                                      I   N=          60
           2          15           0           0           1           3
           4           5           2           6           7           8
           2           9          10          11           2          12
          13          14           3           0           0           0
           3           0           0           0           3           0
           0           0           4           0           0           0
           4           0           0           0           4           0
           0           0           5           0           0           0
           5           0           0           0           5           0
           0           0           1           0           0           0
RBond                                      R   N=          60
  1.00000000E+00  1.00000000E+00  0.00000000E+00  0.00000000E+00  1.00000000E+00
  1.00000000E+00  1.00000000E+00  1.00000000E+00  1.00000000E+00  1.00000000E+00
  1.00000000E+00  1.00000000E+00  1.00000000E+00  1.00000000E+00  1.00000000E+00
  1.00000000E+00  1.00000000E+00  1.00000000E+00  1.00000000E+00  1.00000000E+00
  1.00000000E+00  0.00000000E+00  0.00000000E+00  0.00000000E+00  1.00000000E+00
  0.00000000E+00  0.00000000E+00  0.00000000E+00  1.00000000E+00  0.00000000E+00
  0.00000000E+00  0.00000000E+00  1.00000000E+00  0.00000000E+00  0.00000000E+00
  0.00000000E+00  1.00000000E+00  0.00000000E+00  0.00000000E+00  0.00000000E+00
  1.00000000E+00  0.00000000E+00  0.00000000E+00  0.00000000E+00  1.00000000E+00
  0.00000000E+00  0.00000000E+00  0.00000000E+00  1.00000000E+00  0.00000000E+00
  0.00000000E+00  0.00000000E+00  1.00000000E+00  0.00000000E+00  0.00000000E+00
  0.00000000E+00  1.00000000E+00  0.00000000E+00  0.00000000E+00  0.00000000E+00
Virial Ratio                               R      2.001662179137057E+00
SCF Energy                                 R     -2.321517436304054E+02
MP2 Energy                                 R     -2.328627906251224E+02
Total Energy                               R     -2.328627906251224E+02
Post-SCF wavefunction norm                 R      1.564879819605485E+00
RMS Force                                  R      7.568427370536966E-07
RMS Density                                R      9.210883367697444E-10
External E-field                           R   N=          35
  0.00000000E+00  0.00000000E+00  0.00000000E+00  0.00000000E+00  0.00000000E+00
  0.00000000E+00  0.00000000E+00  0.00000000E+00  0.00000000E+00  0.00000000E+00
  0.00000000E+00  0.00000000E+00  0.00000000E+00  0.00000000E+00  0.00000000E+00
  0.00000000E+00  0.00000000E+00  0.00000000E+00  0.00000000E+00  0.00000000E+00
  0.00000000E+00  0.00000000E+00  0.00000000E+00  0.00000000E+00  0.00000000E+00
  0.00000000E+00  0.00000000E+00  0.00000000E+00  0.00000000E+00  0.00000000E+00
  0.00000000E+00  0.00000000E+00  0.00000000E+00  0.00000000E+00  0.00000000E+00
IOpCl                                      I                0
IROHF                                      I                0
Alpha Orbital Energies                     R   N=          95
 -2.05524732E+01 -1.12827194E+01 -1.12157335E+01 -1.12157144E+01 -1.12089020E+01
 -1.34809780E+00 -1.06408262E+00 -9.39978645E-01 -9.37799879E-01 -7.65059280E-01
 -6.64771865E-01 -6.21110688E-01 -6.19223633E-01 -5.74321515E-01 -5.55186935E-01
 -5.28160990E-01 -5.15278762E-01 -5.05093862E-01 -5.00396851E-01 -4.60238129E-01
 -4.28322990E-01  2.03699147E-01  2.60985512E-01  2.75615901E-01  3.00924928E-01
  3.08677534E-01  3.09857485E-01  3.18082317E-01  3.50473059E-01  3.57778024E-01
  3.82360959E-01  3.85713169E-01  4.22594073E-01  4.31507434E-01  4.45972261E-01
  7.10583969E-01  7.12354381E-01  7.70981233E-01  7.81921895E-01  7.90542782E-01
  8.62894496E-01  9.05881862E-01  9.16553562E-01  9.18393828E-01  1.00178572E+00
  1.01037464E+00  1.09253307E+00  1.11712015E+00  1.14173615E+00  1.15663329E+00
  1.17341161E+00  1.17401384E+00  1.18595626E+00  1.20328117E+00  1.21074859E+00
  1.21119246E+00  1.24763463E+00  1.25547211E+00  1.30014236E+00  1.34272062E+00
  1.46264597E+00  1.63002004E+00  1.65700263E+00  1.68275432E+00  1.71437986E+00
  1.85609704E+00  2.01122954E+00  2.02264327E+00  2.04328620E+00  2.06391853E+00
  2.14568524E+00  2.18750157E+00  2.20738153E+00  2.23774554E+00  2.41074142E+00
  2.42471057E+00  2.47484326E+00  2.54716328E+00  2.55031693E+00  2.55495720E+00
  2.58795910E+00  2.60441290E+00  2.62602491E+00  2.70116028E+00  2.77473635E+00
  2.95123892E+00  2.98160957E+00  3.07536967E+00  3.08554871E+00  3.27045039E+00
  4.19427254E+00  4.61722792E+00  4.73047136E+00  4.74597134E+00  5.06123789E+00
Alpha MO coefficients                      R   N=        9025
  9.94668651E-01  2.11888611E-02  1.07891876E-03  2.77562936E-09 -6.72305595E-04
  3.60412983E-03 -5.94092405E-04 -1.53732456E-09  4.36741796E-04 -4.06851955E-03
 -3.82533812E-03 -4.18106491E-03 -3.99751049E-10 -4.59570983E-05  1.50482501E-10
 -4.13400421E-05  8.51333207E-05 -3.39950730E-05 -1.86960048E-10  3.41791491E-04
  7.51646060E-04  3.31661568E-04 -3.43341963E-10  1.10837179E-04 -6.33438343E-05
 -6.03746673E-05  8.72122647E-05 -8.16339409E-11  6.75913301E-06 -4.44174578E-11
 -5.18627686E-07  4.49465534E-05  1.52342446E-05  3.02705845E-05 -3.96850747E-05
 -2.35076936E-04 -2.07799414E-05  1.43250649E-04 -6.39445433E-05 -1.35350060E-05
 -3.77798939E-05 -4.66202421E-05  2.24169901E-06  1.16053606E-05  3.29454928E-05
 -5.18707159E-07  4.49463666E-05  1.52349401E-05 -3.02704317E-05 -3.96856570E-05
 -2.35079071E-04 -2.07759925E-05 -1.43251682E-04 -6.39430828E-05 -1.35352122E-05
 -3.77799871E-05 -4.66205100E-05 -2.24103135E-06  1.16060259E-05 -3.29452632E-05
  8.27358817E-06  8.13779165E-05 -4.19867939E-06 -1.45503680E-10  2.48275999E-05
 -4.10700284E-05 -7.10308177E-05  1.23997103E-09 -3.16814993E-04 -1.76990795E-05
 -1.05988389E-05 -2.23279500E-05  1.11947548E-10 -4.42591836E-05 -4.64454375E-10
  5.93076369E-06  4.11812158E-05  8.89111972E-06  1.08768894E-05  1.54071001E-05
 -6.40610204E-05  1.54067179E-05 -6.40609116E-05  5.93071911E-06  4.11805164E-05
  8.89133511E-06  1.08780005E-05  4.82822391E-05 -3.30598366E-06 -1.62403839E-05
 -1.68481729E-04  4.82820183E-05 -3.30419564E-06  4.30478732E-04 -2.18414326E-04
 -2.21025468E-04 -2.70641868E-04  1.78032800E-05  8.82754706E-11 -1.09728598E-04
  4.23330869E-03 -2.12003163E-05  7.47701648E-10 -1.01667359E-03 -2.17768005E-04
 -1.82351897E-04 -9.34000712E-04 -3.73652344E-10 -3.78357012E-05  3.46209720E-10
  9.96189078E-01  2.81324539E-02  4.65897906E-05 -7.30081264E-10  6.28149875E-04
 -2.21370283E-02  2.23461020E-04  3.34556028E-10 -1.40213166E-06 -9.36920738E-04
 -9.63340343E-04 -9.53652921E-04  4.30968628E-10 -5.24396137E-06 -2.57638087E-10
  4.43372793E-03  6.48269253E-05 -1.01432010E-04 -1.71829265E-04  8.73626186E-06
  5.21159949E-03 -1.03051166E-03 -1.85129381E-03  1.21770318E-03 -1.78776468E-04
 -3.39264658E-04 -1.51987632E-04 -1.30041800E-04  4.78741929E-05  9.83524317E-05
  4.43373499E-03  6.48277597E-05 -1.01435422E-04  1.71827511E-04  8.73671774E-06
  5.21159467E-03 -1.03054294E-03  1.85127222E-03  1.21770454E-03 -1.78780796E-04
 -3.39260469E-04 -1.51987783E-04  1.30045262E-04  4.78760847E-05 -9.83519472E-05
  4.12268559E-03  6.67378794E-05  2.10969983E-04  2.22653517E-09  1.07808164E-05
  5.33990556E-03  2.32574694E-03  2.06493465E-08  9.12432030E-04 -3.87912479E-04
 -1.10328519E-04 -1.30327364E-04 -2.91150420E-09 -8.97488047E-05 -7.23582158E-10
 -2.14126161E-04 -1.48262236E-04 -1.37164207E-04  1.36153016E-04 -2.16566079E-04
 -1.51232136E-04 -2.16565922E-04 -1.51230944E-04 -2.14126125E-04 -1.48263554E-04
 -1.37164276E-04  1.36152568E-04 -2.05101380E-04 -9.87417748E-05 -1.42008667E-04
  6.81701254E-05 -2.05101076E-04 -9.87431167E-05 -2.78645674E-05  1.98548887E-04
 -3.07472602E-07 -1.76976699E-06 -3.17211101E-07  7.68745685E-05  4.95949525E-07
  5.03562090E-06  1.43546036E-06 -1.98972204E-04 -1.51370911E-06 -1.15936455E-06
 -9.18927380E-07 -6.80529697E-07 -1.22783262E-04 -2.20989546E-07  1.09326333E-04
 -3.50299435E-05  1.31767360E-06  4.38308090E-07 -1.58137928E-04 -6.29995401E-07
  1.54322649E-05  4.96295615E-06 -1.54039845E-03 -2.44789946E-06 -1.36063834E-06
 -2.38212438E-06 -1.27122882E-06  1.74591574E-04  2.88034088E-07 -1.13240187E-04
 -7.00421269E-01 -2.02966142E-02 -3.57309633E-05  1.51068091E-04  4.48460363E-05
  1.10353864E-02  5.09776431E-05 -8.29766048E-04 -1.62708885E-04  1.21310523E-03
  1.28931321E-03  1.18922133E-03  1.01258588E-05 -6.46553862E-06 -4.68189061E-08
  7.07832956E-01  2.05070889E-02  3.54805325E-05  1.50961711E-04 -4.47520686E-05
 -1.11385231E-02 -4.69197344E-05 -8.28995922E-04  1.60068144E-04 -1.22721004E-03
 -1.30277941E-03 -1.20321945E-03  1.03163658E-05  6.39574475E-06 -1.64715844E-07
 -1.00658669E-05 -2.54635615E-06 -5.39306913E-07  1.27825361E-04  2.17752561E-07
  7.81413393E-06  3.01001799E-06 -8.30430828E-04 -1.68670065E-06 -1.32522456E-07
 -4.34196830E-07 -7.61620374E-07 -7.25448607E-05 -5.21591347E-08  2.13388615E-05
 -1.43377232E-04 -2.01595174E-03 -1.60170622E-04 -2.07475783E-03 -8.89444332E-05
 -1.46738959E-03  9.00718494E-05  1.48883238E-03  1.43712419E-04  2.03245633E-03
  1.60555873E-04  2.09191209E-03  5.75871391E-05  5.12874873E-04 -6.48719612E-07
 -2.20808729E-06 -5.81873037E-05 -5.12821896E-04 -8.93355141E-07 -3.60756594E-07
 -5.84744716E-05 -3.36469636E-04 -6.02017340E-05 -4.05221515E-07  9.41712844E-05
  9.57891091E-04  2.72749731E-04  1.04928888E-06 -2.87486524E-04 -2.20799886E-04
 -1.74363987E-04 -1.29503424E-04  6.45094337E-07 -4.17786743E-05 -5.76135228E-07
 -6.65408337E-03  2.50349328E-04  8.29758399E-05  8.32884595E-07 -1.19653916E-04
  2.93199849E-03  9.40102990E-04  8.11885313E-06 -4.65008988E-04 -2.57968035E-04
 -4.53120713E-04 -2.41468089E-04 -9.16970132E-07  5.44955039E-05  5.96369643E-07
  7.07746256E-01  2.01006223E-02 -2.33162301E-05  9.34120323E-06  8.68691512E-06
 -9.85557511E-03  3.83484901E-04 -6.88037769E-05 -2.50113061E-04 -1.34620774E-03
 -1.28598727E-03 -1.33604922E-03 -1.79915388E-05 -6.58164478E-06  1.11580338E-05
  7.00333652E-01  1.98858430E-02 -2.36908711E-05 -1.09315130E-05  9.15859310E-06
 -9.73885461E-03  3.83999132E-04  7.75426781E-05 -2.51811105E-04 -1.33336301E-03
 -1.27234289E-03 -1.32345584E-03  1.78828949E-05 -6.64911665E-06 -1.11569158E-05
 -1.91767144E-03 -4.83888830E-04 -1.02220060E-04 -6.74079146E-07  4.12609095E-05
  1.48437639E-03  5.70185246E-04  4.37749739E-06 -3.19763578E-04 -2.53732744E-05
 -8.23213950E-05 -1.44643095E-04  3.82407513E-07 -9.88171221E-06 -1.12592427E-07
  3.25745441E-05  1.57880352E-03  3.74737660E-05  1.64026235E-03  1.07581198E-04
  2.04456131E-03  1.06638831E-04  2.02900033E-03  3.10627074E-05  1.55749348E-03
  3.57859773E-05  1.61832978E-03 -5.72783793E-05  2.21831815E-06 -1.23318777E-04
 -4.19062718E-04 -5.66692923E-05  7.61791591E-06 -1.69717339E-04 -6.93150769E-05
 -2.09426630E-05 -1.75449660E-04  8.06069074E-05  7.50467754E-10  5.94021447E-05
  3.76037264E-04 -4.21239786E-04 -3.44562235E-09 -3.31810025E-04 -1.05840117E-05
 -1.63182846E-04  2.00966324E-07  2.13976903E-09  1.14678956E-04  1.20685309E-09
 -4.40272502E-03  2.31359768E-04 -1.35346254E-04 -1.46619027E-09 -7.04467743E-05
  1.99235427E-03 -1.18233681E-03 -8.12603914E-09 -3.00859963E-04 -4.00925626E-04
 -1.03387185E-04 -1.73659116E-04 -3.21446046E-09 -4.99045925E-05 -4.55144653E-10
  1.22492825E-03 -2.75009645E-04  1.20186964E-04  2.03378343E-05  2.09767626E-05
  1.01184295E-03 -7.58389018E-04 -2.60795300E-05 -1.66187242E-04 -1.14491388E-05
 -8.11461321E-05 -1.10136531E-04  4.68266738E-05 -3.30035670E-06 -6.07535649E-06
  1.22488832E-03 -2.75011217E-04  1.20187345E-04 -2.03353285E-05  2.09765168E-05
  1.01184808E-03 -7.58392132E-04  2.60649257E-05 -1.66184103E-04 -1.14476459E-05
 -8.11477237E-05 -1.10136140E-04 -4.68254461E-05 -3.30040758E-06  6.07526728E-06
  9.95742920E-01  2.86146871E-02  1.84840624E-04  1.52414472E-09 -2.69644431E-05
 -1.48189058E-02 -6.76030036E-04 -5.50265795E-09 -8.73414612E-05 -1.82445766E-03
 -1.77898452E-03 -1.77354224E-03 -5.68878978E-10 -1.59048756E-06 -1.89773495E-10
  1.09963350E-05  3.58665641E-04 -8.64955862E-05 -3.10146692E-04 -8.81490442E-05
 -3.64377411E-04 -8.81486807E-05 -3.64381613E-04  1.09963935E-05  3.58665328E-04
 -8.64964249E-05 -3.10144485E-04  1.51406076E-04  2.51891925E-03  1.35180768E-04
  2.57973250E-03  1.51406058E-04  2.51892125E-03  8.41084841E-05  1.90665045E-04
 -1.99171742E-01  4.45097442E-01  6.22265374E-02  1.47652734E-07 -5.51853093E-02
  4.37392436E-01  3.80029685E-02  8.45480488E-08 -3.75817258E-02  1.98986378E-02