opt=Tight                                                               
Freq      RMP2-FC                                                     6-31G(d)            
Number of atoms                            I               15
Info1-9                                    I   N=           9
          24          24        1002           0           0         100
           6           2           1
Charge                                     I                0
Multiplicity                               I                1
Number of electrons                        I               56
Number of alpha electrons                  I               28
Number of beta electrons                   I               28
Number of basis functions                  I              121
Number of independent functions            I              121
Number of point charges in /Mol/           I                0
Number of translation vectors              I                0
Atomic numbers                             I   N=          15
           8           8           8           6           6           6
           6           1           1           1           1           1
           1           1           1
Nuclear charges                            R   N=          15
  8.00000000E+00  8.00000000E+00  8.00000000E+00  6.00000000E+00  6.00000000E+00
  6.00000000E+00  6.00000000E+00  1.00000000E+00  1.00000000E+00  1.00000000E+00
  1.00000000E+00  1.00000000E+00  1.00000000E+00  1.00000000E+00  1.00000000E+00
Current cartesian coordinates              R   N=          45
  1.51436534E+00 -6.03660559E-01 -1.24591137E+00 -9.59328215E-01 -1.55349505E+00
 -4.63500552E-01 -2.02742566E+00  2.64329091E+00 -1.83939774E-01  3.02953986E+00
 -4.58505481E-01  1.00876854E+00  5.60442992E+00  4.15069108E-01  1.12559767E-01
 -2.60592324E+00  4.30678387E-01 -5.68997320E-02 -5.17063060E+00 -6.56394961E-01
  4.98121156E-01  2.17918499E+00  8.91758527E-01  2.32327674E+00  3.11246096E+00
 -2.32410720E+00  1.89692921E+00  6.87495290E+00  5.62433358E-01  1.73419319E+00
  6.40529396E+00 -9.32445052E-01 -1.22926184E+00  5.47131464E+00  2.26685718E+00
 -7.87900756E-01 -6.10373428E+00 -1.11926082E+00 -1.28593768E+00 -5.02043508E+00
 -2.37710463E+00  1.62245524E+00 -6.28442541E+00  7.57703842E-01  1.49776108E+00
Force Field                                I                0
Int Atom Types                             I   N=          15
           0           0           0           0           0           0
           0           0           0           0           0           0
           0           0           0
MM charges                                 R   N=          15
  0.00000000E+00  0.00000000E+00  0.00000000E+00  0.00000000E+00  0.00000000E+00
  0.00000000E+00  0.00000000E+00  0.00000000E+00  0.00000000E+00  0.00000000E+00
  0.00000000E+00  0.00000000E+00  0.00000000E+00  0.00000000E+00  0.00000000E+00
Integer atomic weights                     I   N=          15
          16          16          16          12          12          12
          12           1           1           1           1           1
           1           1           1
Real atomic weights                        R   N=          15
  1.59949146E+01  1.59949146E+01  1.59949146E+01  1.20000000E+01  1.20000000E+01
  1.20000000E+01  1.20000000E+01  1.00782504E+00  1.00782504E+00  1.00782504E+00
  1.00782504E+00  1.00782504E+00  1.00782504E+00  1.00782504E+00  1.00782504E+00
Atom fragment info                         I   N=          15
           0           0           0           0           0           0
           0           0           0           0           0           0
           0           0           0
Atom residue num                           I   N=          15
           0           0           0           0           0           0
           0           0           0           0           0           0
           0           0           0
Nuclear spins                              I   N=          15
           0           0           0           0           0           0
           0           1           1           1           1           1
           1           1           1
Nuclear ZEff                               R   N=          15
 -5.60000000E+00 -5.60000000E+00 -5.60000000E+00 -3.60000000E+00 -3.60000000E+00
 -3.60000000E+00 -3.60000000E+00 -1.00000000E+00 -1.00000000E+00 -1.00000000E+00
 -1.00000000E+00 -1.00000000E+00 -1.00000000E+00 -1.00000000E+00 -1.00000000E+00
Nuclear QMom                               R   N=          15
  0.00000000E+00  0.00000000E+00  0.00000000E+00  0.00000000E+00  0.00000000E+00
  0.00000000E+00  0.00000000E+00  0.00000000E+00  0.00000000E+00  0.00000000E+00
  0.00000000E+00  0.00000000E+00  0.00000000E+00  0.00000000E+00  0.00000000E+00
Nuclear GFac                               R   N=          15
  0.00000000E+00  0.00000000E+00  0.00000000E+00  0.00000000E+00  0.00000000E+00
  0.00000000E+00  0.00000000E+00  2.79284600E+00  2.79284600E+00  2.79284600E+00
  2.79284600E+00  2.79284600E+00  2.79284600E+00  2.79284600E+00  2.79284600E+00
MicOpt                                     I   N=          15
          -1          -1          -1          -1          -1          -1
          -1          -1          -1          -1          -1          -1
          -1          -1          -1
Number of contracted shells                I               44
Number of primitive shells                 I              109
Pure/Cartesian d shells                    I                1
Pure/Cartesian f shells                    I                0
Highest angular momentum                   I                2
Largest degree of contraction              I                6
Shell types                                I   N=          44
           0          -1          -1           2           0          -1
          -1           2           0          -1          -1           2
           0          -1          -1           2           0          -1
          -1           2           0          -1          -1           2
           0          -1          -1           2           0           0
           0           0           0           0           0           0
           0           0           0           0           0           0
           0           0
Number of primitives per shell             I   N=          44
           6           3           1           1           6           3
           1           1           6           3           1           1
           6           3           1           1           6           3
           1           1           6           3           1           1
           6           3           1           1           3           1
           3           1           3           1           3           1
           3           1           3           1           3           1
           3           1
Shell to atom map                          I   N=          44
           1           1           1           1           2           2
           2           2           3           3           3           3
           4           4           4           4           5           5
           5           5           6           6           6           6
           7           7           7           7           8           8
           9           9          10          10          11          11
          12          12          13          13          14          14
          15          15
Primitive exponents                        R   N=         109
  5.48467166E+03  8.25234946E+02  1.88046958E+02  5.29645000E+01  1.68975704E+01
  5.79963534E+00  1.55396162E+01  3.59993359E+00  1.01376175E+00  2.70005823E-01
  8.00000000E-01  5.48467166E+03  8.25234946E+02  1.88046958E+02  5.29645000E+01
  1.68975704E+01  5.79963534E+00  1.55396162E+01  3.59993359E+00  1.01376175E+00
  2.70005823E-01  8.00000000E-01  5.48467166E+03  8.25234946E+02  1.88046958E+02
  5.29645000E+01  1.68975704E+01  5.79963534E+00  1.55396162E+01  3.59993359E+00
  1.01376175E+00  2.70005823E-01  8.00000000E-01  3.04752488E+03  4.57369518E+02
  1.03948685E+02  2.92101553E+01  9.28666296E+00  3.16392696E+00  7.86827235E+00
  1.88128854E+00  5.44249258E-01  1.68714478E-01  8.00000000E-01  3.04752488E+03
  4.57369518E+02  1.03948685E+02  2.92101553E+01  9.28666296E+00  3.16392696E+00
  7.86827235E+00  1.88128854E+00  5.44249258E-01  1.68714478E-01  8.00000000E-01
  3.04752488E+03  4.57369518E+02  1.03948685E+02  2.92101553E+01  9.28666296E+00
  3.16392696E+00  7.86827235E+00  1.88128854E+00  5.44249258E-01  1.68714478E-01
  8.00000000E-01  3.04752488E+03  4.57369518E+02  1.03948685E+02  2.92101553E+01
  9.28666296E+00  3.16392696E+00  7.86827235E+00  1.88128854E+00  5.44249258E-01
  1.68714478E-01  8.00000000E-01  1.87311370E+01  2.82539436E+00  6.40121692E-01
  1.61277759E-01  1.87311370E+01  2.82539436E+00  6.40121692E-01  1.61277759E-01
  1.87311370E+01  2.82539436E+00  6.40121692E-01  1.61277759E-01  1.87311370E+01
  2.82539436E+00  6.40121692E-01  1.61277759E-01  1.87311370E+01  2.82539436E+00
  6.40121692E-01  1.61277759E-01  1.87311370E+01  2.82539436E+00  6.40121692E-01
  1.61277759E-01  1.87311370E+01  2.82539436E+00  6.40121692E-01  1.61277759E-01
  1.87311370E+01  2.82539436E+00  6.40121692E-01  1.61277759E-01
Contraction coefficients                   R   N=         109
  1.83107443E-03  1.39501722E-02  6.84450781E-02  2.32714336E-01  4.70192898E-01
  3.58520853E-01 -1.10777550E-01 -1.48026263E-01  1.13076702E+00  1.00000000E+00
  1.00000000E+00  1.83107443E-03  1.39501722E-02  6.84450781E-02  2.32714336E-01
  4.70192898E-01  3.58520853E-01 -1.10777550E-01 -1.48026263E-01  1.13076702E+00
  1.00000000E+00  1.00000000E+00  1.83107443E-03  1.39501722E-02  6.84450781E-02
  2.32714336E-01  4.70192898E-01  3.58520853E-01 -1.10777550E-01 -1.48026263E-01
  1.13076702E+00  1.00000000E+00  1.00000000E+00  1.83473713E-03  1.40373228E-02
  6.88426223E-02  2.32184443E-01  4.67941348E-01  3.62311985E-01 -1.19332420E-01
 -1.60854152E-01  1.14345644E+00  1.00000000E+00  1.00000000E+00  1.83473713E-03
  1.40373228E-02  6.88426223E-02  2.32184443E-01  4.67941348E-01  3.62311985E-01
 -1.19332420E-01 -1.60854152E-01  1.14345644E+00  1.00000000E+00  1.00000000E+00
  1.83473713E-03  1.40373228E-02  6.88426223E-02  2.32184443E-01  4.67941348E-01
  3.62311985E-01 -1.19332420E-01 -1.60854152E-01  1.14345644E+00  1.00000000E+00
  1.00000000E+00  1.83473713E-03  1.40373228E-02  6.88426223E-02  2.32184443E-01
  4.67941348E-01  3.62311985E-01 -1.19332420E-01 -1.60854152E-01  1.14345644E+00
  1.00000000E+00  1.00000000E+00  3.34946043E-02  2.34726953E-01  8.13757326E-01
  1.00000000E+00  3.34946043E-02  2.34726953E-01  8.13757326E-01  1.00000000E+00
  3.34946043E-02  2.34726953E-01  8.13757326E-01  1.00000000E+00  3.34946043E-02
  2.34726953E-01  8.13757326E-01  1.00000000E+00  3.34946043E-02  2.34726953E-01
  8.13757326E-01  1.00000000E+00  3.34946043E-02  2.34726953E-01  8.13757326E-01
  1.00000000E+00  3.34946043E-02  2.34726953E-01  8.13757326E-01  1.00000000E+00
  3.34946043E-02  2.34726953E-01  8.13757326E-01  1.00000000E+00
P(S=P) Contraction coefficients            R   N=         109
  0.00000000E+00  0.00000000E+00  0.00000000E+00  0.00000000E+00  0.00000000E+00
  0.00000000E+00  7.08742682E-02  3.39752839E-01  7.27158577E-01  1.00000000E+00
  0.00000000E+00  0.00000000E+00  0.00000000E+00  0.00000000E+00  0.00000000E+00
  0.00000000E+00  0.00000000E+00  7.08742682E-02  3.39752839E-01  7.27158577E-01
  1.00000000E+00  0.00000000E+00  0.00000000E+00  0.00000000E+00  0.00000000E+00
  0.00000000E+00  0.00000000E+00  0.00000000E+00  7.08742682E-02  3.39752839E-01
  7.27158577E-01  1.00000000E+00  0.00000000E+00  0.00000000E+00  0.00000000E+00
  0.00000000E+00  0.00000000E+00  0.00000000E+00  0.00000000E+00  6.89990666E-02
  3.16423961E-01  7.44308291E-01  1.00000000E+00  0.00000000E+00  0.00000000E+00
  0.00000000E+00  0.00000000E+00  0.00000000E+00  0.00000000E+00  0.00000000E+00
  6.89990666E-02  3.16423961E-01  7.44308291E-01  1.00000000E+00  0.00000000E+00
  0.00000000E+00  0.00000000E+00  0.00000000E+00  0.00000000E+00  0.00000000E+00
  0.00000000E+00  6.89990666E-02  3.16423961E-01  7.44308291E-01  1.00000000E+00
  0.00000000E+00  0.00000000E+00  0.00000000E+00  0.00000000E+00  0.00000000E+00
  0.00000000E+00  0.00000000E+00  6.89990666E-02  3.16423961E-01  7.44308291E-01
  1.00000000E+00  0.00000000E+00  0.00000000E+00  0.00000000E+00  0.00000000E+00
  0.00000000E+00  0.00000000E+00  0.00000000E+00  0.00000000E+00  0.00000000E+00
  0.00000000E+00  0.00000000E+00  0.00000000E+00  0.00000000E+00  0.00000000E+00
  0.00000000E+00  0.00000000E+00  0.00000000E+00  0.00000000E+00  0.00000000E+00
  0.00000000E+00  0.00000000E+00  0.00000000E+00  0.00000000E+00  0.00000000E+00
  0.00000000E+00  0.00000000E+00  0.00000000E+00  0.00000000E+00  0.00000000E+00
  0.00000000E+00  0.00000000E+00  0.00000000E+00  0.00000000E+00
Coordinates of each shell                  R   N=         132
  1.51436534E+00 -6.03660559E-01 -1.24591137E+00  1.51436534E+00 -6.03660559E-01
 -1.24591137E+00  1.51436534E+00 -6.03660559E-01 -1.24591137E+00  1.51436534E+00
 -6.03660559E-01 -1.24591137E+00 -9.59328215E-01 -1.55349505E+00 -4.63500552E-01
 -9.59328215E-01 -1.55349505E+00 -4.63500552E-01 -9.59328215E-01 -1.55349505E+00
 -4.63500552E-01 -9.59328215E-01 -1.55349505E+00 -4.63500552E-01 -2.02742566E+00
  2.64329091E+00 -1.83939774E-01 -2.02742566E+00  2.64329091E+00 -1.83939774E-01
 -2.02742566E+00  2.64329091E+00 -1.83939774E-01 -2.02742566E+00  2.64329091E+00
 -1.83939774E-01  3.02953986E+00 -4.58505481E-01  1.00876854E+00  3.02953986E+00
 -4.58505481E-01  1.00876854E+00  3.02953986E+00 -4.58505481E-01  1.00876854E+00
  3.02953986E+00 -4.58505481E-01  1.00876854E+00  5.60442992E+00  4.15069108E-01
  1.12559767E-01  5.60442992E+00  4.15069108E-01  1.12559767E-01  5.60442992E+00
  4.15069108E-01  1.12559767E-01  5.60442992E+00  4.15069108E-01  1.12559767E-01
 -2.60592324E+00  4.30678387E-01 -5.68997320E-02 -2.60592324E+00  4.30678387E-01
 -5.68997320E-02 -2.60592324E+00  4.30678387E-01 -5.68997320E-02 -2.60592324E+00
  4.30678387E-01 -5.68997320E-02 -5.17063060E+00 -6.56394961E-01  4.98121156E-01
 -5.17063060E+00 -6.56394961E-01  4.98121156E-01 -5.17063060E+00 -6.56394961E-01
  4.98121156E-01 -5.17063060E+00 -6.56394961E-01  4.98121156E-01  2.17918499E+00
  8.91758527E-01  2.32327674E+00  2.17918499E+00  8.91758527E-01  2.32327674E+00
  3.11246096E+00 -2.32410720E+00  1.89692921E+00  3.11246096E+00 -2.32410720E+00
  1.89692921E+00  6.87495290E+00  5.62433358E-01  1.73419319E+00  6.87495290E+00
  5.62433358E-01  1.73419319E+00  6.40529396E+00 -9.32445052E-01 -1.22926184E+00
  6.40529396E+00 -9.32445052E-01 -1.22926184E+00  5.47131464E+00  2.26685718E+00
 -7.87900756E-01  5.47131464E+00  2.26685718E+00 -7.87900756E-01 -6.10373428E+00
 -1.11926082E+00 -1.28593768E+00 -6.10373428E+00 -1.11926082E+00 -1.28593768E+00
 -5.02043508E+00 -2.37710463E+00  1.62245524E+00 -5.02043508E+00 -2.37710463E+00
  1.62245524E+00 -6.28442541E+00  7.57703842E-01  1.49776108E+00 -6.28442541E+00
  7.57703842E-01  1.49776108E+00
Constraint Structure                       R   N=          45
  1.51436534E+00 -6.03660559E-01 -1.24591137E+00 -9.59328215E-01 -1.55349505E+00
 -4.63500552E-01 -2.02742566E+00  2.64329091E+00 -1.83939774E-01  3.02953986E+00
 -4.58505481E-01  1.00876854E+00  5.60442992E+00  4.15069108E-01  1.12559767E-01
 -2.60592324E+00  4.30678387E-01 -5.68997320E-02 -5.17063060E+00 -6.56394961E-01
  4.98121156E-01  2.17918499E+00  8.91758527E-01  2.32327674E+00  3.11246096E+00
 -2.32410720E+00  1.89692921E+00  6.87495290E+00  5.62433358E-01  1.73419319E+00
  6.40529396E+00 -9.32445052E-01 -1.22926184E+00  5.47131464E+00  2.26685718E+00
 -7.87900756E-01 -6.10373428E+00 -1.11926082E+00 -1.28593768E+00 -5.02043508E+00
 -2.37710463E+00  1.62245524E+00 -6.28442541E+00  7.57703842E-01  1.49776108E+00
Num ILSW                                   I              100
ILSW                                       I   N=         100
           0           1           0           0           2           0
           0           0           0           0           0          -1
           0           0           0           0           0           0
           0           0           0           0           1           0
           1           0           0           0           0           0
           0           0      100000           0          -1           0
           0           0           0           0           0           0
           0           0           0           1           1           0
           0           0           1           0           0           0
           0           0           4          40           0           0
           0           0           0           0           0           0
           0           0           0           0           0           0
           0           0           0           0           0           0
           0           0           0           0           0           0
           0           0           0           0           0           0
           0           0           0           0           0           0
           0           0           0           0
Num RLSW                                   I               40
RLSW                                       R   N=          40
  1.00000000E+00  1.00000000E+00  1.00000000E+00  1.00000000E+00  1.00000000E+00
  0.00000000E+00  0.00000000E+00  1.00000000E+00  0.00000000E+00  0.00000000E+00
  0.00000000E+00  0.00000000E+00  1.00000000E+00  0.00000000E+00  0.00000000E+00
  0.00000000E+00  0.00000000E+00  1.00000000E+00  0.00000000E+00  0.00000000E+00
  0.00000000E+00  0.00000000E+00  1.00000000E+00  0.00000000E+00  0.00000000E+00
  0.00000000E+00  0.00000000E+00  1.00000000E+00  0.00000000E+00  0.00000000E+00
  0.00000000E+00  0.00000000E+00  0.00000000E+00  0.00000000E+00  0.00000000E+00
  0.00000000E+00  0.00000000E+00  0.00000000E+00  1.00000000E+00  1.00000000E+00
MxBond                                     I                4
NBond                                      I   N=          15
           2           2           1           4           4           3
           4           1           1           1           1           1
           1           1           1
IBond                                      I   N=          60
           2           4           0           0           1           6
           0           0           6           0           0           0
           1           5           8           9           4          10
          11          12           2           3           7           0
           6          13          14          15           4           0
           0           0           4           0           0           0
           5           0           0           0           5           0
           0           0           5           0           0           0
           7           0           0           0           7           0
           0           0           7           0           0           0
RBond                                      R   N=          60
  1.00000000E+00  1.00000000E+00  0.00000000E+00  0.00000000E+00  1.00000000E+00
  1.50000000E+00  0.00000000E+00  0.00000000E+00  2.00000000E+00  0.00000000E+00
  0.00000000E+00  0.00000000E+00  1.00000000E+00  1.00000000E+00  1.00000000E+00
  1.00000000E+00  1.00000000E+00  1.00000000E+00  1.00000000E+00  1.00000000E+00
  1.50000000E+00  2.00000000E+00  1.00000000E+00  0.00000000E+00  1.00000000E+00
  1.00000000E+00  1.00000000E+00  1.00000000E+00  1.00000000E+00  0.00000000E+00
  0.00000000E+00  0.00000000E+00  1.00000000E+00  0.00000000E+00  0.00000000E+00
  0.00000000E+00  1.00000000E+00  0.00000000E+00  0.00000000E+00  0.00000000E+00
  1.00000000E+00  0.00000000E+00  0.00000000E+00  0.00000000E+00  1.00000000E+00
  0.00000000E+00  0.00000000E+00  0.00000000E+00  1.00000000E+00  0.00000000E+00
  0.00000000E+00  0.00000000E+00  1.00000000E+00  0.00000000E+00  0.00000000E+00
  0.00000000E+00  1.00000000E+00  0.00000000E+00  0.00000000E+00  0.00000000E+00
Virial Ratio                               R      2.003038509571438E+00
SCF Energy                                 R     -3.806303454708490E+02
MP2 Energy                                 R     -3.816887574187869E+02
Total Energy                               R     -3.816887574187869E+02
Post-SCF wavefunction norm                 R      1.629377586380423E+00
RMS Force                                  R      2.182854213699640E-06
RMS Density                                R      3.020888616190289E-09
External E-field                           R   N=          35
  0.00000000E+00  0.00000000E+00  0.00000000E+00  0.00000000E+00  0.00000000E+00
  0.00000000E+00  0.00000000E+00  0.00000000E+00  0.00000000E+00  0.00000000E+00
  0.00000000E+00  0.00000000E+00  0.00000000E+00  0.00000000E+00  0.00000000E+00
  0.00000000E+00  0.00000000E+00  0.00000000E+00  0.00000000E+00  0.00000000E+00
  0.00000000E+00  0.00000000E+00  0.00000000E+00  0.00000000E+00  0.00000000E+00
  0.00000000E+00  0.00000000E+00  0.00000000E+00  0.00000000E+00  0.00000000E+00
  0.00000000E+00  0.00000000E+00  0.00000000E+00  0.00000000E+00  0.00000000E+00
IOpCl                                      I                0
IROHF                                      I                0
Alpha Orbital Energies                     R   N=         121
 -2.06712082E+01 -2.06555126E+01 -2.05736506E+01 -1.14058685E+01 -1.12900470E+01
 -1.12454530E+01 -1.12255457E+01 -1.51484100E+00 -1.40081308E+00 -1.27408316E+00
 -1.03329997E+00 -1.00224952E+00 -8.53915869E-01 -8.00781452E-01 -7.10172277E-01
 -6.99286949E-01 -6.78653374E-01 -6.44747965E-01 -6.15691604E-01 -5.99687443E-01
 -5.78160518E-01 -5.46252065E-01 -5.35955048E-01 -5.34038670E-01 -5.12814602E-01
 -4.87000289E-01 -4.71595028E-01 -4.57135592E-01  1.69289224E-01  2.04175738E-01
  2.50862798E-01  2.61798471E-01  2.97841400E-01  3.02161835E-01  3.09160352E-01
  3.26011566E-01  3.35480309E-01  3.44590800E-01  3.46023301E-01  3.96129236E-01
  4.10667915E-01  4.69049342E-01  5.18430580E-01  6.95008894E-01  7.41183761E-01
  7.43361640E-01  7.72916665E-01  7.84327321E-01  7.95884412E-01  8.13011332E-01
  8.22191526E-01  8.57072945E-01  8.99568148E-01  9.27222846E-01  9.96683222E-01
  9.97781140E-01  1.07362366E+00  1.07710061E+00  1.10905523E+00  1.12821813E+00
  1.14352327E+00  1.15436933E+00  1.17615326E+00  1.18078087E+00  1.19350570E+00
  1.20046669E+00  1.22619767E+00  1.23319487E+00  1.26742633E+00  1.30671093E+00
  1.34040659E+00  1.37834277E+00  1.39001155E+00  1.49642909E+00  1.58969875E+00
  1.61380146E+00  1.66163778E+00  1.70045732E+00  1.72051908E+00  1.74276720E+00
  1.76605514E+00  1.84929820E+00  1.94798102E+00  2.00487497E+00  2.03001544E+00
  2.07230496E+00  2.07285799E+00  2.10714569E+00  2.14650480E+00  2.20684639E+00
  2.21297741E+00  2.26795887E+00  2.27819630E+00  2.32588623E+00  2.36717768E+00
  2.43608230E+00  2.46766309E+00  2.48478356E+00  2.52745278E+00  2.57113962E+00
  2.60219982E+00  2.66771398E+00  2.69618606E+00  2.72772470E+00  2.76077251E+00
  2.81483872E+00  2.95538406E+00  3.02046153E+00  3.05259333E+00  3.12109137E+00
  3.15490195E+00  3.30863537E+00  3.43122853E+00  3.54619950E+00  4.14895534E+00
  4.40112198E+00  4.46427978E+00  4.59054073E+00  4.60248839E+00  4.82296371E+00
  4.86407800E+00
Alpha MO coefficients                      R   N=       14641
  9.50955501E-03  1.77440101E-04 -2.54927524E-04 -1.04279152E-04  8.32011736E-05
  6.77813092E-04 -4.37595878E-04 -1.18040537E-04  2.70014554E-04  1.41153927E-04
 -1.19972129E-04 -5.56786523E-05  1.02532087E-04 -8.74429256E-05 -3.63045610E-05
  9.94728743E-01  2.10785600E-02  3.37934078E-04  1.28237143E-03 -1.25897551E-04
  2.92539034E-03 -6.82024993E-04 -8.60428939E-04  2.31850301E-04 -4.12073331E-03
 -3.85307930E-03 -3.65605482E-03 -1.20173732E-04  1.78730502E-04  4.48797857E-05
 -1.42965089E-04  8.41582413E-05 -1.53671610E-05  2.76204108E-05 -8.72018848E-07
 -5.69401098E-04 -4.75085463E-05  1.79629302E-04  3.04166017E-05  7.30112448E-05
 -1.70590513E-05  4.03838581E-05  4.95249341E-05 -8.34318908E-06 -1.49921736E-05
 -6.63069764E-06  3.72856121E-05  4.53584449E-05  7.52874172E-06  2.08993408E-05
 -5.53742335E-05  7.43296775E-05  3.00080650E-07  1.23122862E-04 -7.78410501E-05
 -3.69314079E-05 -3.89277596E-05 -1.21400490E-05 -3.51716645E-05 -2.51997222E-06
 -8.21655533E-06 -3.94320774E-05  6.04626380E-06  4.62836293E-06  1.27715846E-05
  1.19409115E-04 -1.01785652E-04 -3.47206656E-05 -1.02296681E-04  8.61926352E-06
 -7.37594754E-06 -1.95622386E-05  6.17551809E-06 -1.63402912E-06  3.59654307E-06
 -2.21578540E-06  3.37753160E-04  2.26447961E-04 -2.24740500E-04 -6.12005848E-05
  2.61747329E-04  2.51380712E-04  3.64126188E-04 -9.22354320E-05  2.06647395E-05
 -2.50634145E-05 -4.48417273E-05  4.27071075E-05 -1.65660573E-05 -7.27218952E-06
  6.72698486E-06  8.74107252E-05  3.91506810E-06 -1.54164827E-05 -1.68742503E-05
  1.19730420E-04 -1.67013777E-04  1.22595083E-04  1.49528357E-04 -8.82214168E-05
  6.42477291E-06 -1.07663038E-06  1.01776878E-05  1.58055924E-05  1.22620801E-05
  4.82106407E-06 -5.75092133E-05  3.09577183E-05 -1.15955432E-04  6.55455055E-06
  5.03398880E-05 -2.28767755E-05 -2.42846063E-05 -1.45407464E-05 -1.68537947E-05
  2.58656238E-05  2.75462163E-05  5.77483800E-05 -1.19850076E-04 -1.71740295E-05
 -1.64225315E-04  9.94766035E-01  2.10594274E-02 -5.45413919E-04 -3.44886139E-04
  1.22986556E-03  2.57487628E-03  7.56998037E-04  3.77888306E-04 -8.66017974E-04
 -4.14792635E-03 -3.54255589E-03 -3.80198345E-03 -2.62647326E-04  9.85704395E-05
  8.72399820E-05 -9.60706856E-03 -2.28703946E-04  2.47475085E-04  8.55099348E-05
 -8.43980080E-05  7.18323777E-04  5.43665168E-04  3.37376861E-04 -8.72831336E-05
  2.18687583E-04  3.04181036E-05 -6.80275215E-05  1.03400242E-04 -7.94339500E-05
 -2.48825031E-05 -3.24005133E-05 -3.65770000E-05  3.51542210E-06  4.79391476E-06
 -3.44631202E-06  2.74952062E-04 -4.58752242E-05 -9.72862953E-05  1.33593272E-05
 -3.86675764E-05 -1.06010729E-05 -2.77485532E-05  2.05291688E-05  7.98780858E-06
 -5.43104399E-06 -2.46650547E-05  1.55996112E-04 -2.09886704E-04 -2.35019346E-05
 -2.86234648E-04  5.65394394E-04  5.52640202E-05  6.37782771E-06 -5.67391459E-05
  3.61449443E-05 -4.92977790E-05  1.47760765E-05  2.45746955E-05  5.76464299E-05
  7.80387978E-06  1.76217104E-05  1.40042429E-04 -8.50801625E-06  3.43892391E-06
 -3.63871895E-05 -4.05998622E-04  4.02035365E-04  8.56622529E-05  2.37220566E-04
 -6.42136849E-05 -2.25840418E-06  2.86311152E-05 -2.17818542E-05 -1.09998724E-05
 -6.94932068E-06 -5.66585109E-06  3.11339034E-05 -6.75836032E-05  1.02979074E-05
  4.15152769E-06 -3.34013116E-04 -6.30937780E-05 -9.79749123E-05  4.94434552E-05
 -8.31004226E-05 -4.46399617E-05 -2.25600477E-05  2.61634982E-05  1.72931580E-05
 -4.68732092E-06 -1.01064856E-05 -5.25894588E-05 -2.58476295E-06  1.32610425E-05
  1.03036425E-05  1.67417787E-04  1.03422719E-04 -3.70070335E-05 -8.20695939E-05
  1.10780313E-05 -1.35175941E-05 -1.47947201E-05  8.21532144E-06 -5.56630907E-06
 -7.08859237E-06 -4.67047668E-05 -5.64220479E-05 -4.51615564E-05 -8.64851681E-05
 -1.18262176E-05 -1.91314514E-04  6.80364001E-05  1.07552945E-05  6.91107729E-05
  9.89752936E-06 -1.80132683E-05 -4.36535068E-05 -2.21656220E-05  1.41105301E-06
  2.53113796E-06  4.05724882E-05  2.64622290E-05  1.51433824E-05 -1.04177864E-06
  9.15303989E-06 -8.78574792E-07 -4.34751266E-06  5.35444832E-05 -1.31670462E-05
  4.99850773E-06 -9.38204660E-06 -7.99333026E-06  1.42153376E-05 -1.44274618E-06
  1.35199194E-05  2.87603168E-06  1.57509118E-04 -3.27855207E-05  2.84703202E-06
 -3.16209086E-05 -1.34228625E-06  8.92901731E-05 -2.17942882E-05  5.90600085E-05
  2.21485377E-06  6.81154062E-05 -7.94345095E-05 -4.78623957E-05 -3.16882802E-05
 -3.53831622E-05  6.91045707E-06  9.94687313E-01  2.10145028E-02 -3.82604917E-04
 -1.52936820E-03  8.46889431E-05  4.49712339E-03  1.62197011E-05  6.42594825E-06
  1.83566852E-06 -3.90637032E-03 -3.60193572E-03 -4.12543091E-03  1.04624924E-04
 -6.44344372E-05 -2.32614278E-05  1.06009105E-06  2.69725296E-07 -5.54920754E-06
  8.65377798E-06 -7.02881293E-06 -1.89332126E-06 -1.75151877E-06 -2.85944602E-05
  7.30362051E-05  4.97867728E-06  8.90357636E-06 -7.73695429E-06 -2.82957840E-06
 -3.36664424E-06 -5.69294701E-06 -2.04713559E-06 -6.05126505E-06  1.48625792E-06
 -4.48436811E-06 -1.35213636E-06  5.72784623E-05 -2.88576856E-05  2.54621526E-05
 -2.69909506E-06 -1.25913358E-06 -3.36834499E-06 -7.50203153E-06 -2.04014715E-06
  1.35568554E-06 -4.18979623E-07 -3.85500578E-06  4.82774525E-04 -3.01027564E-05
 -7.84773396E-05  3.56340873E-06 -3.56507417E-04 -1.84167131E-04 -4.51779462E-04
  4.34842814E-05 -1.04495144E-04 -7.95689046E-04 -3.60547965E-05 -2.09005723E-04
  1.98327440E-05  4.41046094E-05  2.41488322E-06  1.94059744E-06  1.98799623E-05
 -2.10461720E-05 -6.49545627E-06 -1.15139060E-04 -1.06034598E-04  8.98921530E-10
  3.71918832E-05  5.53319104E-05 -3.73224685E-05 -4.71393585E-06 -3.43684797E-05
 -1.70716277E-05  7.17121130E-06  2.72481555E-05 -8.11309626E-05 -8.19739316E-06
 -2.43683426E-05 -6.50382147E-07 -2.96484153E-06  4.21720561E-07  8.42258451E-06
 -4.18794423E-06 -2.10783840E-05  1.30274332E-05 -1.58273020E-05  1.39371162E-05
 -3.28979200E-05  7.75064246E-06 -5.07893188E-05 -5.94491643E-06 -1.53282256E-04
  3.27101068E-05 -3.94009576E-05  6.96998555E-06  6.00787130E-04 -7.41428886E-04
  2.27335587E-06  1.04694026E-04  2.36135606E-04 -1.10000921E-04 -5.85540231E-05
  1.49606966E-05 -1.22487443E-04  1.10663248E-06 -5.35126745E-05  7.53535674E-04
  9.26632938E-06  2.30469919E-04  9.63914610E-06 -1.70387996E-03 -2.13332538E-04
 -1.76208043E-03  2.84914891E-05 -1.37322869E-04 -3.18130914E-04  5.56680370E-04
  4.10741158E-04  2.20242579E-04 -9.64975986E-05 -2.85980190E-04  6.76712694E-04