
    -----------------------------------------------------------------------
          Psi4: An Open-Source Ab Initio Electronic Structure Package
                               Psi4 1.3.2 release

                         Git: Rev {HEAD} ecbda83 


    R. M. Parrish, L. A. Burns, D. G. A. Smith, A. C. Simmonett,
    A. E. DePrince III, E. G. Hohenstein, U. Bozkaya, A. Yu. Sokolov,
    R. Di Remigio, R. M. Richard, J. F. Gonthier, A. M. James,
    H. R. McAlexander, A. Kumar, M. Saitow, X. Wang, B. P. Pritchard,
    P. Verma, H. F. Schaefer III, K. Patkowski, R. A. King, E. F. Valeev,
    F. A. Evangelista, J. M. Turney, T. D. Crawford, and C. D. Sherrill,
    J. Chem. Theory Comput. 13(7) pp 3185--3197 (2017).
    (doi: 10.1021/acs.jctc.7b00174)


                         Additional Contributions by
    P. Kraus, H. Kruse, M. H. Lechner, M. C. Schieber, R. A. Shaw,
    A. Alenaizan, R. Galvelis, Z. L. Glick, S. Lehtola, and J. P. Misiewicz

    -----------------------------------------------------------------------


    Psi4 started on: Wednesday, 03 February 2021 03:26AM

    Process ID: 2258375
    Host:       node57.bme.utexas.edu
    PSIDATADIR: /home/xy3866/psi4conda/share/psi4
    Memory:     500.0 MiB
    Threads:    8
    
  ==> Input File <==

--------------------------------------------------------------------------
#psi4
#
memory 32 gb

molecule  {
0 1
  S        1.1219089     0.0000019    -0.4770981
  O        1.4426300    -1.2834400    -1.0972280
  O        1.4426290     1.2834490    -1.0972210
  C        1.7922650    -0.0000010     1.1894320
  C       -0.6626530     0.0000010    -0.1634910
  C        3.3143010    -0.0000060     1.1103310
  C       -1.3293790     1.2205490    -0.0344210
  C       -1.3293780    -1.2205490    -0.0344260
  C       -2.6989260     1.2120350     0.2329170
  C       -2.6989250    -1.2120380     0.2329110
  C       -3.3803590    -0.0000020     0.3738520
  H        1.4045370     0.8911630     1.6920120
  H        1.4045310    -0.8911640     1.6920110
  H        3.7325860    -0.0000050     2.1196780
  H        3.6690290    -0.8877700     0.5832550
  H        3.6690340     0.8877530     0.5832510
  H       -0.7855660     2.1508460    -0.1756550
  H       -0.7855630    -2.1508450    -0.1756650
  H       -3.2357400     2.1525280     0.3278780
  H       -3.2357370    -2.1525330     0.3278690
  H       -4.4476770    -0.0000030     0.5806570
units angstrom
no_reorient  #important for SAPT in psi4, default
symmetry c1  #important for SAPT in psi4, default
}

set PROPERTIES_ORIGIN ["COM"]
properties('MP2/aug-cc-pvtz', properties = ['dipole'])
--------------------------------------------------------------------------

  Memory set to  29.802 GiB by Python driver.
    SCF Algorithm Type (re)set to DF.

*** tstart() called on node57.bme.utexas.edu
*** at Wed Feb  3 03:26:26 2021

   => Loading Basis Set <=

    Name: AUG-CC-PVTZ
    Role: ORBITAL
    Keyword: BASIS
    atoms 1     entry S          line   902 file /home/xy3866/psi4conda/share/psi4/basis/aug-cc-pvtz.gbs 
    atoms 2-3   entry O          line   327 file /home/xy3866/psi4conda/share/psi4/basis/aug-cc-pvtz.gbs 
    atoms 4-11  entry C          line   235 file /home/xy3866/psi4conda/share/psi4/basis/aug-cc-pvtz.gbs 
    atoms 12-21 entry H          line    36 file /home/xy3866/psi4conda/share/psi4/basis/aug-cc-pvtz.gbs 


         ---------------------------------------------------------
                                   SCF
               by Justin Turney, Rob Parrish, Andy Simmonett
                          and Daniel G. A. Smith
                              RHF Reference
                        8 Threads,  30517 MiB Core
         ---------------------------------------------------------

  ==> Geometry <==

    Molecular point group: c1
    Full point group: C1

    Geometry (in Angstrom), charge = 0, multiplicity = 1:

       Center              X                  Y                   Z               Mass       
    ------------   -----------------  -----------------  -----------------  -----------------
         S            1.124832439350     0.000001650257    -0.430908024463    31.972071174400
         O            1.445553539350    -1.283440249743    -1.051037924463    15.994914619570
         O            1.445552539350     1.283448750257    -1.051030924463    15.994914619570
         C            1.795188539350    -0.000001249743     1.235622075537    12.000000000000
         C           -0.659729460650     0.000000750257    -0.117300924463    12.000000000000
         C            3.317224539350    -0.000006249743     1.156521075537    12.000000000000
         C           -1.326455460650     1.220548750257     0.011769075537    12.000000000000
         C           -1.326454460650    -1.220549249743     0.011764075537    12.000000000000
         C           -2.696002460650     1.212034750257     0.279107075537    12.000000000000
         C           -2.696001460650    -1.212038249743     0.279101075537    12.000000000000
         C           -3.377435460650    -0.000002249743     0.420042075537    12.000000000000
         H            1.407460539350     0.891162750257     1.738202075537     1.007825032230
         H            1.407454539350    -0.891164249743     1.738201075537     1.007825032230
         H            3.735509539350    -0.000005249743     2.165868075537     1.007825032230
         H            3.671952539350    -0.887770249743     0.629445075537     1.007825032230
         H            3.671957539350     0.887752750257     0.629441075537     1.007825032230
         H           -0.782642460650     2.150845750257    -0.129464924463     1.007825032230
         H           -0.782639460650    -2.150845249743    -0.129474924463     1.007825032230
         H           -3.232816460650     2.152527750257     0.374068075537     1.007825032230
         H           -3.232813460650    -2.152533249743     0.374059075537     1.007825032230
         H           -4.444753460650    -0.000003249743     0.626847075537     1.007825032230

  Running in c1 symmetry.

  Rotational constants: A =      0.07101  B =      0.02065  C =      0.01937 [cm^-1]
  Rotational constants: A =   2128.71950  B =    619.05526  C =    580.84306 [MHz]
  Nuclear repulsion =  727.687463582207101

  Charge       = 0
  Multiplicity = 1
  Electrons    = 90
  Nalpha       = 45
  Nbeta        = 45

  ==> Algorithm <==

  SCF Algorithm Type is DF.
  DIIS enabled.
  MOM disabled.
  Fractional occupation disabled.
  Guess Type is SAD.
  Energy threshold   = 1.00e-10
  Density threshold  = 1.00e-10
  Integral threshold = 0.00e+00

  ==> Primary Basis <==

  Basis Set: AUG-CC-PVTZ
    Blend: AUG-CC-PVTZ
    Number of shells: 246
    Number of basis function: 740
    Number of Cartesian functions: 859
    Spherical Harmonics?: true
    Max angular momentum: 3

   => Loading Basis Set <=

    Name: (AUG-CC-PVTZ AUX)
    Role: JKFIT
    Keyword: DF_BASIS_SCF
    atoms 1     entry S          line   730 file /home/xy3866/psi4conda/share/psi4/basis/aug-cc-pvtz-jkfit.gbs 
    atoms 2-3   entry O          line   286 file /home/xy3866/psi4conda/share/psi4/basis/aug-cc-pvtz-jkfit.gbs 
    atoms 4-11  entry C          line   162 file /home/xy3866/psi4conda/share/psi4/basis/aug-cc-pvtz-jkfit.gbs 
    atoms 12-21 entry H          line    70 file /home/xy3866/psi4conda/share/psi4/basis/aug-cc-pvtz-jkfit.gbs 

  ==> Pre-Iterations <==

   -------------------------------------------------------
    Irrep   Nso     Nmo     Nalpha   Nbeta   Ndocc  Nsocc
   -------------------------------------------------------
     A        740     740       0       0       0       0
   -------------------------------------------------------
    Total     740     740      45      45      45       0
   -------------------------------------------------------

  ==> Integral Setup <==

  DFHelper Memory: AOs need 6.353 GiB; user supplied 22.352 GiB. Using in-core AOs.

  ==> MemDFJK: Density-Fitted J/K Matrices <==

    J tasked:                   Yes
    K tasked:                   Yes
    wK tasked:                   No
    OpenMP threads:               8
    Memory [MiB]:             22888
    Algorithm:                 Disk
    Schwarz Cutoff:           1E-12
    Mask sparsity (%):       7.8269
    Fitting Condition:        1E-10

   => Auxiliary Basis Set <=

  Basis Set: (AUG-CC-PVTZ AUX)
    Blend: AUG-CC-PVTZ-JKFIT
    Number of shells: 482
    Number of basis function: 1646
    Number of Cartesian functions: 2040
    Spherical Harmonics?: true
    Max angular momentum: 4

  Minimum eigenvalue in the overlap matrix is 5.4254877441E-07.
  Using Symmetric Orthogonalization.

  SCF Guess: Superposition of Atomic Densities via on-the-fly atomic UHF.

  ==> Iterations <==

                           Total Energy        Delta E     RMS |[F,P]|

   @DF-RHF iter SAD:  -855.95790908715105   -8.55958e+02   0.00000e+00 
   @DF-RHF iter   1:  -855.76184989598130    1.96059e-01   1.21415e-03 DIIS
   @DF-RHF iter   2:  -856.02732964519214   -2.65480e-01   7.81466e-04 DIIS
   @DF-RHF iter   3:  -856.15169347498761   -1.24364e-01   1.35800e-04 DIIS
   @DF-RHF iter   4:  -856.15701907899256   -5.32560e-03   5.33203e-05 DIIS
   @DF-RHF iter   5:  -856.15796516715034   -9.46088e-04   1.01049e-05 DIIS
   @DF-RHF iter   6:  -856.15801313520092   -4.79681e-05   3.78442e-06 DIIS
   @DF-RHF iter   7:  -856.15802261897511   -9.48377e-06   1.63819e-06 DIIS
   @DF-RHF iter   8:  -856.15802553323192   -2.91426e-06   8.84315e-07 DIIS
   @DF-RHF iter   9:  -856.15802672509028   -1.19186e-06   3.84910e-07 DIIS
   @DF-RHF iter  10:  -856.15802696894752   -2.43857e-07   1.07298e-07 DIIS
   @DF-RHF iter  11:  -856.15802698407185   -1.51243e-08   3.16334e-08 DIIS
   @DF-RHF iter  12:  -856.15802698480366   -7.31802e-10   1.02296e-08 DIIS
   @DF-RHF iter  13:  -856.15802698487187   -6.82121e-11   3.00580e-09 DIIS
   @DF-RHF iter  14:  -856.15802698488233   -1.04592e-11   8.53901e-10 DIIS
   @DF-RHF iter  15:  -856.15802698488164    6.82121e-13   2.33350e-10 DIIS
   @DF-RHF iter  16:  -856.15802698488005    1.59162e-12   8.48313e-11 DIIS
  Energy and wave function converged.


  ==> Post-Iterations <==

    Orbital Energies [Eh]
    ---------------------

    Doubly Occupied:                                                      

       1A    -92.178283     2A    -20.543108     3A    -20.543089  
       4A    -11.278207     5A    -11.277856     6A    -11.265895  
       7A    -11.265822     8A    -11.263498     9A    -11.258183  
      10A    -11.258040    11A    -11.238515    12A     -9.147713  
      13A     -6.832272    14A     -6.831821    15A     -6.831788  
      16A     -1.439886    17A     -1.332410    18A     -1.177810  
      19A     -1.084913    20A     -1.047170    21A     -1.039569  
      22A     -0.932676    23A     -0.858147    24A     -0.851323  
      25A     -0.795492    26A     -0.734287    27A     -0.686235  
      28A     -0.667541    29A     -0.657712    30A     -0.647266  
      31A     -0.636237    32A     -0.615280    33A     -0.612091  
      34A     -0.572299    35A     -0.550878    36A     -0.542630  
      37A     -0.527772    38A     -0.523561    39A     -0.519323  
      40A     -0.495955    41A     -0.484858    42A     -0.468574  
      43A     -0.429909    44A     -0.366007    45A     -0.359035  

    Virtual:                                                              

      46A      0.022728    47A      0.028092    48A      0.031097  
      49A      0.041241    50A      0.044678    51A      0.046206  
      52A      0.057386    53A      0.061071    54A      0.064462  
      55A      0.068509    56A      0.075683    57A      0.086066  
      58A      0.089270    59A      0.090191    60A      0.104370  
      61A      0.111046    62A      0.111462    63A      0.115732  
      64A      0.115891    65A      0.117294    66A      0.119883  
      67A      0.122654    68A      0.126958    69A      0.132365  
      70A      0.138398    71A      0.140035    72A      0.142479  
      73A      0.145359    74A      0.149694    75A      0.158408  
      76A      0.158858    77A      0.159828    78A      0.165746  
      79A      0.168424    80A      0.175533    81A      0.175687  
      82A      0.195623    83A      0.198817    84A      0.204863  
      85A      0.215189    86A      0.223635    87A      0.228670  
      88A      0.228821    89A      0.230271    90A      0.236597  
      91A      0.237627    92A      0.247128    93A      0.252348  
      94A      0.253161    95A      0.259402    96A      0.265089  
      97A      0.268496    98A      0.272527    99A      0.274621  
     100A      0.278118   101A      0.285391   102A      0.285798  
     103A      0.293192   104A      0.294606   105A      0.299720  
     106A      0.302976   107A      0.307872   108A      0.313288  
     109A      0.315541   110A      0.316748   111A      0.321918  
     112A      0.324310   113A      0.329801   114A      0.337351  
     115A      0.338580   116A      0.346999   117A      0.347524  
     118A      0.351982   119A      0.359608   120A      0.362778  
     121A      0.371916   122A      0.372208   123A      0.373251  
     124A      0.376318   125A      0.386518   126A      0.389242  
     127A      0.404750   128A      0.406554   129A      0.408044  
     130A      0.413022   131A      0.416692   132A      0.421017  
     133A      0.423933   134A      0.430198   135A      0.434532  
     136A      0.438838   137A      0.443093   138A      0.446383  
     139A      0.452204   140A      0.453958   141A      0.457151  
     142A      0.460366   143A      0.467305   144A      0.467912  
     145A      0.473949   146A      0.479958   147A      0.481877  
     148A      0.486712   149A      0.489549   150A      0.492497  
     151A      0.495887   152A      0.498873   153A      0.502035  
     154A      0.509280   155A      0.513834   156A      0.518021  
     157A      0.522429   158A      0.523869   159A      0.527344  
     160A      0.531050   161A      0.535800   162A      0.537811  
     163A      0.548763   164A      0.551854   165A      0.552268  
     166A      0.555264   167A      0.557241   168A      0.568177  
     169A      0.572294   170A      0.573487   171A      0.589622  
     172A      0.591522   173A      0.601352   174A      0.613443  
     175A      0.621225   176A      0.624284   177A      0.629111  
     178A      0.631022   179A      0.637513   180A      0.645207  
     181A      0.647117   182A      0.656044   183A      0.674407  
     184A      0.676411   185A      0.682869   186A      0.686471  
     187A      0.695580   188A      0.701758   189A      0.702557  
     190A      0.709144   191A      0.718621   192A      0.720765  
     193A      0.730455   194A      0.744145   195A      0.749555  
     196A      0.752339   197A      0.754107   198A      0.768728  
     199A      0.771493   200A      0.776286   201A      0.785675  
     202A      0.791395   203A      0.811281   204A      0.817845  
     205A      0.819987   206A      0.820762   207A      0.825769  
     208A      0.839276   209A      0.841418   210A      0.844562  
     211A      0.849828   212A      0.856033   213A      0.864830  
     214A      0.866927   215A      0.870208   216A      0.875519  
     217A      0.875693   218A      0.880442   219A      0.886564  
     220A      0.888359   221A      0.897585   222A      0.905127  
     223A      0.908055   224A      0.915955   225A      0.916274  
     226A      0.919351   227A      0.922777   228A      0.935189  
     229A      0.942087   230A      0.943705   231A      0.946707  
     232A      0.951676   233A      0.954151   234A      0.959323  
     235A      0.975390   236A      0.978470   237A      0.982631  
     238A      0.985998   239A      0.989726   240A      0.997624  
     241A      1.004299   242A      1.008584   243A      1.015048  
     244A      1.022417   245A      1.023084   246A      1.024880  
     247A      1.041401   248A      1.042470   249A      1.050561  
     250A      1.055078   251A      1.056950   252A      1.058933  
     253A      1.062644   254A      1.070227   255A      1.077439  
     256A      1.082029   257A      1.082646   258A      1.088407  
     259A      1.098523   260A      1.099916   261A      1.106217  
     262A      1.111776   263A      1.119161   264A      1.120496  
     265A      1.124463   266A      1.127770   267A      1.136836  
     268A      1.141749   269A      1.150570   270A      1.151558  
     271A      1.164153   272A      1.164648   273A      1.176408  
     274A      1.179452   275A      1.182740   276A      1.184295  
     277A      1.195554   278A      1.197630   279A      1.197645  
     280A      1.203165   281A      1.214790   282A      1.223167  
     283A      1.226948   284A      1.229005   285A      1.237513  
     286A      1.240241   287A      1.246002   288A      1.261219  
     289A      1.269032   290A      1.274521   291A      1.275591  
     292A      1.277651   293A      1.288771   294A      1.290421  
     295A      1.296965   296A      1.310103   297A      1.314993  
     298A      1.329001   299A      1.329254   300A      1.342305  
     301A      1.347691   302A      1.356728   303A      1.360071  
     304A      1.363872   305A      1.368689   306A      1.375938  
     307A      1.382736   308A      1.395229   309A      1.396612  
     310A      1.406635   311A      1.412977   312A      1.423585  
     313A      1.428380   314A      1.430810   315A      1.447819  
     316A      1.455476   317A      1.461945   318A      1.472022  
     319A      1.481004   320A      1.486563   321A      1.487556  
     322A      1.506754   323A      1.513548   324A      1.519429  
     325A      1.520013   326A      1.529466   327A      1.557099  
     328A      1.557625   329A      1.560903   330A      1.561290  
     331A      1.575831   332A      1.587478   333A      1.588010  
     334A      1.595887   335A      1.597513   336A      1.601165  
     337A      1.630445   338A      1.638034   339A      1.646310  
     340A      1.654818   341A      1.666468   342A      1.671972  
     343A      1.673944   344A      1.683102   345A      1.683704  
     346A      1.688228   347A      1.699667   348A      1.709618  
     349A      1.715829   350A      1.722543   351A      1.726972  
     352A      1.727224   353A      1.730600   354A      1.738263  
     355A      1.740274   356A      1.763202   357A      1.768969  
     358A      1.781310   359A      1.785111   360A      1.790969  
     361A      1.798753   362A      1.815634   363A      1.823510  
     364A      1.824373   365A      1.830352   366A      1.834046  
     367A      1.846940   368A      1.856219   369A      1.871908  
     370A      1.877416   371A      1.882653   372A      1.884658  
     373A      1.893453   374A      1.907771   375A      1.909382  
     376A      1.918001   377A      1.934062   378A      1.936214  
     379A      1.946754   380A      1.962623   381A      1.975498  
     382A      1.978436   383A      1.979217   384A      1.987497  
     385A      1.988203   386A      2.005419   387A      2.023712  
     388A      2.026706   389A      2.035475   390A      2.038562  
     391A      2.053688   392A      2.062796   393A      2.070552  
     394A      2.073623   395A      2.092689   396A      2.104378  
     397A      2.108289   398A      2.117970   399A      2.121759  
     400A      2.132046   401A      2.135165   402A      2.147473  
     403A      2.151690   404A      2.159693   405A      2.190866  
     406A      2.197407   407A      2.213015   408A      2.229910  
     409A      2.235082   410A      2.242908   411A      2.243725  
     412A      2.252755   413A      2.263234   414A      2.278143  
     415A      2.280530   416A      2.282747   417A      2.312152  
     418A      2.323886   419A      2.334107   420A      2.334968  
     421A      2.352184   422A      2.364464   423A      2.369268  
     424A      2.382309   425A      2.398708   426A      2.403979  
     427A      2.407125   428A      2.420568   429A      2.426413  
     430A      2.440827   431A      2.448532   432A      2.466812  
     433A      2.471578   434A      2.482636   435A      2.495961  
     436A      2.503778   437A      2.515432   438A      2.531043  
     439A      2.533388   440A      2.554776   441A      2.564549  
     442A      2.585348   443A      2.596993   444A      2.609610  
     445A      2.620072   446A      2.628856   447A      2.648672  
     448A      2.665280   449A      2.687887   450A      2.709460  
     451A      2.719537   452A      2.726631   453A      2.743549  
     454A      2.756866   455A      2.770501   456A      2.790046  
     457A      2.800221   458A      2.804006   459A      2.813610  
     460A      2.814116   461A      2.822350   462A      2.852281  
     463A      2.860534   464A      2.880424   465A      2.884617  
     466A      2.890791   467A      2.916795   468A      2.934478  
     469A      2.949733   470A      2.978958   471A      2.980086  
     472A      3.004273   473A      3.043301   474A      3.050536  
     475A      3.053194   476A      3.088082   477A      3.104324  
     478A      3.116500   479A      3.169232   480A      3.171811  
     481A      3.196173   482A      3.199048   483A      3.237964  
     484A      3.246540   485A      3.274427   486A      3.279959  
     487A      3.303705   488A      3.318746   489A      3.345808  
     490A      3.362597   491A      3.365575   492A      3.388311  
     493A      3.398863   494A      3.403491   495A      3.408734  
     496A      3.415885   497A      3.426116   498A      3.440691  
     499A      3.453557   500A      3.466684   501A      3.475373  
     502A      3.484874   503A      3.485336   504A      3.499276  
     505A      3.511524   506A      3.525217   507A      3.537197  
     508A      3.540133   509A      3.544119   510A      3.557265  
     511A      3.564504   512A      3.590131   513A      3.592083  
     514A      3.600626   515A      3.611799   516A      3.621189  
     517A      3.629147   518A      3.650177   519A      3.662767  
     520A      3.666478   521A      3.674475   522A      3.691424  
     523A      3.706628   524A      3.716985   525A      3.717972  
     526A      3.732658   527A      3.741212   528A      3.763775  
     529A      3.763998   530A      3.773635   531A      3.786062  
     532A      3.799671   533A      3.829969   534A      3.830544  
     535A      3.839862   536A      3.845979   537A      3.855530  
     538A      3.865103   539A      3.866768   540A      3.882343  
     541A      3.893564   542A      3.902837   543A      3.904285  
     544A      3.910789   545A      3.920148   546A      3.935525  
     547A      3.946409   548A      3.955296   549A      3.968073  
     550A      3.976734   551A      3.977160   552A      3.983848  
     553A      3.995917   554A      4.004721   555A      4.018818  
     556A      4.034409   557A      4.043056   558A      4.050060  
     559A      4.056594   560A      4.063109   561A      4.065353  
     562A      4.104026   563A      4.112443   564A      4.117088  
     565A      4.129675   566A      4.130125   567A      4.155572  
     568A      4.156677   569A      4.189057   570A      4.205864  
     571A      4.212296   572A      4.217806   573A      4.226093  
     574A      4.233113   575A      4.245972   576A      4.250704  
     577A      4.259882   578A      4.271454   579A      4.272300  
     580A      4.289548   581A      4.298791   582A      4.302138  
     583A      4.310946   584A      4.341454   585A      4.350940  
     586A      4.365207   587A      4.394616   588A      4.395343  
     589A      4.416380   590A      4.418295   591A      4.425849  
     592A      4.431300   593A      4.443074   594A      4.453678  
     595A      4.458567   596A      4.468810   597A      4.490890  
     598A      4.491570   599A      4.523272   600A      4.530986  
     601A      4.563116   602A      4.565802   603A      4.577843  
     604A      4.583949   605A      4.621263   606A      4.625180  
     607A      4.649993   608A      4.659716   609A      4.683154  
     610A      4.703336   611A      4.707070   612A      4.721583  
     613A      4.728435   614A      4.748204   615A      4.749626  
     616A      4.780545   617A      4.806634   618A      4.816090  
     619A      4.837307   620A      4.858875   621A      4.864824  
     622A      4.872801   623A      4.892904   624A      4.897727  
     625A      4.922412   626A      4.943909   627A      4.945597  
     628A      4.948934   629A      4.963044   630A      4.993688  
     631A      4.999332   632A      5.005148   633A      5.018583  
     634A      5.052098   635A      5.065973   636A      5.076395  
     637A      5.089718   638A      5.090013   639A      5.122253  
     640A      5.122672   641A      5.143948   642A      5.144653  
     643A      5.147712   644A      5.162522   645A      5.167999  
     646A      5.185729   647A      5.199082   648A      5.201028  
     649A      5.236592   650A      5.237432   651A      5.257900  
     652A      5.258328   653A      5.284916   654A      5.301379  
     655A      5.307323   656A      5.322952   657A      5.330395  
     658A      5.348239   659A      5.364253   660A      5.373019  
     661A      5.380182   662A      5.405423   663A      5.407656  
     664A      5.463922   665A      5.482548   666A      5.490440  
     667A      5.518333   668A      5.567535   669A      5.596479  
     670A      5.602082   671A      5.619584   672A      5.694828  
     673A      5.739443   674A      5.754886   675A      5.756426  
     676A      5.763455   677A      5.779692   678A      5.820487  
     679A      5.896692   680A      5.958810   681A      5.977181  
     682A      6.008625   683A      6.044751   684A      6.052285  
     685A      6.063370   686A      6.137953   687A      6.159174  
     688A      6.166183   689A      6.186079   690A      6.208703  
     691A      6.240997   692A      6.271440   693A      6.306068  
     694A      6.338431   695A      6.400128   696A      6.468245  
     697A      6.568771   698A      6.700854   699A      6.719831  
     700A      6.742461   701A      6.781072   702A      6.785319  
     703A      6.800051   704A      6.854704   705A      6.859921  
     706A      6.875627   707A      6.920740   708A      6.955138  
     709A      6.975402   710A      6.975916   711A      7.012280  
     712A      7.015482   713A      7.056047   714A      7.077295  
     715A      7.100686   716A      7.101115   717A      7.107912  
     718A      7.167574   719A      7.257342   720A      7.379145  
     721A      7.383613   722A      7.386959   723A      7.459096  
     724A      7.641431   725A      7.732505   726A      7.764923  
     727A      7.825437   728A      7.831217   729A      7.853495  
     730A     12.746844   731A     13.589457   732A     14.058573  
     733A     15.949024   734A     16.113697   735A     17.535063  
     736A     18.286209   737A     18.490858   738A     19.435217  
     739A     19.568671   740A     19.954940  

    Final Occupation by Irrep:
              A 
    DOCC [    45 ]

  @DF-RHF Final Energy:  -856.15802698488005

   => Energetics <=

    Nuclear Repulsion Energy =            727.6874635822071014
    One-Electron Energy =               -2618.3491091060714098
    Two-Electron Energy =                1034.5036185389842558
    Total Energy =                       -856.1580269848800526

Computation Completed

*** tstop() called on node57.bme.utexas.edu at Wed Feb  3 03:28:21 2021
Module time:
	user time   =     440.43 seconds =       7.34 minutes
	system time =      62.44 seconds =       1.04 minutes
	total time  =        115 seconds =       1.92 minutes
Total time:
	user time   =     440.43 seconds =       7.34 minutes
	system time =      62.44 seconds =       1.04 minutes
	total time  =        115 seconds =       1.92 minutes
   => Loading Basis Set <=

    Name: (AUG-CC-PVTZ AUX)
    Role: RIFIT
    Keyword: DF_BASIS_MP2
    atoms 1     entry S          line   666 file /home/xy3866/psi4conda/share/psi4/basis/aug-cc-pvtz-ri.gbs 
    atoms 2-3   entry O          line   264 file /home/xy3866/psi4conda/share/psi4/basis/aug-cc-pvtz-ri.gbs 
    atoms 4-11  entry C          line   148 file /home/xy3866/psi4conda/share/psi4/basis/aug-cc-pvtz-ri.gbs 
    atoms 12-21 entry H          line    30 file /home/xy3866/psi4conda/share/psi4/basis/aug-cc-pvtz-ri.gbs 


*** tstart() called on node57.bme.utexas.edu
*** at Wed Feb  3 03:28:22 2021


  //>>>>>>>>>>>>>>>>>>>>>>>>>>>>>>>>>>>//
  //               DFMP2               //
  //<<<<<<<<<<<<<<<<<<<<<<<<<<<<<<<<<<<//

	 --------------------------------------------------------
	                          DF-MP2                         
	      2nd-Order Density-Fitted Moller-Plesset Theory     
	              RMP2 Wavefunction,   8 Threads             
	                                                         
	        Rob Parrish, Justin Turney, Andy Simmonett,      
	           Ed Hohenstein, and C. David Sherrill          
	 --------------------------------------------------------

   => Auxiliary Basis Set <=

  Basis Set: (AUG-CC-PVTZ AUX)
    Blend: AUG-CC-PVTZ-RI
    Number of shells: 457
    Number of basis function: 1667
    Number of Cartesian functions: 2101
    Spherical Harmonics?: true
    Max angular momentum: 4

	 --------------------------------------------------------
	                 NBF =   740, NAUX =  1667
	 --------------------------------------------------------
	   CLASS    FOCC     OCC    AOCC    AVIR     VIR    FVIR
	   PAIRS       0      45      45     695     695       0
	 --------------------------------------------------------

  DFHelper Memory: AOs need 6.353 GiB; user supplied 22.352 GiB. Using in-core AOs.


         ------------------------------------------------------------
                                     CPHF                           
                                  Rob Parrish                       
         ------------------------------------------------------------

  ==> Geometry <==

    Molecular point group: c1
    Full point group: C1

    Geometry (in Angstrom), charge = 0, multiplicity = 1:

       Center              X                  Y                   Z               Mass       
    ------------   -----------------  -----------------  -----------------  -----------------
         S            1.124832439350     0.000001650257    -0.430908024463    31.972071174400
         O            1.445553539350    -1.283440249743    -1.051037924463    15.994914619570
         O            1.445552539350     1.283448750257    -1.051030924463    15.994914619570
         C            1.795188539350    -0.000001249743     1.235622075537    12.000000000000
         C           -0.659729460650     0.000000750257    -0.117300924463    12.000000000000
         C            3.317224539350    -0.000006249743     1.156521075537    12.000000000000
         C           -1.326455460650     1.220548750257     0.011769075537    12.000000000000
         C           -1.326454460650    -1.220549249743     0.011764075537    12.000000000000
         C           -2.696002460650     1.212034750257     0.279107075537    12.000000000000
         C           -2.696001460650    -1.212038249743     0.279101075537    12.000000000000
         C           -3.377435460650    -0.000002249743     0.420042075537    12.000000000000
         H            1.407460539350     0.891162750257     1.738202075537     1.007825032230
         H            1.407454539350    -0.891164249743     1.738201075537     1.007825032230
         H            3.735509539350    -0.000005249743     2.165868075537     1.007825032230
         H            3.671952539350    -0.887770249743     0.629445075537     1.007825032230
         H            3.671957539350     0.887752750257     0.629441075537     1.007825032230
         H           -0.782642460650     2.150845750257    -0.129464924463     1.007825032230
         H           -0.782639460650    -2.150845249743    -0.129474924463     1.007825032230
         H           -3.232816460650     2.152527750257     0.374068075537     1.007825032230
         H           -3.232813460650    -2.152533249743     0.374059075537     1.007825032230
         H           -4.444753460650    -0.000003249743     0.626847075537     1.007825032230

  Nuclear repulsion =  727.687463582207101
  Reference energy  = -856.158026984880053

  ==> Basis Set <==

  Basis Set: AUG-CC-PVTZ
    Blend: AUG-CC-PVTZ
    Number of shells: 246
    Number of basis function: 740
    Number of Cartesian functions: 859
    Spherical Harmonics?: true
    Max angular momentum: 3

  ==> CGRSolver (by Rob Parrish) <==

   Number of roots    =         1
   Preconditioning    =    JACOBI
   Convergence cutoff =     1E-06
   Maximum iterations =       100

  ==> CPHFRHamiltonian (by Rob Parrish) <== 

  ==> MemDFJK: Density-Fitted J/K Matrices <==

    J tasked:                   Yes
    K tasked:                   Yes
    wK tasked:                   No
    OpenMP threads:               8
    Memory [MiB]:             22888
    Algorithm:                 Disk
    Schwarz Cutoff:           1E-12
    Mask sparsity (%):       7.8269
    Fitting Condition:        1E-10

   => Auxiliary Basis Set <=

  Basis Set: (AUG-CC-PVTZ AUX)
    Blend: AUG-CC-PVTZ-JKFIT
    Number of shells: 482
    Number of basis function: 1646
    Number of Cartesian functions: 2040
    Spherical Harmonics?: true
    Max angular momentum: 4

  ==> CPHF Iterations <==

  => Iterations <=

             Iter  Converged  Remaining    Residual
  CGR           1          0          1   1.116E-01
  CGR           2          0          1   3.075E-02
  CGR           3          0          1   1.463E-02
  CGR           4          0          1   6.654E-03
  CGR           5          0          1   3.055E-03
  CGR           6          0          1   1.501E-03
  CGR           7          0          1   5.198E-04
  CGR           8          0          1   1.746E-04
  CGR           9          0          1   4.808E-05
  CGR          10          0          1   1.475E-05
  CGR          11          0          1   4.762E-06
  CGR          12          0          1   1.154E-06
  CGR          13          1          0   4.003E-07

    CGRSolver converged.

	-----------------------------------------------------------
	 ==================> DF-MP2 Energies <==================== 
	-----------------------------------------------------------
	 Reference Energy          =    -856.1580269848800526 [Eh]
	 Singles Energy            =      -0.0000000000000000 [Eh]
	 Same-Spin Energy          =      -0.5486096429598348 [Eh]
	 Opposite-Spin Energy      =      -1.6746711203441496 [Eh]
	 Correlation Energy        =      -2.2232807633039844 [Eh]
	 Total Energy              =    -858.3813077481839855 [Eh]
	-----------------------------------------------------------
	 ================> DF-SCS-MP2 Energies <================== 
	-----------------------------------------------------------
	 SCS Same-Spin Scale       =       0.3333333333333333 [-]
	 SCS Opposite-Spin Scale   =       1.2000000000000000 [-]
	 SCS Same-Spin Energy      =      -0.1828698809866116 [Eh]
	 SCS Opposite-Spin Energy  =      -2.0096053444129796 [Eh]
	 SCS Correlation Energy    =      -2.1924752253995914 [Eh]
	 SCS Total Energy          =    -858.3505022102796147 [Eh]
	-----------------------------------------------------------



Properties will be evaluated at  -0.000000,  -0.000000,   0.000000 [a0]

Properties computed using the MP2 density matrix

  Nuclear Dipole Moment: [e a0]
     X:     1.3735      Y:    -0.0000      Z:     7.4944

  Electronic Dipole Moment: [e a0]
     X:    -2.2956      Y:     0.0000      Z:    -5.9101

  Dipole Moment: [e a0]
     X:    -0.9220      Y:    -0.0000      Z:     1.5843     Total:     1.8331

  Dipole Moment: [D]
     X:    -2.3436      Y:    -0.0000      Z:     4.0270     Total:     4.6593


*** tstop() called on node57.bme.utexas.edu at Wed Feb  3 03:33:12 2021
Module time:
	user time   =    1593.35 seconds =      26.56 minutes
	system time =     119.11 seconds =       1.99 minutes
	total time  =        290 seconds =       4.83 minutes
Total time:
	user time   =    2033.97 seconds =      33.90 minutes
	system time =     181.55 seconds =       3.03 minutes
	total time  =        406 seconds =       6.77 minutes

    Psi4 stopped on: Wednesday, 03 February 2021 03:33AM
    Psi4 wall time for execution: 0:06:45.86

*** Psi4 exiting successfully. Buy a developer a beer!
