
    -----------------------------------------------------------------------
          Psi4: An Open-Source Ab Initio Electronic Structure Package
                               Psi4 1.3.2 release

                         Git: Rev {HEAD} ecbda83 


    R. M. Parrish, L. A. Burns, D. G. A. Smith, A. C. Simmonett,
    A. E. DePrince III, E. G. Hohenstein, U. Bozkaya, A. Yu. Sokolov,
    R. Di Remigio, R. M. Richard, J. F. Gonthier, A. M. James,
    H. R. McAlexander, A. Kumar, M. Saitow, X. Wang, B. P. Pritchard,
    P. Verma, H. F. Schaefer III, K. Patkowski, R. A. King, E. F. Valeev,
    F. A. Evangelista, J. M. Turney, T. D. Crawford, and C. D. Sherrill,
    J. Chem. Theory Comput. 13(7) pp 3185--3197 (2017).
    (doi: 10.1021/acs.jctc.7b00174)


                         Additional Contributions by
    P. Kraus, H. Kruse, M. H. Lechner, M. C. Schieber, R. A. Shaw,
    A. Alenaizan, R. Galvelis, Z. L. Glick, S. Lehtola, and J. P. Misiewicz

    -----------------------------------------------------------------------


    Psi4 started on: Monday, 02 November 2020 03:09PM

    Process ID: 9591
    Host:       node37.bme.utexas.edu
    PSIDATADIR: /home/xy3866/psi4conda/share/psi4
    Memory:     500.0 MiB
    Threads:    8
    
  ==> Input File <==

--------------------------------------------------------------------------
#psi4
#
memory 32 gb

molecule  {
0 1
  O       -1.4344650     1.0675660     0.2191520
  O        1.4425540    -1.0727980    -0.0074420
  O        1.2409190     1.1848430    -0.0695910
  C       -0.7273960    -0.1479950     0.3622400
  C       -1.3608000    -1.1844980    -0.5490290
  C        0.6418609     0.0657607     0.0796501
  H       -0.7692630    -0.5063940     1.4052130
  H       -1.2645370    -0.8668950    -1.5888250
  H       -2.4222350    -1.2600450    -0.3075440
  H       -0.8906180    -2.1601930    -0.4204410
  H       -0.7794970     1.7838810     0.3439450
  H        2.3720270    -0.8088230    -0.1742930
units angstrom
no_reorient  #important for SAPT in psi4, default
symmetry c1  #important for SAPT in psi4, default
}

set PROPERTIES_ORIGIN ["COM"]
properties('MP2/aug-cc-pvtz', properties = ['dipole'])
--------------------------------------------------------------------------

  Memory set to  29.802 GiB by Python driver.
    SCF Algorithm Type (re)set to DF.

*** tstart() called on node37.bme.utexas.edu
*** at Mon Nov  2 15:09:31 2020

   => Loading Basis Set <=

    Name: AUG-CC-PVTZ
    Role: ORBITAL
    Keyword: BASIS
    atoms 1-3  entry O          line   327 file /home/xy3866/psi4conda/share/psi4/basis/aug-cc-pvtz.gbs 
    atoms 4-6  entry C          line   235 file /home/xy3866/psi4conda/share/psi4/basis/aug-cc-pvtz.gbs 
    atoms 7-12 entry H          line    36 file /home/xy3866/psi4conda/share/psi4/basis/aug-cc-pvtz.gbs 


         ---------------------------------------------------------
                                   SCF
               by Justin Turney, Rob Parrish, Andy Simmonett
                          and Daniel G. A. Smith
                              RHF Reference
                        8 Threads,  30517 MiB Core
         ---------------------------------------------------------

  ==> Geometry <==

    Molecular point group: c1
    Full point group: C1

    Geometry (in Angstrom), charge = 0, multiplicity = 1:

       Center              X                  Y                   Z               Mass       
    ------------   -----------------  -----------------  -----------------  -----------------
         O           -1.421561277299     1.069580390772     0.216488896414    15.994914619570
         O            1.455457722701    -1.070783609228    -0.010105103586    15.994914619570
         O            1.253822722701     1.186857390772    -0.072254103586    15.994914619570
         C           -0.714492277299    -0.145980609228     0.359576896414    12.000000000000
         C           -1.347896277299    -1.182483609228    -0.551692103586    12.000000000000
         C            0.654764622701     0.067775090772     0.076986996414    12.000000000000
         H           -0.756359277299    -0.504379609228     1.402549896414     1.007825032230
         H           -1.251633277299    -0.864880609228    -1.591488103586     1.007825032230
         H           -2.409331277299    -1.258030609228    -0.310207103586     1.007825032230
         H           -0.877714277299    -2.158178609228    -0.423104103586     1.007825032230
         H           -0.766593277299     1.785895390772     0.341281896414     1.007825032230
         H            2.384930722701    -0.806808609228    -0.176956103586     1.007825032230

  Running in c1 symmetry.

  Rotational constants: A =      0.17122  B =      0.11342  C =      0.07362 [cm^-1]
  Rotational constants: A =   5133.07819  B =   3400.18599  C =   2207.16030 [MHz]
  Nuclear repulsion =  249.770759510160758

  Charge       = 0
  Multiplicity = 1
  Electrons    = 48
  Nalpha       = 24
  Nbeta        = 24

  ==> Algorithm <==

  SCF Algorithm Type is DF.
  DIIS enabled.
  MOM disabled.
  Fractional occupation disabled.
  Guess Type is SAD.
  Energy threshold   = 1.00e-10
  Density threshold  = 1.00e-10
  Integral threshold = 0.00e+00

  ==> Primary Basis <==

  Basis Set: AUG-CC-PVTZ
    Blend: AUG-CC-PVTZ
    Number of shells: 138
    Number of basis function: 414
    Number of Cartesian functions: 480
    Spherical Harmonics?: true
    Max angular momentum: 3

   => Loading Basis Set <=

    Name: (AUG-CC-PVTZ AUX)
    Role: JKFIT
    Keyword: DF_BASIS_SCF
    atoms 1-3  entry O          line   286 file /home/xy3866/psi4conda/share/psi4/basis/aug-cc-pvtz-jkfit.gbs 
    atoms 4-6  entry C          line   162 file /home/xy3866/psi4conda/share/psi4/basis/aug-cc-pvtz-jkfit.gbs 
    atoms 7-12 entry H          line    70 file /home/xy3866/psi4conda/share/psi4/basis/aug-cc-pvtz-jkfit.gbs 

  ==> Pre-Iterations <==

   -------------------------------------------------------
    Irrep   Nso     Nmo     Nalpha   Nbeta   Ndocc  Nsocc
   -------------------------------------------------------
     A        414     414       0       0       0       0
   -------------------------------------------------------
    Total     414     414      24      24      24       0
   -------------------------------------------------------

  ==> Integral Setup <==

  DFHelper Memory: AOs need 1.182 GiB; user supplied 22.352 GiB. Using in-core AOs.

  ==> MemDFJK: Density-Fitted J/K Matrices <==

    J tasked:                   Yes
    K tasked:                   Yes
    wK tasked:                   No
    OpenMP threads:               8
    Memory [MiB]:             22888
    Algorithm:                 Core
    Schwarz Cutoff:           1E-12
    Mask sparsity (%):       1.5683
    Fitting Condition:        1E-10

   => Auxiliary Basis Set <=

  Basis Set: (AUG-CC-PVTZ AUX)
    Blend: AUG-CC-PVTZ-JKFIT
    Number of shells: 264
    Number of basis function: 900
    Number of Cartesian functions: 1116
    Spherical Harmonics?: true
    Max angular momentum: 4

  Minimum eigenvalue in the overlap matrix is 7.9326510241E-06.
  Using Symmetric Orthogonalization.

  SCF Guess: Superposition of Atomic Densities via on-the-fly atomic UHF.

  ==> Iterations <==

                           Total Energy        Delta E     RMS |[F,P]|

   @DF-RHF iter SAD:  -340.79179886981086   -3.40792e+02   0.00000e+00 
   @DF-RHF iter   1:  -341.58973229496320   -7.97933e-01   1.69951e-03 DIIS
   @DF-RHF iter   2:  -341.74704125573794   -1.57309e-01   1.06526e-03 DIIS
   @DF-RHF iter   3:  -341.81081632617639   -6.37751e-02   1.80084e-04 DIIS
   @DF-RHF iter   4:  -341.81407106879124   -3.25474e-03   8.50761e-05 DIIS
   @DF-RHF iter   5:  -341.81476077056448   -6.89702e-04   1.99239e-05 DIIS
   @DF-RHF iter   6:  -341.81482362023593   -6.28497e-05   9.29591e-06 DIIS
   @DF-RHF iter   7:  -341.81483864634669   -1.50261e-05   3.28772e-06 DIIS
   @DF-RHF iter   8:  -341.81484184628420   -3.19994e-06   1.31927e-06 DIIS
   @DF-RHF iter   9:  -341.81484232648131   -4.80197e-07   3.98030e-07 DIIS
   @DF-RHF iter  10:  -341.81484237137624   -4.48949e-08   1.28027e-07 DIIS
   @DF-RHF iter  11:  -341.81484237498188   -3.60563e-09   3.97791e-08 DIIS
   @DF-RHF iter  12:  -341.81484237525223   -2.70347e-10   1.31463e-08 DIIS
   @DF-RHF iter  13:  -341.81484237527809   -2.58638e-11   4.82259e-09 DIIS
   @DF-RHF iter  14:  -341.81484237528099   -2.89901e-12   1.53943e-09 DIIS
   @DF-RHF iter  15:  -341.81484237528235   -1.36424e-12   5.04341e-10 DIIS
   @DF-RHF iter  16:  -341.81484237528150    8.52651e-13   2.42669e-10 DIIS
   @DF-RHF iter  17:  -341.81484237528184   -3.41061e-13   1.05888e-10 DIIS
   @DF-RHF iter  18:  -341.81484237528139    4.54747e-13   4.82616e-11 DIIS
  Energy and wave function converged.


  ==> Post-Iterations <==

    Orbital Energies [Eh]
    ---------------------

    Doubly Occupied:                                                      

       1A    -20.625179     2A    -20.573330     3A    -20.567134  
       4A    -11.412937     5A    -11.315223     6A    -11.239512  
       7A     -1.454617     8A     -1.385386     9A     -1.335427  
      10A     -1.078636    11A     -0.938478    12A     -0.810389  
      13A     -0.740812    14A     -0.716085    15A     -0.693256  
      16A     -0.628243    17A     -0.606040    18A     -0.584920  
      19A     -0.567101    20A     -0.548395    21A     -0.537768  
      22A     -0.483495    23A     -0.474717    24A     -0.464949  

    Virtual:                                                              

      25A      0.026440    26A      0.035931    27A      0.039578  
      28A      0.046033    29A      0.057468    30A      0.062716  
      31A      0.086398    32A      0.094656    33A      0.102141  
      34A      0.112452    35A      0.114306    36A      0.122992  
      37A      0.127673    38A      0.139658    39A      0.144500  
      40A      0.146945    41A      0.151949    42A      0.168531  
      43A      0.171938    44A      0.182941    45A      0.192955  
      46A      0.199284    47A      0.202216    48A      0.235424  
      49A      0.240203    50A      0.244277    51A      0.249444  
      52A      0.251136    53A      0.260058    54A      0.270143  
      55A      0.272056    56A      0.283782    57A      0.307265  
      58A      0.318924    59A      0.327532    60A      0.332816  
      61A      0.336554    62A      0.348764    63A      0.349176  
      64A      0.356517    65A      0.361202    66A      0.367945  
      67A      0.371685    68A      0.376318    69A      0.384908  
      70A      0.397271    71A      0.408238    72A      0.416717  
      73A      0.430505    74A      0.432146    75A      0.436758  
      76A      0.453356    77A      0.459718    78A      0.462631  
      79A      0.467705    80A      0.478415    81A      0.485100  
      82A      0.492200    83A      0.500099    84A      0.503249  
      85A      0.511417    86A      0.523876    87A      0.528414  
      88A      0.540947    89A      0.553274    90A      0.565850  
      91A      0.579145    92A      0.591780    93A      0.598600  
      94A      0.610614    95A      0.638553    96A      0.643047  
      97A      0.651955    98A      0.663692    99A      0.684173  
     100A      0.697507   101A      0.716167   102A      0.740921  
     103A      0.748273   104A      0.755480   105A      0.770401  
     106A      0.778659   107A      0.791366   108A      0.809039  
     109A      0.813681   110A      0.820094   111A      0.823160  
     112A      0.834070   113A      0.844888   114A      0.853893  
     115A      0.856816   116A      0.866444   117A      0.891253  
     118A      0.894755   119A      0.905262   120A      0.915770  
     121A      0.922388   122A      0.932669   123A      0.937803  
     124A      0.947242   125A      0.959416   126A      0.971536  
     127A      0.976090   128A      0.985938   129A      0.991197  
     130A      1.000892   131A      1.019908   132A      1.033740  
     133A      1.037915   134A      1.044100   135A      1.056945  
     136A      1.066844   137A      1.074812   138A      1.083949  
     139A      1.096385   140A      1.107137   141A      1.118093  
     142A      1.128788   143A      1.140747   144A      1.146803  
     145A      1.160115   146A      1.173502   147A      1.192365  
     148A      1.202203   149A      1.226643   150A      1.233404  
     151A      1.237811   152A      1.257560   153A      1.263077  
     154A      1.275541   155A      1.283173   156A      1.299915  
     157A      1.329200   158A      1.334897   159A      1.345799  
     160A      1.351566   161A      1.359335   162A      1.390351  
     163A      1.392683   164A      1.404348   165A      1.428793  
     166A      1.441435   167A      1.442051   168A      1.448734  
     169A      1.480422   170A      1.483404   171A      1.510482  
     172A      1.529155   173A      1.532071   174A      1.544455  
     175A      1.558307   176A      1.569127   177A      1.576465  
     178A      1.598483   179A      1.619790   180A      1.628275  
     181A      1.640934   182A      1.660930   183A      1.677983  
     184A      1.685202   185A      1.697217   186A      1.714327  
     187A      1.721286   188A      1.736315   189A      1.752594  
     190A      1.770970   191A      1.774708   192A      1.791147  
     193A      1.804202   194A      1.817408   195A      1.827477  
     196A      1.846199   197A      1.866716   198A      1.882338  
     199A      1.891818   200A      1.905453   201A      1.919117  
     202A      1.936799   203A      1.961546   204A      1.969858  
     205A      1.979571   206A      2.001523   207A      2.037376  
     208A      2.050693   209A      2.100810   210A      2.112281  
     211A      2.149685   212A      2.168360   213A      2.176726  
     214A      2.211779   215A      2.231446   216A      2.256794  
     217A      2.264662   218A      2.272942   219A      2.311666  
     220A      2.325223   221A      2.328270   222A      2.337995  
     223A      2.383073   224A      2.403253   225A      2.418042  
     226A      2.443998   227A      2.469989   228A      2.487570  
     229A      2.505346   230A      2.550699   231A      2.566661  
     232A      2.574570   233A      2.595480   234A      2.616622  
     235A      2.634017   236A      2.644309   237A      2.663645  
     238A      2.689170   239A      2.706790   240A      2.760920  
     241A      2.766780   242A      2.780691   243A      2.812133  
     244A      2.821612   245A      2.837625   246A      2.874279  
     247A      2.908166   248A      2.924146   249A      2.941090  
     250A      2.979543   251A      2.996678   252A      3.011986  
     253A      3.014464   254A      3.034434   255A      3.074551  
     256A      3.097439   257A      3.136182   258A      3.155585  
     259A      3.201913   260A      3.228657   261A      3.281649  
     262A      3.293129   263A      3.332875   264A      3.355065  
     265A      3.379901   266A      3.413961   267A      3.444991  
     268A      3.468606   269A      3.512772   270A      3.551132  
     271A      3.556817   272A      3.593341   273A      3.624740  
     274A      3.637603   275A      3.667968   276A      3.669761  
     277A      3.681049   278A      3.700608   279A      3.726257  
     280A      3.738720   281A      3.776672   282A      3.809788  
     283A      3.853088   284A      3.867784   285A      3.888445  
     286A      3.909461   287A      3.946299   288A      3.962401  
     289A      3.967223   290A      3.984592   291A      4.023981  
     292A      4.039196   293A      4.061428   294A      4.092592  
     295A      4.097949   296A      4.127497   297A      4.131694  
     298A      4.140029   299A      4.170913   300A      4.201172  
     301A      4.221729   302A      4.234641   303A      4.248033  
     304A      4.274175   305A      4.319083   306A      4.336617  
     307A      4.345468   308A      4.383877   309A      4.404601  
     310A      4.435147   311A      4.446352   312A      4.464347  
     313A      4.491542   314A      4.518639   315A      4.542154  
     316A      4.606029   317A      4.620481   318A      4.648181  
     319A      4.671349   320A      4.701520   321A      4.729466  
     322A      4.735358   323A      4.755106   324A      4.777549  
     325A      4.826701   326A      4.837550   327A      4.858755  
     328A      4.877455   329A      4.903009   330A      4.937575  
     331A      4.989596   332A      4.993156   333A      5.023003  
     334A      5.059377   335A      5.092324   336A      5.118669  
     337A      5.121762   338A      5.151588   339A      5.173412  
     340A      5.190352   341A      5.234994   342A      5.282776  
     343A      5.289753   344A      5.326407   345A      5.344986  
     346A      5.413759   347A      5.421448   348A      5.431922  
     349A      5.466847   350A      5.508155   351A      5.532052  
     352A      5.565014   353A      5.589104   354A      5.659233  
     355A      5.712720   356A      5.755700   357A      5.784102  
     358A      5.815523   359A      5.896098   360A      5.905155  
     361A      6.078356   362A      6.138529   363A      6.159820  
     364A      6.194785   365A      6.223254   366A      6.248225  
     367A      6.387007   368A      6.578605   369A      6.598247  
     370A      6.691045   371A      6.722280   372A      6.784494  
     373A      6.801792   374A      6.821403   375A      6.843751  
     376A      6.867712   377A      6.900304   378A      6.957834  
     379A      6.972671   380A      7.016176   381A      7.057689  
     382A      7.114964   383A      7.162775   384A      7.218017  
     385A      7.252857   386A      7.291558   387A      7.308384  
     388A      7.328825   389A      7.365114   390A      7.372630  
     391A      7.412670   392A      7.471063   393A      7.512408  
     394A      7.531994   395A      7.556462   396A      7.612962  
     397A      7.644399   398A      7.680488   399A      7.719982  
     400A      7.811426   401A      7.868892   402A      7.998502  
     403A      8.021596   404A      8.076661   405A      8.166798  
     406A      8.331399   407A      8.479286   408A      8.599852  
     409A     14.769809   410A     15.192452   411A     16.208748  
     412A     17.548780   413A     18.362256   414A     19.766325  

    Final Occupation by Irrep:
              A 
    DOCC [    24 ]

  @DF-RHF Final Energy:  -341.81484237528139

   => Energetics <=

    Nuclear Repulsion Energy =            249.7707595101607581
    One-Electron Energy =                -963.6071435894970136
    Two-Electron Energy =                 372.0215417040549255
    Total Energy =                       -341.8148423752813869

Computation Completed

*** tstop() called on node37.bme.utexas.edu at Mon Nov  2 15:09:43 2020
Module time:
	user time   =      75.57 seconds =       1.26 minutes
	system time =       7.78 seconds =       0.13 minutes
	total time  =         12 seconds =       0.20 minutes
Total time:
	user time   =      75.57 seconds =       1.26 minutes
	system time =       7.78 seconds =       0.13 minutes
	total time  =         12 seconds =       0.20 minutes
   => Loading Basis Set <=

    Name: (AUG-CC-PVTZ AUX)
    Role: RIFIT
    Keyword: DF_BASIS_MP2
    atoms 1-3  entry O          line   264 file /home/xy3866/psi4conda/share/psi4/basis/aug-cc-pvtz-ri.gbs 
    atoms 4-6  entry C          line   148 file /home/xy3866/psi4conda/share/psi4/basis/aug-cc-pvtz-ri.gbs 
    atoms 7-12 entry H          line    30 file /home/xy3866/psi4conda/share/psi4/basis/aug-cc-pvtz-ri.gbs 


*** tstart() called on node37.bme.utexas.edu
*** at Mon Nov  2 15:09:43 2020


  //>>>>>>>>>>>>>>>>>>>>>>>>>>>>>>>>>>>//
  //               DFMP2               //
  //<<<<<<<<<<<<<<<<<<<<<<<<<<<<<<<<<<<//

	 --------------------------------------------------------
	                          DF-MP2                         
	      2nd-Order Density-Fitted Moller-Plesset Theory     
	              RMP2 Wavefunction,   8 Threads             
	                                                         
	        Rob Parrish, Justin Turney, Andy Simmonett,      
	           Ed Hohenstein, and C. David Sherrill          
	 --------------------------------------------------------

   => Auxiliary Basis Set <=

  Basis Set: (AUG-CC-PVTZ AUX)
    Blend: AUG-CC-PVTZ-RI
    Number of shells: 252
    Number of basis function: 912
    Number of Cartesian functions: 1146
    Spherical Harmonics?: true
    Max angular momentum: 4

	 --------------------------------------------------------
	                 NBF =   414, NAUX =   912
	 --------------------------------------------------------
	   CLASS    FOCC     OCC    AOCC    AVIR     VIR    FVIR
	   PAIRS       0      24      24     390     390       0
	 --------------------------------------------------------

  DFHelper Memory: AOs need 1.182 GiB; user supplied 22.352 GiB. Using in-core AOs.


         ------------------------------------------------------------
                                     CPHF                           
                                  Rob Parrish                       
         ------------------------------------------------------------

  ==> Geometry <==

    Molecular point group: c1
    Full point group: C1

    Geometry (in Angstrom), charge = 0, multiplicity = 1:

       Center              X                  Y                   Z               Mass       
    ------------   -----------------  -----------------  -----------------  -----------------
         O           -1.421561277299     1.069580390772     0.216488896414    15.994914619570
         O            1.455457722701    -1.070783609228    -0.010105103586    15.994914619570
         O            1.253822722701     1.186857390772    -0.072254103586    15.994914619570
         C           -0.714492277299    -0.145980609228     0.359576896414    12.000000000000
         C           -1.347896277299    -1.182483609228    -0.551692103586    12.000000000000
         C            0.654764622701     0.067775090772     0.076986996414    12.000000000000
         H           -0.756359277299    -0.504379609228     1.402549896414     1.007825032230
         H           -1.251633277299    -0.864880609228    -1.591488103586     1.007825032230
         H           -2.409331277299    -1.258030609228    -0.310207103586     1.007825032230
         H           -0.877714277299    -2.158178609228    -0.423104103586     1.007825032230
         H           -0.766593277299     1.785895390772     0.341281896414     1.007825032230
         H            2.384930722701    -0.806808609228    -0.176956103586     1.007825032230

  Nuclear repulsion =  249.770759510160758
  Reference energy  = -341.814842375281387

  ==> Basis Set <==

  Basis Set: AUG-CC-PVTZ
    Blend: AUG-CC-PVTZ
    Number of shells: 138
    Number of basis function: 414
    Number of Cartesian functions: 480
    Spherical Harmonics?: true
    Max angular momentum: 3

  ==> CGRSolver (by Rob Parrish) <==

   Number of roots    =         1
   Preconditioning    =    JACOBI
   Convergence cutoff =     1E-06
   Maximum iterations =       100

  ==> CPHFRHamiltonian (by Rob Parrish) <== 

  ==> MemDFJK: Density-Fitted J/K Matrices <==

    J tasked:                   Yes
    K tasked:                   Yes
    wK tasked:                   No
    OpenMP threads:               8
    Memory [MiB]:             22888
    Algorithm:                 Core
    Schwarz Cutoff:           1E-12
    Mask sparsity (%):       1.5683
    Fitting Condition:        1E-10

   => Auxiliary Basis Set <=

  Basis Set: (AUG-CC-PVTZ AUX)
    Blend: AUG-CC-PVTZ-JKFIT
    Number of shells: 264
    Number of basis function: 900
    Number of Cartesian functions: 1116
    Spherical Harmonics?: true
    Max angular momentum: 4

  ==> CPHF Iterations <==

  => Iterations <=

             Iter  Converged  Remaining    Residual
  CGR           1          0          1   1.170E-01
  CGR           2          0          1   3.760E-02
  CGR           3          0          1   1.470E-02
  CGR           4          0          1   5.118E-03
  CGR           5          0          1   2.211E-03
  CGR           6          0          1   8.216E-04
  CGR           7          0          1   2.519E-04
  CGR           8          0          1   9.091E-05
  CGR           9          0          1   2.558E-05
  CGR          10          0          1   8.647E-06
  CGR          11          0          1   3.203E-06
  CGR          12          0          1   1.498E-06
  CGR          13          1          0   6.786E-07

    CGRSolver converged.

	-----------------------------------------------------------
	 ==================> DF-MP2 Energies <==================== 
	-----------------------------------------------------------
	 Reference Energy          =    -341.8148423752813869 [Eh]
	 Singles Energy            =      -0.0000000000000000 [Eh]
	 Same-Spin Energy          =      -0.3295317245887921 [Eh]
	 Opposite-Spin Energy      =      -1.0164551164430704 [Eh]
	 Correlation Energy        =      -1.3459868410318625 [Eh]
	 Total Energy              =    -343.1608292163132319 [Eh]
	-----------------------------------------------------------
	 ================> DF-SCS-MP2 Energies <================== 
	-----------------------------------------------------------
	 SCS Same-Spin Scale       =       0.3333333333333333 [-]
	 SCS Opposite-Spin Scale   =       1.2000000000000000 [-]
	 SCS Same-Spin Energy      =      -0.1098439081962640 [Eh]
	 SCS Opposite-Spin Energy  =      -1.2197461397316844 [Eh]
	 SCS Correlation Energy    =      -1.3295900479279485 [Eh]
	 SCS Total Energy          =    -343.1444324232093095 [Eh]
	-----------------------------------------------------------



Properties will be evaluated at   0.000000,   0.000000,   0.000000 [a0]

Properties computed using the MP2 density matrix

  Nuclear Dipole Moment: [e a0]
     X:    -3.4406      Y:    -3.5627      Z:    -0.7099

  Electronic Dipole Moment: [e a0]
     X:     3.7106      Y:     2.8162      Z:     0.8597

  Dipole Moment: [e a0]
     X:     0.2700      Y:    -0.7464      Z:     0.1499     Total:     0.8078

  Dipole Moment: [D]
     X:     0.6863      Y:    -1.8972      Z:     0.3809     Total:     2.0532


*** tstop() called on node37.bme.utexas.edu at Mon Nov  2 15:10:16 2020
Module time:
	user time   =     198.78 seconds =       3.31 minutes
	system time =      14.27 seconds =       0.24 minutes
	total time  =         33 seconds =       0.55 minutes
Total time:
	user time   =     274.71 seconds =       4.58 minutes
	system time =      22.06 seconds =       0.37 minutes
	total time  =         45 seconds =       0.75 minutes

    Psi4 stopped on: Monday, 02 November 2020 03:10PM
    Psi4 wall time for execution: 0:00:46.70

*** Psi4 exiting successfully. Buy a developer a beer!
