
    -----------------------------------------------------------------------
          Psi4: An Open-Source Ab Initio Electronic Structure Package
                               Psi4 1.4a3.dev225 

                         Git: Rev {master} 7105e37 


    D. G. A. Smith, L. A. Burns, A. C. Simmonett, R. M. Parrish,
    M. C. Schieber, R. Galvelis, P. Kraus, H. Kruse, R. Di Remigio,
    A. Alenaizan, A. M. James, S. Lehtola, J. P. Misiewicz, M. Scheurer,
    R. A. Shaw, J. B. Schriber, Y. Xie, Z. L. Glick, D. A. Sirianni,
    J. S. O'Brien, J. M. Waldrop, A. Kumar, E. G. Hohenstein,
    B. P. Pritchard, B. R. Brooks, H. F. Schaefer III, A. Yu. Sokolov,
    K. Patkowski, A. E. DePrince III, U. Bozkaya, R. A. King,
    F. A. Evangelista, J. M. Turney, T. D. Crawford, C. D. Sherrill,
    J. Chem. Phys. 152(18) 184108 (2020). https://doi.org/10.1063/5.0006002

                            Additional Code Authors
    E. T. Seidl, C. L. Janssen, E. F. Valeev, M. L. Leininger,
    J. F. Gonthier, R. M. Richard, H. R. McAlexander, M. Saitow, X. Wang,
    P. Verma, and M. H. Lechner

             Previous Authors, Complete List of Code Contributors,
                       and Citations for Specific Modules
    https://github.com/psi4/psi4/blob/master/codemeta.json
    https://github.com/psi4/psi4/graphs/contributors
    http://psicode.org/psi4manual/master/introduction.html#citing-psifour

    -----------------------------------------------------------------------


    Psi4 started on: Saturday, 20 March 2021 07:22AM

    Process ID: 124828
    Host:       c445-062.stampede2.tacc.utexas.edu
    PSIDATADIR: /home1/07844/xy3866/miniconda3/envs/p4env/share/psi4
    Memory:     500.0 MiB
    Threads:    32
    
  ==> Input File <==

--------------------------------------------------------------------------
#psi4
#
memory 32 gb

molecule  {
0 1
  O       -1.3959680    -1.1167090    -0.2833280
  O        1.5522570     0.9331460    -0.3210200
  O        1.1768320    -1.1502310     0.4959580
  C       -0.6816250     0.0987340    -0.4130150
  C       -1.2926720     1.1882940     0.4648960
  C        0.7675010    -0.1293310    -0.0365160
  H       -0.7109810     0.4129130    -1.4639800
  H       -1.2242180     0.8953450     1.5161010
  H       -2.3476110     1.2964270     0.2055410
  H       -0.7844450     2.1448300     0.3211210
  H       -0.8100540    -1.7212800     0.2125920
  H        2.4071531     0.7080337    -0.0319927
units angstrom
no_reorient  #important for SAPT in psi4, default
symmetry c1  #important for SAPT in psi4, default
}

set PROPERTIES_ORIGIN ["COM"]
properties('MP2/aug-cc-pvtz', properties = ['dipole'])
--------------------------------------------------------------------------

  Memory set to  29.802 GiB by Python driver.
    SCF Algorithm Type (re)set to DF.

*** tstart() called on c445-062.stampede2.tacc.utexas.edu
*** at Sat Mar 20 07:22:24 2021

   => Loading Basis Set <=

    Name: AUG-CC-PVTZ
    Role: ORBITAL
    Keyword: BASIS
    atoms 1-3  entry O          line   331 file /home1/07844/xy3866/miniconda3/envs/p4env/share/psi4/basis/aug-cc-pvtz.gbs 
    atoms 4-6  entry C          line   239 file /home1/07844/xy3866/miniconda3/envs/p4env/share/psi4/basis/aug-cc-pvtz.gbs 
    atoms 7-12 entry H          line    40 file /home1/07844/xy3866/miniconda3/envs/p4env/share/psi4/basis/aug-cc-pvtz.gbs 


         ---------------------------------------------------------
                                   SCF
               by Justin Turney, Rob Parrish, Andy Simmonett
                          and Daniel G. A. Smith
                              RHF Reference
                       32 Threads,  30517 MiB Core
         ---------------------------------------------------------

  ==> Geometry <==

    Molecular point group: c1
    Full point group: C1

    Geometry (in Angstrom), charge = 0, multiplicity = 1:

       Center              X                  Y                   Z               Mass       
    ------------   -----------------  -----------------  -----------------  -----------------
         O           -1.433113747684    -1.075878356238    -0.274620129812    15.994914619570
         O            1.515111252316     0.973976643762    -0.312312129812    15.994914619570
         O            1.139686252316    -1.109400356238     0.504665870188    15.994914619570
         C           -0.718770747684     0.139564643762    -0.404307129812    12.000000000000
         C           -1.329817747684     1.229124643762     0.473603870188    12.000000000000
         C            0.730355252316    -0.088500356238    -0.027808129812    12.000000000000
         H           -0.748126747684     0.453743643762    -1.455272129812     1.007825032230
         H           -1.261363747684     0.936175643762     1.524808870188     1.007825032230
         H           -2.384756747684     1.337257643762     0.214248870188     1.007825032230
         H           -0.821590747684     2.185660643762     0.329828870188     1.007825032230
         H           -0.847199747684    -1.680449356238     0.221299870188     1.007825032230
         H            2.370007352316     0.748864343762    -0.023284829812     1.007825032230

  Running in c1 symmetry.

  Rotational constants: A =      0.17038  B =      0.10844  C =      0.07589 [cm^-1]
  Rotational constants: A =   5107.91429  B =   3250.96122  C =   2275.13002 [MHz]
  Nuclear repulsion =  249.897495084732896

  Charge       = 0
  Multiplicity = 1
  Electrons    = 48
  Nalpha       = 24
  Nbeta        = 24

  ==> Algorithm <==

  SCF Algorithm Type is DF.
  DIIS enabled.
  MOM disabled.
  Fractional occupation disabled.
  Guess Type is SAD.
  Energy threshold   = 1.00e-10
  Density threshold  = 1.00e-10
  Integral threshold = 1.00e-12

  ==> Primary Basis <==

  Basis Set: AUG-CC-PVTZ
    Blend: AUG-CC-PVTZ
    Number of shells: 138
    Number of basis functions: 414
    Number of Cartesian functions: 480
    Spherical Harmonics?: true
    Max angular momentum: 3

   => Loading Basis Set <=

    Name: (AUG-CC-PVTZ AUX)
    Role: JKFIT
    Keyword: DF_BASIS_SCF
    atoms 1-3  entry O          line   286 file /home1/07844/xy3866/miniconda3/envs/p4env/share/psi4/basis/aug-cc-pvtz-jkfit.gbs 
    atoms 4-6  entry C          line   162 file /home1/07844/xy3866/miniconda3/envs/p4env/share/psi4/basis/aug-cc-pvtz-jkfit.gbs 
    atoms 7-12 entry H          line    70 file /home1/07844/xy3866/miniconda3/envs/p4env/share/psi4/basis/aug-cc-pvtz-jkfit.gbs 

  ==> Integral Setup <==

  DFHelper Memory: AOs need 1.200 GiB; user supplied 22.352 GiB. Using in-core AOs.

  ==> MemDFJK: Density-Fitted J/K Matrices <==

    J tasked:                   Yes
    K tasked:                   Yes
    wK tasked:                   No
    OpenMP threads:              32
    Memory [MiB]:             22888
    Algorithm:                 Core
    Schwarz Cutoff:           1E-12
    Mask sparsity (%):       2.6967
    Fitting Condition:        1E-10

   => Auxiliary Basis Set <=

  Basis Set: (AUG-CC-PVTZ AUX)
    Blend: AUG-CC-PVTZ-JKFIT
    Number of shells: 264
    Number of basis functions: 900
    Number of Cartesian functions: 1116
    Spherical Harmonics?: true
    Max angular momentum: 4

  Minimum eigenvalue in the overlap matrix is 1.1959986951E-05.
  Reciprocal condition number of the overlap matrix is 7.3538482674E-07.
    Using symmetric orthogonalization.

  ==> Pre-Iterations <==

  SCF Guess: Superposition of Atomic Densities via on-the-fly atomic UHF (no occupation information).

   -------------------------
    Irrep   Nso     Nmo    
   -------------------------
     A        414     414 
   -------------------------
    Total     414     414
   -------------------------

  ==> Iterations <==

                           Total Energy        Delta E     RMS |[F,P]|

   @DF-RHF iter SAD:  -340.85456794352166   -3.40855e+02   0.00000e+00 
   @DF-RHF iter   1:  -341.61900297563830   -7.64435e-01   1.68692e-03 DIIS
   @DF-RHF iter   2:  -341.77748072807975   -1.58478e-01   1.00819e-03 DIIS
   @DF-RHF iter   3:  -341.83438983350635   -5.69091e-02   1.64536e-04 DIIS
   @DF-RHF iter   4:  -341.83725059399319   -2.86076e-03   7.50998e-05 DIIS
   @DF-RHF iter   5:  -341.83778465172537   -5.34058e-04   1.74601e-05 DIIS
   @DF-RHF iter   6:  -341.83783261533040   -4.79636e-05   8.16753e-06 DIIS
   @DF-RHF iter   7:  -341.83784309626776   -1.04809e-05   2.78753e-06 DIIS
   @DF-RHF iter   8:  -341.83784514336850   -2.04710e-06   1.13414e-06 DIIS
   @DF-RHF iter   9:  -341.83784545312375   -3.09755e-07   3.23805e-07 DIIS
   @DF-RHF iter  10:  -341.83784547906504   -2.59413e-08   1.08178e-07 DIIS
   @DF-RHF iter  11:  -341.83784548096878   -1.90374e-09   3.35658e-08 DIIS
   @DF-RHF iter  12:  -341.83784548112391   -1.55126e-10   1.16263e-08 DIIS
   @DF-RHF iter  13:  -341.83784548114340   -1.94973e-11   2.93679e-09 DIIS
   @DF-RHF iter  14:  -341.83784548114573   -2.33058e-12   1.13171e-09 DIIS
   @DF-RHF iter  15:  -341.83784548114619   -4.54747e-13   4.20252e-10 DIIS
   @DF-RHF iter  16:  -341.83784548114630   -1.13687e-13   1.90715e-10 DIIS
   @DF-RHF iter  17:  -341.83784548114585    4.54747e-13   7.16316e-11 DIIS
  Energy and wave function converged.


  ==> Post-Iterations <==

    Orbital Energies [Eh]
    ---------------------

    Doubly Occupied:                                                      

       1A    -20.632677     2A    -20.573412     3A    -20.564961  
       4A    -11.406583     5A    -11.311594     6A    -11.235156  
       7A     -1.489833     8A     -1.391542     9A     -1.362161  
      10A     -1.054965    11A     -0.924148    12A     -0.821069  
      13A     -0.746014    14A     -0.730814    15A     -0.671419  
      16A     -0.645903    17A     -0.627622    18A     -0.591021  
      19A     -0.570178    20A     -0.543842    21A     -0.533211  
      22A     -0.503502    23A     -0.470015    24A     -0.457432  

    Virtual:                                                              

      25A      0.026089    26A      0.036855    27A      0.040050  
      28A      0.046385    29A      0.058199    30A      0.063265  
      31A      0.086349    32A      0.091489    33A      0.100351  
      34A      0.112979    35A      0.121058    36A      0.122033  
      37A      0.131408    38A      0.142037    39A      0.146039  
      40A      0.147386    41A      0.155551    42A      0.169261  
      43A      0.176189    44A      0.180210    45A      0.187157  
      46A      0.198556    47A      0.209750    48A      0.232099  
      49A      0.242553    50A      0.244464    51A      0.253600  
      52A      0.254598    53A      0.266035    54A      0.268009  
      55A      0.271685    56A      0.289756    57A      0.296279  
      58A      0.315154    59A      0.319981    60A      0.331352  
      61A      0.334260    62A      0.351373    63A      0.353330  
      64A      0.361820    65A      0.367302    66A      0.369212  
      67A      0.377105    68A      0.384054    69A      0.392506  
      70A      0.396992    71A      0.405070    72A      0.415715  
      73A      0.423311    74A      0.433400    75A      0.436637  
      76A      0.446644    77A      0.458549    78A      0.463239  
      79A      0.474814    80A      0.479506    81A      0.483203  
      82A      0.492528    83A      0.506461    84A      0.513743  
      85A      0.519908    86A      0.521339    87A      0.530005  
      88A      0.549124    89A      0.554319    90A      0.562504  
      91A      0.570952    92A      0.582880    93A      0.592149  
      94A      0.613009    95A      0.620941    96A      0.643462  
      97A      0.660199    98A      0.666415    99A      0.681118  
     100A      0.696219   101A      0.725005   102A      0.733650  
     103A      0.745730   104A      0.755801   105A      0.766245  
     106A      0.774025   107A      0.782846   108A      0.799800  
     109A      0.803618   110A      0.824571   111A      0.832399  
     112A      0.837411   113A      0.838358   114A      0.855615  
     115A      0.860863   116A      0.888026   117A      0.894464  
     118A      0.900983   119A      0.907893   120A      0.910537  
     121A      0.931140   122A      0.935461   123A      0.940346  
     124A      0.954137   125A      0.963158   126A      0.972148  
     127A      0.981834   128A      0.985739   129A      0.995877  
     130A      1.006667   131A      1.015620   132A      1.026381  
     133A      1.031373   134A      1.039965   135A      1.056650  
     136A      1.075168   137A      1.080195   138A      1.091282  
     139A      1.099560   140A      1.114555   141A      1.122625  
     142A      1.134425   143A      1.135492   144A      1.158700  
     145A      1.173419   146A      1.177882   147A      1.184634  
     148A      1.202939   149A      1.220086   150A      1.226088  
     151A      1.240592   152A      1.247941   153A      1.262239  
     154A      1.271989   155A      1.280312   156A      1.307804  
     157A      1.314226   158A      1.319774   159A      1.334962  
     160A      1.353654   161A      1.369631   162A      1.373570  
     163A      1.400604   164A      1.411678   165A      1.418272  
     166A      1.430485   167A      1.445201   168A      1.463748  
     169A      1.476532   170A      1.483900   171A      1.504981  
     172A      1.515573   173A      1.532507   174A      1.543701  
     175A      1.552192   176A      1.571201   177A      1.584681  
     178A      1.598852   179A      1.616381   180A      1.626253  
     181A      1.636493   182A      1.666338   183A      1.678192  
     184A      1.683317   185A      1.704225   186A      1.707054  
     187A      1.728457   188A      1.740754   189A      1.743787  
     190A      1.764616   191A      1.773399   192A      1.784961  
     193A      1.805208   194A      1.823043   195A      1.839574  
     196A      1.852940   197A      1.862837   198A      1.888792  
     199A      1.894694   200A      1.917084   201A      1.920715  
     202A      1.939971   203A      1.960172   204A      1.972035  
     205A      1.990862   206A      2.008193   207A      2.013897  
     208A      2.069005   209A      2.092242   210A      2.131079  
     211A      2.156590   212A      2.181682   213A      2.187680  
     214A      2.195530   215A      2.208850   216A      2.226365  
     217A      2.235128   218A      2.274621   219A      2.291467  
     220A      2.332109   221A      2.345861   222A      2.384525  
     223A      2.390929   224A      2.411310   225A      2.440389  
     226A      2.461427   227A      2.467088   228A      2.485679  
     229A      2.509806   230A      2.518343   231A      2.567810  
     232A      2.577000   233A      2.595577   234A      2.605814  
     235A      2.626018   236A      2.652571   237A      2.681427  
     238A      2.705222   239A      2.740739   240A      2.746507  
     241A      2.773220   242A      2.785857   243A      2.798051  
     244A      2.819218   245A      2.827438   246A      2.859010  
     247A      2.904788   248A      2.913204   249A      2.941603  
     250A      2.971967   251A      2.985304   252A      2.997040  
     253A      3.041918   254A      3.056324   255A      3.073371  
     256A      3.086165   257A      3.128730   258A      3.170323  
     259A      3.183510   260A      3.222313   261A      3.264343  
     262A      3.306232   263A      3.322392   264A      3.352098  
     265A      3.373304   266A      3.387604   267A      3.446348  
     268A      3.473197   269A      3.509807   270A      3.549544  
     271A      3.601795   272A      3.612299   273A      3.614187  
     274A      3.622554   275A      3.649242   276A      3.660217  
     277A      3.686512   278A      3.722367   279A      3.735107  
     280A      3.751720   281A      3.788107   282A      3.811531  
     283A      3.838202   284A      3.857798   285A      3.875166  
     286A      3.888580   287A      3.916469   288A      3.955327  
     289A      3.969626   290A      3.986098   291A      4.022380  
     292A      4.031575   293A      4.070462   294A      4.083779  
     295A      4.107998   296A      4.130289   297A      4.147019  
     298A      4.156172   299A      4.172851   300A      4.214198  
     301A      4.241158   302A      4.251913   303A      4.278664  
     304A      4.315548   305A      4.339162   306A      4.357688  
     307A      4.374407   308A      4.378954   309A      4.410496  
     310A      4.430773   311A      4.449379   312A      4.473869  
     313A      4.479404   314A      4.517592   315A      4.526993  
     316A      4.571555   317A      4.611166   318A      4.644511  
     319A      4.667927   320A      4.671253   321A      4.717746  
     322A      4.735033   323A      4.772786   324A      4.803107  
     325A      4.828188   326A      4.846961   327A      4.849489  
     328A      4.866128   329A      4.910348   330A      4.933565  
     331A      4.985589   332A      5.000251   333A      5.039095  
     334A      5.071153   335A      5.093851   336A      5.116101  
     337A      5.123566   338A      5.193131   339A      5.200504  
     340A      5.201549   341A      5.263766   342A      5.281413  
     343A      5.326684   344A      5.336137   345A      5.397558  
     346A      5.410860   347A      5.466052   348A      5.472271  
     349A      5.506418   350A      5.519665   351A      5.560835  
     352A      5.586694   353A      5.612869   354A      5.638726  
     355A      5.676648   356A      5.732233   357A      5.777210  
     358A      5.818481   359A      5.882922   360A      5.905505  
     361A      6.079557   362A      6.116789   363A      6.140096  
     364A      6.170342   365A      6.197065   366A      6.243745  
     367A      6.380047   368A      6.546757   369A      6.589758  
     370A      6.694803   371A      6.722002   372A      6.765330  
     373A      6.807069   374A      6.839937   375A      6.855066  
     376A      6.873789   377A      6.888923   378A      6.965460  
     379A      6.981847   380A      7.040648   381A      7.075393  
     382A      7.111858   383A      7.207466   384A      7.283820  
     385A      7.317160   386A      7.330628   387A      7.340697  
     388A      7.356183   389A      7.380280   390A      7.398381  
     391A      7.431313   392A      7.500137   393A      7.516748  
     394A      7.544746   395A      7.565204   396A      7.653171  
     397A      7.686295   398A      7.704040   399A      7.746690  
     400A      7.864194   401A      7.884230   402A      7.964692  
     403A      7.973872   404A      8.091851   405A      8.218755  
     406A      8.336074   407A      8.528033   408A      8.663785  
     409A     15.602355   410A     15.791088   411A     16.759622  
     412A     17.165944   413A     18.248804   414A     19.294745  

    Final Occupation by Irrep:
              A 
    DOCC [    24 ]

  @DF-RHF Final Energy:  -341.83784548114585

   => Energetics <=

    Nuclear Repulsion Energy =            249.8974950847328955
    One-Electron Energy =                -963.7525331199389029
    Two-Electron Energy =                 372.0171925540601592
    Total Energy =                       -341.8378454811458482

Computation Completed

*** tstop() called on c445-062.stampede2.tacc.utexas.edu at Sat Mar 20 07:22:38 2021
Module time:
	user time   =     214.34 seconds =       3.57 minutes
	system time =      17.68 seconds =       0.29 minutes
	total time  =         14 seconds =       0.23 minutes
Total time:
	user time   =     214.34 seconds =       3.57 minutes
	system time =      17.68 seconds =       0.29 minutes
	total time  =         14 seconds =       0.23 minutes
   => Loading Basis Set <=

    Name: (AUG-CC-PVTZ AUX)
    Role: RIFIT
    Keyword: DF_BASIS_MP2
    atoms 1-3  entry O          line   264 file /home1/07844/xy3866/miniconda3/envs/p4env/share/psi4/basis/aug-cc-pvtz-ri.gbs 
    atoms 4-6  entry C          line   148 file /home1/07844/xy3866/miniconda3/envs/p4env/share/psi4/basis/aug-cc-pvtz-ri.gbs 
    atoms 7-12 entry H          line    30 file /home1/07844/xy3866/miniconda3/envs/p4env/share/psi4/basis/aug-cc-pvtz-ri.gbs 


*** tstart() called on c445-062.stampede2.tacc.utexas.edu
*** at Sat Mar 20 07:22:39 2021


  //>>>>>>>>>>>>>>>>>>>>>>>>>>>>>>>>>>>//
  //               DFMP2               //
  //<<<<<<<<<<<<<<<<<<<<<<<<<<<<<<<<<<<//

	 --------------------------------------------------------
	                          DF-MP2                         
	      2nd-Order Density-Fitted Moller-Plesset Theory     
	              RMP2 Wavefunction,  32 Threads             
	                                                         
	        Rob Parrish, Justin Turney, Andy Simmonett,      
	           Ed Hohenstein, and C. David Sherrill          
	 --------------------------------------------------------

   => Auxiliary Basis Set <=

  Basis Set: (AUG-CC-PVTZ AUX)
    Blend: AUG-CC-PVTZ-RI
    Number of shells: 252
    Number of basis functions: 912
    Number of Cartesian functions: 1146
    Spherical Harmonics?: true
    Max angular momentum: 4

	 --------------------------------------------------------
	                 NBF =   414, NAUX =   912
	 --------------------------------------------------------
	   CLASS    FOCC     OCC    AOCC    AVIR     VIR    FVIR
	   PAIRS       0      24      24     390     390       0
	 --------------------------------------------------------

  DFHelper Memory: AOs need 1.214 GiB; user supplied 22.352 GiB. Using in-core AOs.


         ------------------------------------------------------------
                                     CPHF                           
                                  Rob Parrish                       
         ------------------------------------------------------------

  ==> Geometry <==

    Molecular point group: c1
    Full point group: C1

    Geometry (in Angstrom), charge = 0, multiplicity = 1:

       Center              X                  Y                   Z               Mass       
    ------------   -----------------  -----------------  -----------------  -----------------
         O           -1.433113747684    -1.075878356238    -0.274620129812    15.994914619570
         O            1.515111252316     0.973976643762    -0.312312129812    15.994914619570
         O            1.139686252316    -1.109400356238     0.504665870188    15.994914619570
         C           -0.718770747684     0.139564643762    -0.404307129812    12.000000000000
         C           -1.329817747684     1.229124643762     0.473603870188    12.000000000000
         C            0.730355252316    -0.088500356238    -0.027808129812    12.000000000000
         H           -0.748126747684     0.453743643762    -1.455272129812     1.007825032230
         H           -1.261363747684     0.936175643762     1.524808870188     1.007825032230
         H           -2.384756747684     1.337257643762     0.214248870188     1.007825032230
         H           -0.821590747684     2.185660643762     0.329828870188     1.007825032230
         H           -0.847199747684    -1.680449356238     0.221299870188     1.007825032230
         H            2.370007352316     0.748864343762    -0.023284829812     1.007825032230

  Nuclear repulsion =  249.897495084732896
  Reference energy  = -341.837845481145848

  ==> Basis Set <==

  Basis Set: AUG-CC-PVTZ
    Blend: AUG-CC-PVTZ
    Number of shells: 138
    Number of basis functions: 414
    Number of Cartesian functions: 480
    Spherical Harmonics?: true
    Max angular momentum: 3

  ==> CGRSolver (by Rob Parrish) <==

   Number of roots    =         1
   Preconditioning    =    JACOBI
   Convergence cutoff =     1E-06
   Maximum iterations =       100

  ==> CPHFRHamiltonian (by Rob Parrish) <== 

  ==> MemDFJK: Density-Fitted J/K Matrices <==

    J tasked:                   Yes
    K tasked:                   Yes
    wK tasked:                   No
    OpenMP threads:              32
    Memory [MiB]:             22888
    Algorithm:                 Core
    Schwarz Cutoff:           1E-12
    Mask sparsity (%):       1.4644
    Fitting Condition:        1E-10

   => Auxiliary Basis Set <=

  Basis Set: (AUG-CC-PVTZ AUX)
    Blend: AUG-CC-PVTZ-JKFIT
    Number of shells: 264
    Number of basis functions: 900
    Number of Cartesian functions: 1116
    Spherical Harmonics?: true
    Max angular momentum: 4

  ==> CPHF Iterations <==

  => Iterations <=

             Iter  Converged  Remaining    Residual
  CGR           1          0          1   1.058E-01
  CGR           2          0          1   3.091E-02
  CGR           3          0          1   1.145E-02
  CGR           4          0          1   3.360E-03
  CGR           5          0          1   1.253E-03
  CGR           6          0          1   3.363E-04
  CGR           7          0          1   1.020E-04
  CGR           8          0          1   4.009E-05
  CGR           9          0          1   1.510E-05
  CGR          10          0          1   6.199E-06
  CGR          11          0          1   1.971E-06
  CGR          12          1          0   6.259E-07

    CGRSolver converged.

	-----------------------------------------------------------
	 ==================> DF-MP2 Energies <==================== 
	-----------------------------------------------------------
	 Reference Energy          =    -341.8378454811458482 [Eh]
	 Singles Energy            =      -0.0000000000000000 [Eh]
	 Same-Spin Energy          =      -0.3265883484308674 [Eh]
	 Opposite-Spin Energy      =      -1.0103605219278866 [Eh]
	 Correlation Energy        =      -1.3369488703587540 [Eh]
	 Total Energy              =    -343.1747943515046018 [Eh]
	-----------------------------------------------------------
	 ================> DF-SCS-MP2 Energies <================== 
	-----------------------------------------------------------
	 SCS Same-Spin Scale       =       0.3333333333333333 [-]
	 SCS Opposite-Spin Scale   =       1.2000000000000000 [-]
	 SCS Same-Spin Energy      =      -0.1088627828102891 [Eh]
	 SCS Opposite-Spin Energy  =      -1.2124326263134639 [Eh]
	 SCS Correlation Energy    =      -1.3212954091237530 [Eh]
	 SCS Total Energy          =    -343.1591408902696116 [Eh]
	-----------------------------------------------------------



Properties will be evaluated at  -0.000000,  -0.000000,  -0.000000 [a0]

Properties computed using the MP2 density matrix

  Nuclear Dipole Moment: [e a0]
     X:    -3.4562      Y:     3.7265      Z:     0.7605

  Electronic Dipole Moment: [e a0]
     X:     3.9432      Y:    -2.9533      Z:    -0.7406

  Dipole Moment: [e a0]
     X:     0.4870      Y:     0.7732      Z:     0.0199     Total:     0.9140

  Dipole Moment: [D]
     X:     1.2378      Y:     1.9652      Z:     0.0506     Total:     2.3231


*** tstop() called on c445-062.stampede2.tacc.utexas.edu at Sat Mar 20 07:23:49 2021
Module time:
	user time   =     491.41 seconds =       8.19 minutes
	system time =      18.07 seconds =       0.30 minutes
	total time  =         70 seconds =       1.17 minutes
Total time:
	user time   =     706.96 seconds =      11.78 minutes
	system time =      35.83 seconds =       0.60 minutes
	total time  =         85 seconds =       1.42 minutes

    Psi4 stopped on: Saturday, 20 March 2021 07:23AM
    Psi4 wall time for execution: 0:01:25.37

*** Psi4 exiting successfully. Buy a developer a beer!
