opt=(Tight,CalcAll)                                                     
Freq      RMP2-FC                                                     6-31G(d)            
Number of atoms                            I               17
Info1-9                                    I   N=           9
          26          26        1002           0           0         100
           6           2           1
Charge                                     I                1
Multiplicity                               I                1
Number of electrons                        I               42
Number of alpha electrons                  I               21
Number of beta electrons                   I               21
Number of basis functions                  I               99
Number of independent functions            I               99
Number of point charges in /Mol/           I                0
Number of translation vectors              I                0
Atomic numbers                             I   N=          17
           7           6           6           6           6           1
           1           1           1           1           1           1
           1           1           1           1           1
Nuclear charges                            R   N=          17
  7.00000000E+00  6.00000000E+00  6.00000000E+00  6.00000000E+00  6.00000000E+00
  1.00000000E+00  1.00000000E+00  1.00000000E+00  1.00000000E+00  1.00000000E+00
  1.00000000E+00  1.00000000E+00  1.00000000E+00  1.00000000E+00  1.00000000E+00
  1.00000000E+00  1.00000000E+00
Current cartesian coordinates              R   N=          51
  3.48203488E-18  5.08201915E-01  6.35274710E-22  2.38634590E+00 -1.03276919E+00
  5.53101387E-02 -2.38634590E+00 -1.03276919E+00 -5.53101379E-02  4.69318221E+00
  6.63888636E-01 -2.36387895E-02 -4.69318221E+00  6.63888636E-01  2.36387847E-02
 -3.40506755E-02  1.68383839E+00  1.54733050E+00  3.40506744E-02  1.68383842E+00
 -1.54733044E+00  2.30802159E+00 -2.15847158E+00  1.77971735E+00  2.29901790E+00
 -2.29410689E+00 -1.57202366E+00 -2.30802157E+00 -2.15847156E+00 -1.77971735E+00
 -2.29901791E+00 -2.29410690E+00  1.57202366E+00  6.38557890E+00 -5.15439513E-01
  2.71346029E-02  4.74095738E+00  1.78158102E+00 -1.75920103E+00  4.74748539E+00
  1.93717520E+00  1.60082875E+00 -6.38557890E+00 -5.15439513E-01 -2.71346166E-02
 -4.74095739E+00  1.78158102E+00  1.75920102E+00 -4.74748539E+00  1.93717520E+00
 -1.60082875E+00
Force Field                                I                0
Int Atom Types                             I   N=          17
           0           0           0           0           0           0
           0           0           0           0           0           0
           0           0           0           0           0
MM charges                                 R   N=          17
  0.00000000E+00  0.00000000E+00  0.00000000E+00  0.00000000E+00  0.00000000E+00
  0.00000000E+00  0.00000000E+00  0.00000000E+00  0.00000000E+00  0.00000000E+00
  0.00000000E+00  0.00000000E+00  0.00000000E+00  0.00000000E+00  0.00000000E+00
  0.00000000E+00  0.00000000E+00
Integer atomic weights                     I   N=          17
          14          12          12          12          12           1
           1           1           1           1           1           1
           1           1           1           1           1
Real atomic weights                        R   N=          17
  1.40030740E+01  1.20000000E+01  1.20000000E+01  1.20000000E+01  1.20000000E+01
  1.00782504E+00  1.00782504E+00  1.00782504E+00  1.00782504E+00  1.00782504E+00
  1.00782504E+00  1.00782504E+00  1.00782504E+00  1.00782504E+00  1.00782504E+00
  1.00782504E+00  1.00782504E+00
Atom fragment info                         I   N=          17
           0           0           0           0           0           0
           0           0           0           0           0           0
           0           0           0           0           0
Atom residue num                           I   N=          17
           0           0           0           0           0           0
           0           0           0           0           0           0
           0           0           0           0           0
Nuclear spins                              I   N=          17
           2           0           0           0           0           1
           1           1           1           1           1           1
           1           1           1           1           1
Nuclear ZEff                               R   N=          17
 -4.55000000E+00 -3.60000000E+00 -3.60000000E+00 -3.60000000E+00 -3.60000000E+00
 -1.00000000E+00 -1.00000000E+00 -1.00000000E+00 -1.00000000E+00 -1.00000000E+00
 -1.00000000E+00 -1.00000000E+00 -1.00000000E+00 -1.00000000E+00 -1.00000000E+00
 -1.00000000E+00 -1.00000000E+00
Nuclear QMom                               R   N=          17
  2.04400000E+00  0.00000000E+00  0.00000000E+00  0.00000000E+00  0.00000000E+00
  0.00000000E+00  0.00000000E+00  0.00000000E+00  0.00000000E+00  0.00000000E+00
  0.00000000E+00  0.00000000E+00  0.00000000E+00  0.00000000E+00  0.00000000E+00
  0.00000000E+00  0.00000000E+00
Nuclear GFac                               R   N=          17
  4.03761000E-01  0.00000000E+00  0.00000000E+00  0.00000000E+00  0.00000000E+00
  2.79284600E+00  2.79284600E+00  2.79284600E+00  2.79284600E+00  2.79284600E+00
  2.79284600E+00  2.79284600E+00  2.79284600E+00  2.79284600E+00  2.79284600E+00
  2.79284600E+00  2.79284600E+00
MicOpt                                     I   N=          17
          -1          -1          -1          -1          -1          -1
          -1          -1          -1          -1          -1          -1
          -1          -1          -1          -1          -1
Number of contracted shells                I               44
Number of primitive shells                 I              103
Pure/Cartesian d shells                    I                1
Pure/Cartesian f shells                    I                0
Highest angular momentum                   I                2
Largest degree of contraction              I                6
Shell types                                I   N=          44
           0          -1          -1           2           0          -1
          -1           2           0          -1          -1           2
           0          -1          -1           2           0          -1
          -1           2           0           0           0           0
           0           0           0           0           0           0
           0           0           0           0           0           0
           0           0           0           0           0           0
           0           0
Number of primitives per shell             I   N=          44
           6           3           1           1           6           3
           1           1           6           3           1           1
           6           3           1           1           6           3
           1           1           3           1           3           1
           3           1           3           1           3           1
           3           1           3           1           3           1
           3           1           3           1           3           1
           3           1
Shell to atom map                          I   N=          44
           1           1           1           1           2           2
           2           2           3           3           3           3
           4           4           4           4           5           5
           5           5           6           6           7           7
           8           8           9           9          10          10
          11          11          12          12          13          13
          14          14          15          15          16          16
          17          17
Primitive exponents                        R   N=         103
  4.17351146E+03  6.27457911E+02  1.42902093E+02  4.02343293E+01  1.28202129E+01
  4.39043701E+00  1.16263619E+01  2.71627981E+00  7.72218397E-01  2.12031498E-01
  8.00000000E-01  3.04752488E+03  4.57369518E+02  1.03948685E+02  2.92101553E+01
  9.28666296E+00  3.16392696E+00  7.86827235E+00  1.88128854E+00  5.44249258E-01
  1.68714478E-01  8.00000000E-01  3.04752488E+03  4.57369518E+02  1.03948685E+02
  2.92101553E+01  9.28666296E+00  3.16392696E+00  7.86827235E+00  1.88128854E+00
  5.44249258E-01  1.68714478E-01  8.00000000E-01  3.04752488E+03  4.57369518E+02
  1.03948685E+02  2.92101553E+01  9.28666296E+00  3.16392696E+00  7.86827235E+00
  1.88128854E+00  5.44249258E-01  1.68714478E-01  8.00000000E-01  3.04752488E+03
  4.57369518E+02  1.03948685E+02  2.92101553E+01  9.28666296E+00  3.16392696E+00
  7.86827235E+00  1.88128854E+00  5.44249258E-01  1.68714478E-01  8.00000000E-01
  1.87311370E+01  2.82539436E+00  6.40121692E-01  1.61277759E-01  1.87311370E+01
  2.82539436E+00  6.40121692E-01  1.61277759E-01  1.87311370E+01  2.82539436E+00
  6.40121692E-01  1.61277759E-01  1.87311370E+01  2.82539436E+00  6.40121692E-01
  1.61277759E-01  1.87311370E+01  2.82539436E+00  6.40121692E-01  1.61277759E-01
  1.87311370E+01  2.82539436E+00  6.40121692E-01  1.61277759E-01  1.87311370E+01
  2.82539436E+00  6.40121692E-01  1.61277759E-01  1.87311370E+01  2.82539436E+00
  6.40121692E-01  1.61277759E-01  1.87311370E+01  2.82539436E+00  6.40121692E-01
  1.61277759E-01  1.87311370E+01  2.82539436E+00  6.40121692E-01  1.61277759E-01
  1.87311370E+01  2.82539436E+00  6.40121692E-01  1.61277759E-01  1.87311370E+01
  2.82539436E+00  6.40121692E-01  1.61277759E-01
Contraction coefficients                   R   N=         103
  1.83477216E-03  1.39946270E-02  6.85865518E-02  2.32240873E-01  4.69069948E-01
  3.60455199E-01 -1.14961182E-01 -1.69117479E-01  1.14585195E+00  1.00000000E+00
  1.00000000E+00  1.83473713E-03  1.40373228E-02  6.88426223E-02  2.32184443E-01
  4.67941348E-01  3.62311985E-01 -1.19332420E-01 -1.60854152E-01  1.14345644E+00
  1.00000000E+00  1.00000000E+00  1.83473713E-03  1.40373228E-02  6.88426223E-02
  2.32184443E-01  4.67941348E-01  3.62311985E-01 -1.19332420E-01 -1.60854152E-01
  1.14345644E+00  1.00000000E+00  1.00000000E+00  1.83473713E-03  1.40373228E-02
  6.88426223E-02  2.32184443E-01  4.67941348E-01  3.62311985E-01 -1.19332420E-01
 -1.60854152E-01  1.14345644E+00  1.00000000E+00  1.00000000E+00  1.83473713E-03
  1.40373228E-02  6.88426223E-02  2.32184443E-01  4.67941348E-01  3.62311985E-01
 -1.19332420E-01 -1.60854152E-01  1.14345644E+00  1.00000000E+00  1.00000000E+00
  3.34946043E-02  2.34726953E-01  8.13757326E-01  1.00000000E+00  3.34946043E-02
  2.34726953E-01  8.13757326E-01  1.00000000E+00  3.34946043E-02  2.34726953E-01
  8.13757326E-01  1.00000000E+00  3.34946043E-02  2.34726953E-01  8.13757326E-01
  1.00000000E+00  3.34946043E-02  2.34726953E-01  8.13757326E-01  1.00000000E+00
  3.34946043E-02  2.34726953E-01  8.13757326E-01  1.00000000E+00  3.34946043E-02
  2.34726953E-01  8.13757326E-01  1.00000000E+00  3.34946043E-02  2.34726953E-01
  8.13757326E-01  1.00000000E+00  3.34946043E-02  2.34726953E-01  8.13757326E-01
  1.00000000E+00  3.34946043E-02  2.34726953E-01  8.13757326E-01  1.00000000E+00
  3.34946043E-02  2.34726953E-01  8.13757326E-01  1.00000000E+00  3.34946043E-02
  2.34726953E-01  8.13757326E-01  1.00000000E+00
P(S=P) Contraction coefficients            R   N=         103
  0.00000000E+00  0.00000000E+00  0.00000000E+00  0.00000000E+00  0.00000000E+00
  0.00000000E+00  6.75797439E-02  3.23907296E-01  7.40895140E-01  1.00000000E+00
  0.00000000E+00  0.00000000E+00  0.00000000E+00  0.00000000E+00  0.00000000E+00
  0.00000000E+00  0.00000000E+00  6.89990666E-02  3.16423961E-01  7.44308291E-01
  1.00000000E+00  0.00000000E+00  0.00000000E+00  0.00000000E+00  0.00000000E+00
  0.00000000E+00  0.00000000E+00  0.00000000E+00  6.89990666E-02  3.16423961E-01
  7.44308291E-01  1.00000000E+00  0.00000000E+00  0.00000000E+00  0.00000000E+00
  0.00000000E+00  0.00000000E+00  0.00000000E+00  0.00000000E+00  6.89990666E-02
  3.16423961E-01  7.44308291E-01  1.00000000E+00  0.00000000E+00  0.00000000E+00
  0.00000000E+00  0.00000000E+00  0.00000000E+00  0.00000000E+00  0.00000000E+00
  6.89990666E-02  3.16423961E-01  7.44308291E-01  1.00000000E+00  0.00000000E+00
  0.00000000E+00  0.00000000E+00  0.00000000E+00  0.00000000E+00  0.00000000E+00
  0.00000000E+00  0.00000000E+00  0.00000000E+00  0.00000000E+00  0.00000000E+00
  0.00000000E+00  0.00000000E+00  0.00000000E+00  0.00000000E+00  0.00000000E+00
  0.00000000E+00  0.00000000E+00  0.00000000E+00  0.00000000E+00  0.00000000E+00
  0.00000000E+00  0.00000000E+00  0.00000000E+00  0.00000000E+00  0.00000000E+00
  0.00000000E+00  0.00000000E+00  0.00000000E+00  0.00000000E+00  0.00000000E+00
  0.00000000E+00  0.00000000E+00  0.00000000E+00  0.00000000E+00  0.00000000E+00
  0.00000000E+00  0.00000000E+00  0.00000000E+00  0.00000000E+00  0.00000000E+00
  0.00000000E+00  0.00000000E+00  0.00000000E+00  0.00000000E+00  0.00000000E+00
  0.00000000E+00  0.00000000E+00  0.00000000E+00
Coordinates of each shell                  R   N=         132
  2.61152293E-18  5.08201915E-01  4.23516474E-22  2.61152293E-18  5.08201915E-01
  4.23516474E-22  2.61152293E-18  5.08201915E-01  4.23516474E-22  2.61152293E-18
  5.08201915E-01  4.23516474E-22  2.38634590E+00 -1.03276919E+00  5.53101387E-02
  2.38634590E+00 -1.03276919E+00  5.53101387E-02  2.38634590E+00 -1.03276919E+00
  5.53101387E-02  2.38634590E+00 -1.03276919E+00  5.53101387E-02 -2.38634590E+00
 -1.03276919E+00 -5.53101379E-02 -2.38634590E+00 -1.03276919E+00 -5.53101379E-02
 -2.38634590E+00 -1.03276919E+00 -5.53101379E-02 -2.38634590E+00 -1.03276919E+00
 -5.53101379E-02  4.69318221E+00  6.63888636E-01 -2.36387895E-02  4.69318221E+00
  6.63888636E-01 -2.36387895E-02  4.69318221E+00  6.63888636E-01 -2.36387895E-02
  4.69318221E+00  6.63888636E-01 -2.36387895E-02 -4.69318221E+00  6.63888636E-01
  2.36387847E-02 -4.69318221E+00  6.63888636E-01  2.36387847E-02 -4.69318221E+00
  6.63888636E-01  2.36387847E-02 -4.69318221E+00  6.63888636E-01  2.36387847E-02
 -3.40506755E-02  1.68383839E+00  1.54733050E+00 -3.40506755E-02  1.68383839E+00
  1.54733050E+00  3.40506744E-02  1.68383842E+00 -1.54733044E+00  3.40506744E-02
  1.68383842E+00 -1.54733044E+00  2.30802159E+00 -2.15847158E+00  1.77971735E+00
  2.30802159E+00 -2.15847158E+00  1.77971735E+00  2.29901790E+00 -2.29410689E+00
 -1.57202366E+00  2.29901790E+00 -2.29410689E+00 -1.57202366E+00 -2.30802157E+00
 -2.15847156E+00 -1.77971735E+00 -2.30802157E+00 -2.15847156E+00 -1.77971735E+00
 -2.29901791E+00 -2.29410690E+00  1.57202366E+00 -2.29901791E+00 -2.29410690E+00
  1.57202366E+00  6.38557890E+00 -5.15439513E-01  2.71346029E-02  6.38557890E+00
 -5.15439513E-01  2.71346029E-02  4.74095738E+00  1.78158102E+00 -1.75920103E+00
  4.74095738E+00  1.78158102E+00 -1.75920103E+00  4.74748539E+00  1.93717520E+00
  1.60082875E+00  4.74748539E+00  1.93717520E+00  1.60082875E+00 -6.38557890E+00
 -5.15439513E-01 -2.71346166E-02 -6.38557890E+00 -5.15439513E-01 -2.71346166E-02
 -4.74095739E+00  1.78158102E+00  1.75920102E+00 -4.74095739E+00  1.78158102E+00
  1.75920102E+00 -4.74748539E+00  1.93717520E+00 -1.60082875E+00 -4.74748539E+00
  1.93717520E+00 -1.60082875E+00
Constraint Structure                       R   N=          51
  2.61152293E-18  5.08201915E-01  4.23516474E-22  2.38634590E+00 -1.03276919E+00
  5.53101387E-02 -2.38634590E+00 -1.03276919E+00 -5.53101379E-02  4.69318221E+00
  6.63888636E-01 -2.36387895E-02 -4.69318221E+00  6.63888636E-01  2.36387847E-02
 -3.40506755E-02  1.68383839E+00  1.54733050E+00  3.40506744E-02  1.68383842E+00
 -1.54733044E+00  2.30802159E+00 -2.15847158E+00  1.77971735E+00  2.29901790E+00
 -2.29410689E+00 -1.57202366E+00 -2.30802157E+00 -2.15847156E+00 -1.77971735E+00
 -2.29901791E+00 -2.29410690E+00  1.57202366E+00  6.38557890E+00 -5.15439513E-01
  2.71346029E-02  4.74095738E+00  1.78158102E+00 -1.75920103E+00  4.74748539E+00
  1.93717520E+00  1.60082875E+00 -6.38557890E+00 -5.15439513E-01 -2.71346166E-02
 -4.74095739E+00  1.78158102E+00  1.75920102E+00 -4.74748539E+00  1.93717520E+00
 -1.60082875E+00
Num ILSW                                   I              100
ILSW                                       I   N=         100
           0           1           0           0           2           0
           0           0           0           0           0          -1
           0           0           0           0           0           0
           0           0           0           0           1           0
           1           0           0           0           0           0
           0           0      100000           0          -1           0
           0           0           0           0           0           0
           0           0           0           1           1           0
           0           0           1           0           0           0
           0           0           4          40           0           0
           0           0           0           0           0           0
           0           0           0           0           0           0
           0           0           0           0           0           0
           0           0           0           0           0           0
           0           0           0           0           0           0
           0           0           0           0           0           0
           0           0           0           0
Num RLSW                                   I               40
RLSW                                       R   N=          40
  1.00000000E+00  1.00000000E+00  1.00000000E+00  1.00000000E+00  1.00000000E+00
  0.00000000E+00  0.00000000E+00  1.00000000E+00  0.00000000E+00  0.00000000E+00
  0.00000000E+00  0.00000000E+00  1.00000000E+00  0.00000000E+00  0.00000000E+00
  0.00000000E+00  0.00000000E+00  1.00000000E+00  0.00000000E+00  0.00000000E+00
  0.00000000E+00  0.00000000E+00  1.00000000E+00  0.00000000E+00  0.00000000E+00
  0.00000000E+00  0.00000000E+00  1.00000000E+00  0.00000000E+00  0.00000000E+00
  0.00000000E+00  0.00000000E+00  0.00000000E+00  0.00000000E+00  0.00000000E+00
  0.00000000E+00  0.00000000E+00  0.00000000E+00  1.00000000E+00  1.00000000E+00
MxBond                                     I                4
NBond                                      I   N=          17
           4           4           4           4           4           1
           1           1           1           1           1           1
           1           1           1           1           1
IBond                                      I   N=          68
           2           3           6           7           1           4
           8           9           1           5          10          11
           2          12          13          14           3          15
          16          17           1           0           0           0
           1           0           0           0           2           0
           0           0           2           0           0           0
           3           0           0           0           3           0
           0           0           4           0           0           0
           4           0           0           0           4           0
           0           0           5           0           0           0
           5           0           0           0           5           0
           0           0
RBond                                      R   N=          68
  1.00000000E+00  1.00000000E+00  1.00000000E+00  1.00000000E+00  1.00000000E+00
  1.00000000E+00  1.00000000E+00  1.00000000E+00  1.00000000E+00  1.00000000E+00
  1.00000000E+00  1.00000000E+00  1.00000000E+00  1.00000000E+00  1.00000000E+00
  1.00000000E+00  1.00000000E+00  1.00000000E+00  1.00000000E+00  1.00000000E+00
  1.00000000E+00  0.00000000E+00  0.00000000E+00  0.00000000E+00  1.00000000E+00
  0.00000000E+00  0.00000000E+00  0.00000000E+00  1.00000000E+00  0.00000000E+00
  0.00000000E+00  0.00000000E+00  1.00000000E+00  0.00000000E+00  0.00000000E+00
  0.00000000E+00  1.00000000E+00  0.00000000E+00  0.00000000E+00  0.00000000E+00
  1.00000000E+00  0.00000000E+00  0.00000000E+00  0.00000000E+00  1.00000000E+00
  0.00000000E+00  0.00000000E+00  0.00000000E+00  1.00000000E+00  0.00000000E+00
  0.00000000E+00  0.00000000E+00  1.00000000E+00  0.00000000E+00  0.00000000E+00
  0.00000000E+00  1.00000000E+00  0.00000000E+00  0.00000000E+00  0.00000000E+00
  1.00000000E+00  0.00000000E+00  0.00000000E+00  0.00000000E+00  1.00000000E+00
  0.00000000E+00  0.00000000E+00  0.00000000E+00
Virial Ratio                               R      2.002136428997185E+00
SCF Energy                                 R     -2.127841409799073E+02
MP2 Energy                                 R     -2.134700092719029E+02
Total Energy                               R     -2.134700092719029E+02
Post-SCF wavefunction norm                 R      1.561865970727189E+00
RMS Force                                  R      4.724602771129431E-06
RMS Density                                R      1.223848580242199E-09
External E-field                           R   N=          35
  0.00000000E+00  0.00000000E+00  0.00000000E+00  0.00000000E+00  0.00000000E+00
  0.00000000E+00  0.00000000E+00  0.00000000E+00  0.00000000E+00  0.00000000E+00
  0.00000000E+00  0.00000000E+00  0.00000000E+00  0.00000000E+00  0.00000000E+00
  0.00000000E+00  0.00000000E+00  0.00000000E+00  0.00000000E+00  0.00000000E+00
  0.00000000E+00  0.00000000E+00  0.00000000E+00  0.00000000E+00  0.00000000E+00
  0.00000000E+00  0.00000000E+00  0.00000000E+00  0.00000000E+00  0.00000000E+00
  0.00000000E+00  0.00000000E+00  0.00000000E+00  0.00000000E+00  0.00000000E+00
IOpCl                                      I                0
IROHF                                      I                0
Alpha Orbital Energies                     R   N=          99
 -1.57067726E+01 -1.13042869E+01 -1.13042703E+01 -1.12409275E+01 -1.12409263E+01
 -1.33401926E+00 -1.07896512E+00 -1.02080020E+00 -9.00528088E-01 -8.77440900E-01
 -7.98527611E-01 -6.90500234E-01 -6.74394761E-01 -6.45032029E-01 -6.14339381E-01
 -5.87199202E-01 -5.47946962E-01 -5.47142283E-01 -5.30910144E-01 -5.29970740E-01
 -5.23769163E-01  1.74287267E-01  2.26311977E-01  2.32161325E-01  2.44873473E-01
  2.65870774E-01  2.84958268E-01  2.93236188E-01  3.03055286E-01  3.07181012E-01
  3.29256977E-01  3.31347222E-01  3.37766063E-01  3.40069226E-01  3.52712987E-01
  3.81151230E-01  4.22176935E-01  6.44482104E-01  6.81148902E-01  6.92023954E-01
  7.12925985E-01  7.32970626E-01  7.61568917E-01  7.85065561E-01  8.33973892E-01
  8.40617325E-01  9.16736649E-01  9.20694978E-01  1.00574986E+00  1.05188826E+00
  1.07653184E+00  1.09771912E+00  1.11674093E+00  1.13512910E+00  1.13879425E+00
  1.14522137E+00  1.15522981E+00  1.16401673E+00  1.17296919E+00  1.18413056E+00
  1.18575239E+00  1.20307144E+00  1.23047752E+00  1.23376994E+00  1.32569745E+00
  1.54861698E+00  1.60246666E+00  1.61898297E+00  1.69841261E+00  1.69921136E+00
  1.82319834E+00  1.95002495E+00  2.08297595E+00  2.10046219E+00  2.15776852E+00
  2.16964708E+00  2.22429259E+00  2.26016640E+00  2.28494337E+00  2.29129206E+00
  2.29756643E+00  2.34852609E+00  2.53183916E+00  2.55146192E+00  2.57190192E+00
  2.61445360E+00  2.62168184E+00  2.68274708E+00  2.72461319E+00  2.76921023E+00
  2.87083315E+00  2.89246562E+00  3.03523109E+00  3.10360885E+00  4.26215716E+00
  4.58762888E+00  4.59943852E+00  4.77501958E+00  4.83145436E+00
Alpha MO coefficients                      R   N=        9801
  9.95023613E-01  2.52629342E-02 -1.83045785E-13  1.29645699E-04 -8.67164589E-13
 -3.45684740E-03  4.88933290E-13  4.25828202E-04 -8.73858890E-12 -3.44352596E-03
 -3.35456798E-03 -3.27731254E-03  2.80171768E-13 -4.11056304E-06 -9.38095541E-12
 -2.62938862E-05  2.48826481E-05 -2.70433901E-04  1.51697355E-04 -4.34910527E-06
  1.63761130E-03 -4.08034960E-04  3.90381769E-04 -2.60760546E-05 -1.25386604E-05
 -7.09141983E-05 -9.21239398E-05 -2.73359250E-05  1.26009869E-06 -1.43014555E-06
 -2.62938861E-05  2.48826485E-05  2.70433901E-04  1.51697355E-04  4.34910614E-06
  1.63761130E-03  4.08034961E-04  3.90381769E-04  2.60760547E-05 -1.25386604E-05
 -7.09141983E-05 -9.21239398E-05  2.73359249E-05  1.26009816E-06  1.43014631E-06
 -2.42066225E-06  1.90333683E-05  5.98660051E-05  3.48569682E-06  4.44785016E-07
 -2.45415844E-04  1.61699180E-04  1.05478284E-04 -5.90653683E-06 -4.85676878E-05
 -2.05785818E-06 -3.04259226E-05 -1.78133437E-05  2.27403846E-07 -1.60643365E-06
 -2.42066232E-06  1.90333681E-05 -5.98660051E-05  3.48569673E-06 -4.44785395E-07
 -2.45415843E-04 -1.61699180E-04  1.05478285E-04  5.90653703E-06 -4.85676880E-05
 -2.05785831E-06 -3.04259227E-05  1.78133437E-05  2.27404020E-07  1.60643395E-06
  3.55431272E-04  4.00754198E-04  3.55431257E-04  4.00754212E-04 -8.73340951E-05
 -1.17200552E-04 -8.75283818E-05 -1.33603514E-04 -8.73340960E-05 -1.17200552E-04
 -8.75283808E-05 -1.33603514E-04 -2.94762186E-06  6.72868240E-05  1.98730514E-05
 -8.60839654E-05  1.93834242E-05 -8.11315390E-05 -2.94762188E-06  6.72868242E-05
  1.98730507E-05 -8.60839643E-05  1.93834247E-05 -8.11315410E-05 -1.03301018E-10
  9.67550670E-11  1.00912663E-04 -5.45247104E-12  4.23784132E-06  1.46024324E-09
  1.44073265E-03 -2.20084176E-10  1.97595791E-05 -2.88284937E-10 -1.79155968E-10
  1.05667920E-12  4.70896597E-04 -8.57254280E-12  1.27535377E-05  7.04205674E-01
  2.00632915E-02 -6.32784805E-04  3.30012026E-04 -1.17901656E-05 -1.17110483E-02
  8.87036476E-04 -2.10142211E-04  1.12129448E-05 -1.14877968E-03 -1.09455048E-03
 -1.00437795E-03  7.12301142E-05 -9.01350743E-06  2.68672730E-07 -7.04205113E-01
 -2.00632758E-02 -6.32784430E-04 -3.30011703E-04 -1.17901533E-05  1.17110398E-02
  8.87036695E-04  2.10141514E-04  1.12128810E-05  1.14877876E-03  1.09454954E-03
  1.00437707E-03  7.12300691E-05  9.01350946E-06  2.68671386E-07  3.39678086E-03
  1.57556940E-04 -4.05739810E-06 -1.71976082E-05  3.81855633E-06  2.12959479E-03
 -1.00981792E-03 -4.83998990E-04  1.07963866E-05 -2.32868561E-04 -1.76841814E-04
 -5.09993020E-05 -1.32290820E-04  6.72171413E-06  5.13949277E-06 -3.39677815E-03
 -1.57556884E-04 -4.05735456E-06  1.71976082E-05  3.81855678E-06 -2.12959234E-03
 -1.00981700E-03  4.83998333E-04  1.07963595E-05  2.32868372E-04  1.76841666E-04
  5.09992275E-05 -1.32290719E-04 -6.72170782E-06  5.13948742E-06 -6.63212652E-07
  1.81272385E-05  6.63106920E-07 -1.81270017E-05  2.18193554E-04  2.14510995E-03
  2.28707071E-04  2.10446453E-03 -2.18193459E-04 -2.14510866E-03 -2.28706970E-04
 -2.10446319E-03 -3.69098537E-05  3.74612069E-05 -1.15388161E-04  5.90914056E-05
 -1.09127765E-04  6.00276915E-05  3.69097721E-05 -3.74612546E-05  1.15388074E-04
 -5.90913952E-05  1.09127678E-04 -6.00276727E-05 -2.59483129E-04  2.43475482E-04
 -3.99842026E-11 -1.34742799E-05  2.39274875E-13  3.66679468E-03 -5.73592066E-10
 -5.52910223E-04 -3.33182615E-11 -7.23572559E-04 -4.49879498E-04  3.05434204E-06
 -1.87383641E-10 -1.98487598E-05 -9.18098142E-12  7.04143764E-01  1.97037965E-02
 -4.71503904E-04  4.06431016E-04 -1.64033928E-05 -1.06410075E-02 -2.74820577E-04
 -8.79726852E-04  3.91734300E-05 -1.15378836E-03 -1.17677961E-03 -1.10862337E-03
  5.63202671E-05  1.52761408E-06  4.79908199E-06  7.04144325E-01  1.97038125E-02
  4.71504408E-04  4.06431279E-04  1.64034037E-05 -1.06410168E-02  2.74819868E-04
 -8.79727019E-04 -3.91734018E-05 -1.15378928E-03 -1.17678048E-03 -1.10862417E-03
 -5.63203238E-05  1.52760755E-06 -4.79908438E-06  3.40371697E-03  7.03544049E-05
 -5.46945877E-05 -1.36792267E-07 -1.26095107E-06  3.07634629E-03 -1.15787451E-03
 -8.23814656E-04  4.54631219E-05 -2.37281243E-04 -1.86241357E-04 -9.33985028E-05
 -1.27407702E-04  5.62491024E-06  5.74053519E-06  3.40371968E-03  7.03545308E-05
  5.46945910E-05 -1.36805969E-07  1.26094954E-06  3.07634798E-03  1.15787532E-03
 -8.23815040E-04 -4.54631423E-05 -2.37281429E-04 -1.86241498E-04 -9.33985433E-05
  1.27407808E-04  5.62491354E-06 -5.74053872E-06 -1.32379366E-04  2.98201337E-04
 -1.32379374E-04  2.98201318E-04  1.23109924E-04  1.64134378E-03  1.22276843E-04
  1.65784385E-03  1.23110103E-04  1.64134550E-03  1.22277020E-04  1.65784551E-03
 -1.02515738E-04 -5.94520959E-05 -1.08257798E-04  1.94443136E-05 -1.10726701E-04
  1.63949631E-05 -1.02515767E-04 -5.94520660E-05 -1.08257887E-04  1.94443626E-05
 -1.10726790E-04  1.63950085E-05 -1.96383073E-10 -1.30272279E-09  1.90566760E-04
 -4.98117268E-10  4.33749486E-06  1.00700816E-09 -9.62590058E-04  4.34087766E-09
 -3.16973512E-05 -1.06674374E-10 -5.69259480E-10 -7.33186110E-10  3.12312060E-05
 -4.19869027E-11  8.37405148E-06  3.57970113E-03 -1.00317392E-04 -1.70022994E-05
  6.13608305E-05  8.04515873E-07 -1.91944436E-03 -1.50631659E-03 -6.67320985E-04
  2.33555446E-05  2.91299251E-04  1.90090490E-04  3.08734391E-05  1.07239268E-04
 -5.73030984E-06 -5.81886582E-06 -3.57974853E-03  1.00316626E-04 -1.70020958E-05
 -6.13608833E-05  8.04485652E-07  1.91948473E-03 -1.50632655E-03  6.67330221E-04
  2.33562244E-05 -2.91302730E-04 -1.90093469E-04 -3.08744071E-05  1.07241333E-04
  5.73042752E-06 -5.81897810E-06 -7.04074850E-01 -2.02345720E-02  2.19036516E-04
  1.04163724E-04 -6.24007027E-06  1.08108084E-02 -6.24045249E-04 -3.56387210E-04
  2.77473913E-05  1.31675502E-03  1.31175247E-03  1.28938662E-03  2.73641974E-05
 -2.29648383E-06 -1.44837832E-06  7.04084023E-01  2.02348353E-02  2.19039059E-04
 -1.04165058E-04 -6.24010627E-06 -1.08109475E-02 -6.24052188E-04  3.56390717E-04
  2.77473511E-05 -1.31677226E-03 -1.31176950E-03 -1.28940368E-03  2.73645019E-05
  2.29649208E-06 -1.44838277E-06 -5.96950724E-06  3.20798542E-05  5.96777559E-06
 -3.20827411E-05  5.90111370E-05 -1.02951584E-04  4.91231980E-05 -8.42728351E-05
 -5.90126605E-05  1.02951208E-04 -4.91248084E-05  8.42724125E-05 -1.11071727E-04