028_MeF Gaussian SP Calculation on g2-node38.bme.utexas.edu             
Freq      RMP2-FC                                                     6-31G(d)            
Number of atoms                            I                5
Info1-9                                    I   N=           9
          16          15        1002           0           0         100
           6           2           1
Charge                                     I                0
Multiplicity                               I                1
Number of electrons                        I               18
Number of alpha electrons                  I                9
Number of beta electrons                   I                9
Number of basis functions                  I               36
Number of independent functions            I               36
Number of point charges in /Mol/           I                0
Number of translation vectors              I                0
Atomic numbers                             I   N=           5
           9           6           1           1           1
Nuclear charges                            R   N=           5
  9.00000000E+00  6.00000000E+00  1.00000000E+00  1.00000000E+00  1.00000000E+00
Current cartesian coordinates              R   N=          15
  4.49173508E-07  1.42777961E+00  3.15205254E-20  4.49173508E-07 -1.20262232E+00
 -2.65498171E-20 -1.94988159E+00 -1.87808880E+00 -4.14597399E-20  9.74937427E-01
 -1.87809688E+00  1.68864652E+00  9.74937427E-01 -1.87809688E+00 -1.68864652E+00
Force Field                                I                0
Int Atom Types                             I   N=           5
           0           0           0           0           0
MM charges                                 R   N=           5
  0.00000000E+00  0.00000000E+00  0.00000000E+00  0.00000000E+00  0.00000000E+00
Integer atomic weights                     I   N=           5
          19          12           1           1           1
Real atomic weights                        R   N=           5
  1.89984032E+01  1.20000000E+01  1.00782504E+00  1.00782504E+00  1.00782504E+00
Atom fragment info                         I   N=           5
           0           0           0           0           0
Atom residue num                           I   N=           5
           0           0           0           0           0
Nuclear spins                              I   N=           5
           1           0           1           1           1
Nuclear ZEff                               R   N=           5
 -6.75000000E+00 -3.60000000E+00 -1.00000000E+00 -1.00000000E+00 -1.00000000E+00
Nuclear QMom                               R   N=           5
  0.00000000E+00  0.00000000E+00  0.00000000E+00  0.00000000E+00  0.00000000E+00
Nuclear GFac                               R   N=           5
  2.62886700E+00  0.00000000E+00  2.79284600E+00  2.79284600E+00  2.79284600E+00
MicOpt                                     I   N=           5
          -1          -1          -1          -1          -1
Number of contracted shells                I               14
Number of primitive shells                 I               34
Pure/Cartesian d shells                    I                1
Pure/Cartesian f shells                    I                0
Highest angular momentum                   I                2
Largest degree of contraction              I                6
Shell types                                I   N=          14
           0          -1          -1           2           0          -1
          -1           2           0           0           0           0
           0           0
Number of primitives per shell             I   N=          14
           6           3           1           1           6           3
           1           1           3           1           3           1
           3           1
Shell to atom map                          I   N=          14
           1           1           1           1           2           2
           2           2           3           3           4           4
           5           5
Primitive exponents                        R   N=          34
  7.00171309E+03  1.05136609E+03  2.39285690E+02  6.73974453E+01  2.15199573E+01
  7.40310130E+00  2.08479528E+01  4.80830834E+00  1.34406986E+00  3.58151393E-01
  8.00000000E-01  3.04752488E+03  4.57369518E+02  1.03948685E+02  2.92101553E+01
  9.28666296E+00  3.16392696E+00  7.86827235E+00  1.88128854E+00  5.44249258E-01
  1.68714478E-01  8.00000000E-01  1.87311370E+01  2.82539436E+00  6.40121692E-01
  1.61277759E-01  1.87311370E+01  2.82539436E+00  6.40121692E-01  1.61277759E-01
  1.87311370E+01  2.82539436E+00  6.40121692E-01  1.61277759E-01
Contraction coefficients                   R   N=          34
  1.81961690E-03  1.39160796E-02  6.84053245E-02  2.33185760E-01  4.71267439E-01
  3.56618546E-01 -1.08506975E-01 -1.46451658E-01  1.12868858E+00  1.00000000E+00
  1.00000000E+00  1.83473713E-03  1.40373228E-02  6.88426223E-02  2.32184443E-01
  4.67941348E-01  3.62311985E-01 -1.19332420E-01 -1.60854152E-01  1.14345644E+00
  1.00000000E+00  1.00000000E+00  3.34946043E-02  2.34726953E-01  8.13757326E-01
  1.00000000E+00  3.34946043E-02  2.34726953E-01  8.13757326E-01  1.00000000E+00
  3.34946043E-02  2.34726953E-01  8.13757326E-01  1.00000000E+00
P(S=P) Contraction coefficients            R   N=          34
  0.00000000E+00  0.00000000E+00  0.00000000E+00  0.00000000E+00  0.00000000E+00
  0.00000000E+00  7.16287242E-02  3.45912103E-01  7.22469956E-01  1.00000000E+00
  0.00000000E+00  0.00000000E+00  0.00000000E+00  0.00000000E+00  0.00000000E+00
  0.00000000E+00  0.00000000E+00  6.89990666E-02  3.16423961E-01  7.44308291E-01
  1.00000000E+00  0.00000000E+00  0.00000000E+00  0.00000000E+00  0.00000000E+00
  0.00000000E+00  0.00000000E+00  0.00000000E+00  0.00000000E+00  0.00000000E+00
  0.00000000E+00  0.00000000E+00  0.00000000E+00  0.00000000E+00
Coordinates of each shell                  R   N=          42
  4.49173508E-07  1.42777961E+00  2.10136836E-20  4.49173508E-07  1.42777961E+00
  2.10136836E-20  4.49173508E-07  1.42777961E+00  2.10136836E-20  4.49173508E-07
  1.42777961E+00  2.10136836E-20  4.49173508E-07 -1.20262232E+00 -1.76998780E-20
  4.49173508E-07 -1.20262232E+00 -1.76998780E-20  4.49173508E-07 -1.20262232E+00
 -1.76998780E-20  4.49173508E-07 -1.20262232E+00 -1.76998780E-20 -1.94988159E+00
 -1.87808880E+00 -2.76398266E-20 -1.94988159E+00 -1.87808880E+00 -2.76398266E-20
  9.74937427E-01 -1.87809688E+00  1.68864652E+00  9.74937427E-01 -1.87809688E+00
  1.68864652E+00  9.74937427E-01 -1.87809688E+00 -1.68864652E+00  9.74937427E-01
 -1.87809688E+00 -1.68864652E+00
Constraint Structure                       R   N=          15
  4.49173508E-07  1.42777961E+00  2.10136836E-20  4.49173508E-07 -1.20262232E+00
 -1.76998780E-20 -1.94988159E+00 -1.87808880E+00 -2.76398266E-20  9.74937427E-01
 -1.87809688E+00  1.68864652E+00  9.74937427E-01 -1.87809688E+00 -1.68864652E+00
Num ILSW                                   I              100
ILSW                                       I   N=         100
           0           1           0           0           2           0
           0           0           0           0           0          -1
           0           0           0           0           0           0
           0           0           0           0           1           0
           1           0           0           0           0           0
           0           0      100000           0          -1           0
           0           0           0           0           0           0
           0           0           0           1           1           0
           0           0           1           0           0           0
           0           0           4          40           0           0
           0           0           0           0           0           0
           0           0           0           0           0           0
           0           0           0           0           0           0
           0           0           0           0           0           0
           0           0           0           0           0           0
           0           0           0           0           0           0
           0           0           0           0
Num RLSW                                   I               40
RLSW                                       R   N=          40
  1.00000000E+00  1.00000000E+00  1.00000000E+00  1.00000000E+00  1.00000000E+00
  0.00000000E+00  0.00000000E+00  1.00000000E+00  0.00000000E+00  0.00000000E+00
  0.00000000E+00  0.00000000E+00  1.00000000E+00  0.00000000E+00  0.00000000E+00
  0.00000000E+00  0.00000000E+00  1.00000000E+00  0.00000000E+00  0.00000000E+00
  0.00000000E+00  0.00000000E+00  1.00000000E+00  0.00000000E+00  0.00000000E+00
  0.00000000E+00  0.00000000E+00  1.00000000E+00  0.00000000E+00  0.00000000E+00
  0.00000000E+00  0.00000000E+00  0.00000000E+00  0.00000000E+00  0.00000000E+00
  0.00000000E+00  0.00000000E+00  0.00000000E+00  1.00000000E+00  1.00000000E+00
MxBond                                     I                4
NBond                                      I   N=           5
           1           4           1           1           1
IBond                                      I   N=          20
           2           0           0           0           1           3
           4           5           2           0           0           0
           2           0           0           0           2           0
           0           0
RBond                                      R   N=          20
  1.00000000E+00  0.00000000E+00  0.00000000E+00  0.00000000E+00  1.00000000E+00
  1.00000000E+00  1.00000000E+00  1.00000000E+00  1.00000000E+00  0.00000000E+00
  0.00000000E+00  0.00000000E+00  1.00000000E+00  0.00000000E+00  0.00000000E+00
  0.00000000E+00  1.00000000E+00  0.00000000E+00  0.00000000E+00  0.00000000E+00
Virial Ratio                               R      2.002030092207925E+00
SCF Energy                                 R     -1.390337826694115E+02
MP2 Energy                                 R     -1.393358561237429E+02
Total Energy                               R     -1.393358561237429E+02
Post-SCF wavefunction norm                 R      1.469538493924321E+00
RMS Force                                  R      2.753808582531456E-07
RMS Density                                R      2.185302191603761E-09
External E-field                           R   N=          35
  0.00000000E+00  0.00000000E+00  0.00000000E+00  0.00000000E+00  0.00000000E+00
  0.00000000E+00  0.00000000E+00  0.00000000E+00  0.00000000E+00  0.00000000E+00
  0.00000000E+00  0.00000000E+00  0.00000000E+00  0.00000000E+00  0.00000000E+00
  0.00000000E+00  0.00000000E+00  0.00000000E+00  0.00000000E+00  0.00000000E+00
  0.00000000E+00  0.00000000E+00  0.00000000E+00  0.00000000E+00  0.00000000E+00
  0.00000000E+00  0.00000000E+00  0.00000000E+00  0.00000000E+00  0.00000000E+00
  0.00000000E+00  0.00000000E+00  0.00000000E+00  0.00000000E+00  0.00000000E+00
IOpCl                                      I                0
IROHF                                      I                0
Alpha Orbital Energies                     R   N=          36
 -2.62685125E+01 -1.13064623E+01 -1.56945643E+00 -9.50369854E-01 -6.82919438E-01
 -6.82919412E-01 -6.60395009E-01 -5.24400836E-01 -5.24400542E-01  2.47610621E-01
  3.07840151E-01  3.15263143E-01  3.15263314E-01  7.43035525E-01  7.43036125E-01
  7.72076623E-01  1.09783046E+00  1.11215942E+00  1.11215951E+00  1.19108539E+00
  1.45316924E+00  1.57499956E+00  1.57500039E+00  1.80266088E+00  1.80266116E+00
  2.09105921E+00  2.13175094E+00  2.13175105E+00  2.42157570E+00  2.51358023E+00
  2.51358298E+00  2.75366000E+00  2.75366117E+00  3.35087922E+00  4.43681480E+00
  4.63359941E+00
Alpha MO coefficients                      R   N=        1296
  9.94427405E-01  1.77416094E-02  4.91175342E-10 -8.85446158E-04  0.00000000E+00
  8.21144619E-03 -1.31658637E-10  5.86516947E-04  0.00000000E+00 -4.53759703E-03
 -5.05181956E-03 -4.53759713E-03  1.71863345E-10  0.00000000E+00  0.00000000E+00
 -1.76727041E-05  1.74098460E-04  1.66090710E-10  5.50839984E-04  0.00000000E+00
 -2.95092947E-05 -5.58247382E-10 -1.47191635E-04  0.00000000E+00 -4.40307800E-05
  3.74208692E-04 -4.40309398E-05  1.45804601E-10  0.00000000E+00  0.00000000E+00
 -5.74048494E-06 -6.87442807E-05 -5.74011664E-06 -6.87437833E-05 -5.74011664E-06
 -6.87437833E-05 -1.37267289E-04  7.40447705E-05 -7.59494599E-11 -3.21573090E-04
  0.00000000E+00  9.53162924E-04  6.26310884E-10  9.90483035E-04  0.00000000E+00
  7.00471734E-05 -1.11835177E-03  7.00473249E-05 -3.29021672E-10  0.00000000E+00
  0.00000000E+00  9.95801080E-01  2.70207471E-02  3.22339220E-10  1.25073548E-03
  0.00000000E+00 -1.10710731E-02  6.44802522E-09  6.79239340E-04  0.00000000E+00
 -1.73770913E-03 -1.30393783E-03 -1.73770828E-03 -1.37638646E-09  0.00000000E+00
  0.00000000E+00  3.30885731E-05  2.34733134E-03  3.30870663E-05  2.34732830E-03
  3.30870663E-05  2.34732830E-03 -2.22061399E-01  5.17211991E-01 -1.57956719E-08
 -5.85832532E-02  0.00000000E+00  4.40733692E-01 -8.05791080E-09 -3.82297007E-02
  0.00000000E+00  2.16406673E-02  3.83362787E-02  2.16406679E-02 -2.97437486E-09
  0.00000000E+00  0.00000000E+00 -5.22518348E-02  9.13984025E-02 -2.44732170E-08
  7.94910459E-02  0.00000000E+00  3.27267401E-02  3.43722599E-08  5.02369190E-03
  0.00000000E+00 -6.46209240E-03  2.08466671E-02 -6.46209645E-03  2.40273767E-09
  0.00000000E+00  0.00000000E+00  1.45488614E-02  2.23422887E-03  1.45487984E-02
  2.23418246E-03  1.45487984E-02  2.23418246E-03  6.19732793E-02 -1.32139432E-01
 -1.56582097E-07 -2.00685841E-01  0.00000000E+00 -2.13568410E-01 -9.36573030E-08
 -1.21407408E-01  0.00000000E+00 -2.86876143E-03  2.07431392E-02 -2.86876521E-03
  4.20454073E-09  0.00000000E+00  0.00000000E+00 -1.83161695E-01  3.62483751E-01
 -2.91702647E-07 -6.03287859E-02  0.00000000E+00  3.24556821E-01 -8.41263680E-08
 -4.37029119E-02  0.00000000E+00  1.30338731E-02 -3.42450858E-03  1.30339200E-02
 -6.17129042E-08  0.00000000E+00  0.00000000E+00  1.39781013E-01  3.71995541E-02
  1.39781002E-01  3.71995454E-02  1.39781002E-01  3.71995454E-02  0.00000000E+00
  0.00000000E+00  0.00000000E+00  0.00000000E+00  4.97297981E-01  0.00000000E+00
  0.00000000E+00  0.00000000E+00  3.40576612E-01  0.00000000E+00  0.00000000E+00
  0.00000000E+00  0.00000000E+00  2.44448159E-04 -2.07805146E-02  0.00000000E+00
  0.00000000E+00  0.00000000E+00  0.00000000E+00  2.93408018E-01  0.00000000E+00
  0.00000000E+00  0.00000000E+00  1.50649190E-01  0.00000000E+00  0.00000000E+00
  0.00000000E+00  0.00000000E+00  1.77567577E-02  1.99879051E-03  0.00000000E+00
  0.00000000E+00  1.29969569E-01  7.85016802E-02 -1.29969569E-01 -7.85016802E-02
 -1.63635878E-07  2.89462061E-07  4.97298359E-01  2.15570524E-06  0.00000000E+00
  7.97709028E-07  3.40576921E-01  1.48411806E-06  0.00000000E+00 -2.11699042E-04
 -1.55632712E-07  2.11698263E-04 -2.07805300E-02  0.00000000E+00  0.00000000E+00
 -2.10425944E-07  3.97764272E-07  2.93407694E-01 -1.76081907E-06  0.00000000E+00
  7.98089930E-07  1.50648893E-01 -6.22697075E-07  0.00000000E+00 -1.53778218E-02
 -1.02508958E-07  1.53779108E-02  1.99891822E-03  0.00000000E+00  0.00000000E+00
 -1.50075375E-01 -9.06458015E-02  7.50381988E-02  4.53231797E-02  7.50381988E-02
  4.53231797E-02 -3.39237000E-02  6.24057623E-02 -2.72756257E-06  5.12828687E-01
  0.00000000E+00  1.55254479E-01 -1.91410423E-06  3.63201822E-01  0.00000000E+00
  1.33157290E-03 -3.69772592E-02  1.33157024E-03  1.22486365E-07  0.00000000E+00
  0.00000000E+00 -1.83700731E-02  3.09482631E-02 -1.13024598E-06 -3.23622217E-01
  0.00000000E+00  9.89669406E-02 -7.25634194E-07 -1.02844657E-01  0.00000000E+00
  1.90582720E-02 -3.80633916E-02  1.90582491E-02 -1.02718914E-07  0.00000000E+00
  0.00000000E+00  8.28448361E-02  5.28160072E-02  8.28445660E-02  5.28158775E-02
  8.28445660E-02  5.28158775E-02  0.00000000E+00  0.00000000E+00  0.00000000E+00
  0.00000000E+00  4.35057916E-01  0.00000000E+00  0.00000000E+00  0.00000000E+00
  3.45936724E-01  0.00000000E+00  0.00000000E+00  0.00000000E+00  0.00000000E+00
 -1.08109073E-03 -9.24894861E-03  0.00000000E+00  0.00000000E+00  0.00000000E+00
  0.00000000E+00 -3.55611278E-01  0.00000000E+00  0.00000000E+00  0.00000000E+00
 -1.32785928E-01  0.00000000E+00  0.00000000E+00  0.00000000E+00  0.00000000E+00
 -2.54512277E-02  3.44583139E-02  0.00000000E+00  0.00000000E+00 -2.10879943E-01
 -1.98994591E-01  2.10879943E-01  1.98994591E-01  2.01334272E-08 -7.03859811E-08
  4.35057563E-01  9.47056837E-07  0.00000000E+00 -1.06580680E-07  3.45936545E-01
  7.20783824E-07  0.00000000E+00  9.36264079E-04 -4.25439089E-08 -9.36265370E-04
 -9.24891502E-03  0.00000000E+00  0.00000000E+00 -1.30825912E-08 -5.78934904E-08
 -3.55611623E-01  8.17893763E-08  0.00000000E+00  3.76110290E-07 -1.32786499E-01
 -1.03011470E-07  0.00000000E+00  2.20416380E-02 -1.83876142E-07 -2.20414723E-02
  3.44581807E-02  0.00000000E+00  0.00000000E+00  2.43503440E-01  2.29779172E-01
 -1.21751423E-01 -1.14889539E-01 -1.21751423E-01 -1.14889539E-01 -1.39152492E-02
  3.53030897E-02 -8.56662324E-08 -8.84929524E-03  0.00000000E+00  1.12639813E-01
  1.00350399E-08 -2.77229240E-02  0.00000000E+00  1.19021674E-04  1.39269796E-02
  1.19008455E-04 -3.91380423E-09  0.00000000E+00  0.00000000E+00 -1.24665747E-01
  1.10289163E-01 -4.75346975E-07 -1.92129151E-01  0.00000000E+00  2.27903942E+00
 -3.16890826E-06 -7.63206870E-01  0.00000000E+00 -1.30129813E-02 -7.68393602E-03
 -1.30129729E-02 -1.32069212E-08  0.00000000E+00  0.00000000E+00 -1.17069877E-02
 -1.18510154E+00 -1.17068219E-02 -1.18510060E+00 -1.17068219E-02 -1.18510060E+00
  8.88144087E-02 -1.91603329E-02 -3.94187092E-06  2.75766222E-01  0.00000000E+00
 -1.14568960E+00 -8.43681861E-06  5.90977245E-01  0.00000000E+00  7.14595936E-02
  4.52256850E-02  7.14591229E-02 -7.54035863E-08  0.00000000E+00  0.00000000E+00
 -1.01261281E-01  1.20615158E-01  1.61697937E-05  2.32708134E-01  0.00000000E+00
  1.23381131E+00  6.29131730E-05  1.11766430E+00  0.00000000E+00  1.84064912E-02
 -1.17117512E-02  1.84053942E-02 -7.81438518E-08  0.00000000E+00  0.00000000E+00
  3.90552040E-02 -2.76157632E-01  3.90515673E-02 -2.76277920E-01  3.90515673E-02
 -2.76277920E-01 -3.94866604E-06  3.69723449E-07 -8.44650596E-02 -1.18731979E-05
  0.00000000E+00  5.25503323E-05 -1.86103619E-01 -2.63351372E-05  0.00000000E+00
  5.54744428E-03 -2.18459087E-06 -5.55415165E-03 -1.92845896E-03  0.00000000E+00
  0.00000000E+00  4.31955697E-06 -4.86193176E-06  3.67547960E-01 -1.06540747E-05
  0.00000000E+00 -5.40674015E-05  1.45847705E+00 -5.37594938E-05  0.00000000E+00
  1.23031434E-02  4.48031925E-07 -1.23047458E-02 -1.00559068E-03  0.00000000E+00
  0.00000000E+00  4.56883825E-02  1.90009510E+00 -2.28470993E-02 -9.50029728E-01
 -2.28470993E-02 -9.50029728E-01  0.00000000E+00  0.00000000E+00  0.00000000E+00
  0.00000000E+00  8.44654353E-02  0.00000000E+00  0.00000000E+00  0.00000000E+00
  1.86104284E-01  0.00000000E+00  0.00000000E+00  0.00000000E+00  0.00000000E+00
  6.40947705E-03  1.92845011E-03  0.00000000E+00  0.00000000E+00  0.00000000E+00
  0.00000000E+00 -3.67548372E-01  0.00000000E+00  0.00000000E+00  0.00000000E+00
 -1.45847828E+00  0.00000000E+00  0.00000000E+00  0.00000000E+00  0.00000000E+00
  1.42072890E-02  1.00556750E-03  0.00000000E+00  0.00000000E+00  3.95684578E-02
  1.64552166E+00 -3.95684578E-02 -1.64552166E+00 -1.46843857E-07 -1.44728778E-06
 -1.35159902E-01  1.78996913E-06  0.00000000E+00  6.85913204E-06 -1.93075168E-01
 -1.29726813E-06  0.00000000E+00  1.33770380E-02  2.49542199E-07 -1.33788442E-02
  2.33305221E-02  0.00000000E+00  0.00000000E+00 -2.19625819E-07  6.17087664E-07
 -7.34963070E-01  5.48682541E-06  0.00000000E+00 -3.03894636E-07  1.67287511E+00
 -1.08394125E-05  0.00000000E+00  9.10694570E-02 -8.77389244E-07 -9.10693749E-02
  3.04298056E-02  0.00000000E+00  0.00000000E+00  4.78640280E-01  3.78113948E-01
 -2.39321710E-01 -1.89057181E-01 -2.39321710E-01 -1.89057181E-01  0.00000000E+00
  0.00000000E+00  0.00000000E+00  0.00000000E+00 -1.35160947E-01  0.00000000E+00
  0.00000000E+00  0.00000000E+00 -1.93075217E-01  0.00000000E+00  0.00000000E+00
  0.00000000E+00  0.00000000E+00 -1.54474483E-02  2.33302545E-02  0.00000000E+00
  0.00000000E+00  0.00000000E+00  0.00000000E+00 -7.34962804E-01  0.00000000E+00
  0.00000000E+00  0.00000000E+00  1.67287904E+00  0.00000000E+00  0.00000000E+00
  0.00000000E+00  0.00000000E+00 -1.05157744E-01  3.04304916E-02  0.00000000E+00
  0.00000000E+00 -4.14515714E-01 -3.27460061E-01  4.14515714E-01  3.27460061E-01
 -6.32654147E-04  2.10905952E-01 -5.47647938E-07 -3.34127197E-01  0.00000000E+00
 -7.37721199E-01 -1.08813029E-06  5.33469253E-02  0.00000000E+00  1.22029901E-01
 -8.47445118E-02  1.22029768E-01  2.70221188E-07  0.00000000E+00  0.00000000E+00
  4.13994110E-02 -4.19234724E-01 -5.76847957E-06 -9.97690535E-01  0.00000000E+00
  3.76950702E-01  1.01653026E-05  1.13990276E+00  0.00000000E+00 -3.56950186E-02
  9.94178797E-02 -3.56957055E-02 -1.59240944E-09  0.00000000E+00  0.00000000E+00
  7.96800665E-02  1.69095344E-02  7.96777797E-02  1.69056500E-02  7.96777797E-02
  1.69056500E-02 -2.40896158E-02 -8.21054909E-01 -2.19445603E-06 -7.65272677E-02
  0.00000000E+00  1.27842992E+00  3.41521399E-06  2.63385603E-01  0.00000000E+00
 -3.47518592E-01 -4.45740695E-01 -3.47518066E-01 -2.50222861E-06  0.00000000E+00
  0.00000000E+00 -1.09498373E-01 -7.28620972E-01  1.98433466E-05 -7.80174044E-03
  0.00000000E+00  2.35465047E+00 -3.38295847E-05 -3.92606940E-01  0.00000000E+00
 -1.24854121E-01  7.27783554E-02 -1.24860261E-01  3.78888173E-06  0.00000000E+00
  0.00000000E+00 -5.94959511E-01 -3.20425669E-01 -5.94985080E-01 -3.20370183E-01
 -5.94985080E-01 -3.20370183E-01 -5.69994243E-07 -2.04667329E-05  9.31261418E-02
 -1.61610577E-06  0.00000000E+00  3.29478897E-05 -1.19304037E-01  6.64392284E-06
  0.00000000E+00  5.11025847E-03 -1.05661047E-05 -5.12773158E-03  1.04756083E-01
  0.00000000E+00  0.00000000E+00 -2.42949903E-06 -1.62500453E-05 -8.60985268E-01
  2.88672164E-06  0.00000000E+00  5.28079975E-05  1.24899605E+00 -1.29822014E-05
  0.00000000E+00 -1.46399778E-01  1.95335591E-06  1.46393783E-01 -1.43326760E-01
  0.00000000E+00  0.00000000E+00 -7.98304421E-01  1.53922066E+00  3.99132759E-01
 -7.69621742E-01  3.99132759E-01 -7.69621742E-01  0.00000000E+00  0.00000000E+00
  0.00000000E+00  0.00000000E+00 -9.31262522E-02  0.00000000E+00  0.00000000E+00
  0.00000000E+00  1.19304482E-01  0.00000000E+00  0.00000000E+00  0.00000000E+00
  0.00000000E+00  5.91092966E-03 -1.04756458E-01  0.00000000E+00  0.00000000E+00
  0.00000000E+00  0.00000000E+00  8.60985634E-01  0.00000000E+00  0.00000000E+00
  0.00000000E+00 -1.24899730E+00  0.00000000E+00  0.00000000E+00  0.00000000E+00
  0.00000000E+00 -1.69043476E-01  1.43327903E-01  0.00000000E+00  0.00000000E+00
 -6.91340531E-01  1.33301092E+00  6.91340531E-01 -1.33301092E+00 -4.26466049E-03
 -1.38700430E-01 -3.94244832E-07 -8.96944293E-02  0.00000000E+00  2.64086457E-02
  3.71847080E-07  1.68215683E-01  0.00000000E+00 -4.06986039E-02 -1.26851824E-01
 -4.06985720E-02 -9.01763817E-08  0.00000000E+00  0.00000000E+00  6.17075197E-03
 -1.72177722E+00  1.86317668E-06  4.57082147E-01  0.00000000E+00  3.88288585E+00
 -4.17594056E-06 -6.41611112E-01  0.00000000E+00 -6.47417676E-02 -1.36433795E-01
 -6.47415708E-02 -1.37036762E-07  0.00000000E+00  0.00000000E+00  3.76990546E-01
 -1.20830753E+00  3.76990213E-01 -1.20830555E+00  3.76990213E-01 -1.20830555E+00
 -7.77149951E-02 -1.11980833E+00 -1.97886592E-07 -6.63053531E-01  0.00000000E+00
  2.55832126E+00 -5.59471159E-08  6.70922992E-01  0.00000000E+00 -5.88873859E-01
 -4.72282768E-01 -5.88874320E-01 -5.47620523E-08  0.00000000E+00  0.00000000E+00
  7.37837454E-02  6.81775201E-01  4.52429443E-07  1.46878447E-01  0.00000000E+00
 -1.86417978E+00  2.28001404E-06 -1.12388266E-01  0.00000000E+00 -8.27552254E-03
  2.44777288E-01 -8.27719533E-03 -2.57278037E-07  0.00000000E+00  0.00000000E+00
  2.67681100E-01  2.77598713E-01  2.67678928E-01  2.77598568E-01  2.67678928E-01
  2.77598568E-01  5.56088097E-08  5.40934852E-07 -8.76755518E-01 -1.94735193E-07
  0.00000000E+00 -1.42085733E-06  1.03692884E+00  4.27115450E-07  0.00000000E+00
 -4.97372011E-02  3.94901182E-07  4.97376036E-02 -3.09643003E-02  0.00000000E+00
  0.00000000E+00  7.48783439E-08  1.31713675E-06 -2.36664008E-02 -4.67761261E-08
  0.00000000E+00 -3.38765905E-06 -4.37249242E-01  1.67204836E-06  0.00000000E+00
 -2.17994376E-01  4.28401130E-08  2.17994515E-01  2.18040823E-01  0.00000000E+00
  0.00000000E+00 -1.24329585E-01 -1.07178361E-01  6.21651647E-02  5.35907255E-02
  6.21651647E-02  5.35907255E-02  0.00000000E+00  0.00000000E+00  0.00000000E+00
  0.00000000E+00 -8.76755524E-01  0.00000000E+00  0.00000000E+00  0.00000000E+00
  1.03693007E+00  0.00000000E+00  0.00000000E+00  0.00000000E+00  0.00000000E+00
  5.74322924E-02 -3.09630516E-02  0.00000000E+00  0.00000000E+00  0.00000000E+00
  0.00000000E+00 -2.36653025E-02  0.00000000E+00  0.00000000E+00  0.00000000E+00
 -4.37253609E-01  0.00000000E+00  0.00000000E+00  0.00000000E+00  0.00000000E+00
  2.51720044E-01  2.18038954E-01  0.00000000E+00  0.00000000E+00  1.07673181E-01
  9.28228814E-02 -1.07673181E-01 -9.28228814E-02  1.10420157E-07  1.67002057E-06
  2.82181823E-01 -1.04947999E-06  0.00000000E+00 -3.68813168E-06 -4.94362306E-01
  1.71418136E-06  0.00000000E+00 -7.76010098E-02  1.17688557E-06  7.76019007E-02
 -5.26328998E-01  0.00000000E+00  0.00000000E+00  1.01445291E-07 -1.74705134E-09
 -1.97067702E-01  5.27807100E-07  0.00000000E+00  2.10468812E-07  3.17378315E-01
  4.58583673E-07  0.00000000E+00 -2.81951981E-01  2.17554045E-08  2.81952289E-01
  5.94267237E-01  0.00000000E+00  0.00000000E+00 -1.04362029E-01  2.40575686E-01
  5.21818587E-02 -1.20287870E-01  5.21818587E-02 -1.20287870E-01  0.00000000E+00
  0.00000000E+00  0.00000000E+00  0.00000000E+00  2.82181008E-01  0.00000000E+00
  0.00000000E+00  0.00000000E+00 -4.94361167E-01  0.00000000E+00  0.00000000E+00
  0.00000000E+00  0.00000000E+00  8.96079394E-02 -5.26328279E-01  0.00000000E+00
  0.00000000E+00  0.00000000E+00  0.00000000E+00 -1.97068040E-01  0.00000000E+00
  0.00000000E+00  0.00000000E+00  3.17378880E-01  0.00000000E+00  0.00000000E+00
  0.00000000E+00  0.00000000E+00  3.25574370E-01  5.94266107E-01  0.00000000E+00
  0.00000000E+00  9.03813059E-02 -2.08345760E-01 -9.03813059E-02  2.08345760E-01
 -1.11599700E-01 -1.66419397E+00 -7.29739461E-07  4.10009220E-01  0.00000000E+00
  4.06907377E+00  7.95378139E-07 -1.18578375E+00  0.00000000E+00 -3.66334989E-01
 -1.12838072E+00 -3.66346305E-01 -2.52919341E-06  0.00000000E+00  0.00000000E+00
  5.09592464E-02  7.63539810E-01 -1.14340938E-06 -8.50312342E-02  0.00000000E+00
 -2.78175756E+00  8.51680305E-07 -8.00908041E-01  0.00000000E+00  1.02004525E-01
 -2.28531917E-01  1.02000010E-01  1.63606619E-06  0.00000000E+00  0.00000000E+00
  2.05829137E-01  3.37391485E-01  2.05832518E-01  3.37389215E-01  2.05832518E-01
  3.37389215E-01  0.00000000E+00  0.00000000E+00  0.00000000E+00  0.00000000E+00
  7.94551185E-02  0.00000000E+00  0.00000000E+00  0.00000000E+00 -1.34999742E-01
  0.00000000E+00  0.00000000E+00  0.00000000E+00  0.00000000E+00  9.29270837E-01
  1.43845113E-01  0.00000000E+00  0.00000000E+00  0.00000000E+00  0.00000000E+00
  4.73251401E-02  0.00000000E+00  0.00000000E+00  0.00000000E+00  3.51221634E-01
  0.00000000E+00  0.00000000E+00  0.00000000E+00  0.00000000E+00  2.61223041E-01
 -1.63223501E-01  0.00000000E+00  0.00000000E+00 -2.32579046E-01 -1.12708279E-01
  2.32579046E-01  1.12708279E-01  9.26350330E-07  1.29543424E-05 -7.94542825E-02
 -2.37620219E-06  0.00000000E+00 -3.28426411E-05  1.34998611E-01  8.80415131E-06
  0.00000000E+00  8.04775647E-01  8.93624433E-06 -8.04770028E-01 -1.43842497E-01
  0.00000000E+00  0.00000000E+00 -4.36018548E-07 -6.70726771E-06 -4.73243391E-02
  5.84622348E-07  0.00000000E+00  2.31414978E-05 -3.51220259E-01  7.85511353E-06
  0.00000000E+00  2.26224994E-01  2.38428266E-06 -2.26227293E-01  1.63221785E-01
  0.00000000E+00  0.00000000E+00 -2.68559112E-01 -1.30147481E-01  1.34277578E-01
  6.50693050E-02  1.34277578E-01  6.50693050E-02  3.21998681E-02 -3.55370331E-01
 -1.39226249E-06  4.92402783E-01  0.00000000E+00  1.75790396E-01  2.56660625E-06
 -3.27247434E-01  0.00000000E+00 -1.40450370E-01  1.39058471E-01 -1.40444008E-01
 -4.20806694E-06  0.00000000E+00  0.00000000E+00  8.63332314E-03 -1.27284546E-01
 -1.00114830E-06 -1.47316176E-01  0.00000000E+00 -2.01585951E-01 -3.65077232E-06
  3.45692053E-01  0.00000000E+00 -5.04423785E-01  8.85116094E-01 -5.04435836E-01
 -1.06477246E-07  0.00000000E+00  0.00000000E+00  2.97198390E-01 -4.31074379E-03
  2.97203814E-01 -4.30959950E-03  2.97203814E-01 -4.30959950E-03  0.00000000E+00
  0.00000000E+00  0.00000000E+00  0.00000000E+00  1.69916357E-01  0.00000000E+00
  0.00000000E+00  0.00000000E+00 -3.50462401E-01  0.00000000E+00  0.00000000E+00
  0.00000000E+00  0.00000000E+00 -3.52445050E-01  4.27933796E-01  0.00000000E+00
  0.00000000E+00  0.00000000E+00  0.00000000E+00  1.82953951E-01  0.00000000E+00
  0.00000000E+00  0.00000000E+00  6.03626879E-01  0.00000000E+00  0.00000000E+00
  0.00000000E+00  0.00000000E+00  9.39398059E-01 -4.52265769E-02  0.00000000E+00
  0.00000000E+00 -5.99932943E-01 -1.00235799E-02  5.99932943E-01  1.00235799E-02
 -6.21135191E-08  6.10442377E-06 -1.69915312E-01 -4.09527240E-06  0.00000000E+00
 -1.00149051E-05  3.50460994E-01  4.51214852E-06  0.00000000E+00 -3.05223320E-01
  5.62093166E-07  3.05226818E-01 -4.27930663E-01  0.00000000E+00  0.00000000E+00
 -1.94288226E-07 -8.94540417E-07 -1.82954297E-01  1.70857101E-06  0.00000000E+00
  7.70791631E-06 -6.03624656E-01  8.71641932E-07  0.00000000E+00  8.13549633E-01
 -7.13653634E-06 -8.13541285E-01  4.52258555E-02  0.00000000E+00  0.00000000E+00