opt=(Tight,CalcAll)                                                     
Freq      RMP2-FC                                                     6-31G(d)            
Number of atoms                            I               14
Info1-9                                    I   N=           9
          23          23        1002           0           0         100
           6           2           1
Charge                                     I                0
Multiplicity                               I                1
Number of electrons                        I               70
Number of alpha electrons                  I               35
Number of beta electrons                   I               35
Number of basis functions                  I              149
Number of independent functions            I              149
Number of point charges in /Mol/           I                0
Number of translation vectors              I                0
Atomic numbers                             I   N=          14
          16           7           6           6           6           6
           6           6           6           1           1           1
           1           1
Nuclear charges                            R   N=          14
  1.60000000E+01  7.00000000E+00  6.00000000E+00  6.00000000E+00  6.00000000E+00
  6.00000000E+00  6.00000000E+00  6.00000000E+00  6.00000000E+00  1.00000000E+00
  1.00000000E+00  1.00000000E+00  1.00000000E+00  1.00000000E+00
Current cartesian coordinates              R   N=          42
  2.97831570E+00 -1.48646704E+00 -1.16473724E+00  5.73375514E+00  2.03145489E+00
  1.95786272E+00 -1.98109009E-01 -5.36686355E-01 -4.60027245E-01 -1.05362462E+00
  1.87758207E+00 -1.11320792E+00 -1.83056998E+00 -2.30750380E+00  6.23933672E-01
 -3.55678224E+00  2.53465880E+00 -6.13226153E-01 -4.34394280E+00 -1.64044768E+00
  1.07423031E+00 -5.20739822E+00  7.75851963E-01  4.62227741E-01  4.54381714E+00
  5.97318471E-01  7.11501229E-01  2.31743412E-01  3.23040440E+00 -1.97214761E+00
 -1.13431151E+00 -4.17078508E+00  1.13565606E+00 -4.22565542E+00  4.41605169E+00
 -1.09539824E+00 -5.62071137E+00 -3.00989172E+00  1.91922453E+00 -7.16074387E+00
  1.29286835E+00  8.30832265E-01
Force Field                                I                0
Int Atom Types                             I   N=          14
           0           0           0           0           0           0
           0           0           0           0           0           0
           0           0
MM charges                                 R   N=          14
  0.00000000E+00  0.00000000E+00  0.00000000E+00  0.00000000E+00  0.00000000E+00
  0.00000000E+00  0.00000000E+00  0.00000000E+00  0.00000000E+00  0.00000000E+00
  0.00000000E+00  0.00000000E+00  0.00000000E+00  0.00000000E+00
Integer atomic weights                     I   N=          14
          32          14          12          12          12          12
          12          12          12           1           1           1
           1           1
Real atomic weights                        R   N=          14
  3.19720718E+01  1.40030740E+01  1.20000000E+01  1.20000000E+01  1.20000000E+01
  1.20000000E+01  1.20000000E+01  1.20000000E+01  1.20000000E+01  1.00782504E+00
  1.00782504E+00  1.00782504E+00  1.00782504E+00  1.00782504E+00
Atom fragment info                         I   N=          14
           0           0           0           0           0           0
           0           0           0           0           0           0
           0           0
Atom residue num                           I   N=          14
           0           0           0           0           0           0
           0           0           0           0           0           0
           0           0
Nuclear spins                              I   N=          14
           0           2           0           0           0           0
           0           0           0           1           1           1
           1           1
Nuclear ZEff                               R   N=          14
 -1.36000000E+01 -4.55000000E+00 -3.60000000E+00 -3.60000000E+00 -3.60000000E+00
 -3.60000000E+00 -3.60000000E+00 -3.60000000E+00 -3.60000000E+00 -1.00000000E+00
 -1.00000000E+00 -1.00000000E+00 -1.00000000E+00 -1.00000000E+00
Nuclear QMom                               R   N=          14
  0.00000000E+00  2.04400000E+00  0.00000000E+00  0.00000000E+00  0.00000000E+00
  0.00000000E+00  0.00000000E+00  0.00000000E+00  0.00000000E+00  0.00000000E+00
  0.00000000E+00  0.00000000E+00  0.00000000E+00  0.00000000E+00
Nuclear GFac                               R   N=          14
  0.00000000E+00  4.03761000E-01  0.00000000E+00  0.00000000E+00  0.00000000E+00
  0.00000000E+00  0.00000000E+00  0.00000000E+00  0.00000000E+00  2.79284600E+00
  2.79284600E+00  2.79284600E+00  2.79284600E+00  2.79284600E+00
MicOpt                                     I   N=          14
          -1          -1          -1          -1          -1          -1
          -1          -1          -1          -1          -1          -1
          -1          -1
Number of contracted shells                I               47
Number of primitive shells                 I              125
Pure/Cartesian d shells                    I                1
Pure/Cartesian f shells                    I                0
Highest angular momentum                   I                2
Largest degree of contraction              I                6
Shell types                                I   N=          47
           0          -1          -1          -1           2           0
          -1          -1           2           0          -1          -1
           2           0          -1          -1           2           0
          -1          -1           2           0          -1          -1
           2           0          -1          -1           2           0
          -1          -1           2           0          -1          -1
           2           0           0           0           0           0
           0           0           0           0           0
Number of primitives per shell             I   N=          47
           6           6           3           1           1           6
           3           1           1           6           3           1
           1           6           3           1           1           6
           3           1           1           6           3           1
           1           6           3           1           1           6
           3           1           1           6           3           1
           1           3           1           3           1           3
           1           3           1           3           1
Shell to atom map                          I   N=          47
           1           1           1           1           1           2
           2           2           2           3           3           3
           3           4           4           4           4           5
           5           5           5           6           6           6
           6           7           7           7           7           8
           8           8           8           9           9           9
           9          10          10          11          11          12
          12          13          13          14          14
Primitive exponents                        R   N=         125
  2.19171000E+04  3.30149000E+03  7.54146000E+02  2.12711000E+02  6.79896000E+01
  2.30515000E+01  4.23735000E+02  1.00710000E+02  3.21599000E+01  1.18079000E+01
  4.63110000E+00  1.87025000E+00  2.61584000E+00  9.22167000E-01  3.41287000E-01
  1.17167000E-01  6.50000000E-01  4.17351146E+03  6.27457911E+02  1.42902093E+02
  4.02343293E+01  1.28202129E+01  4.39043701E+00  1.16263619E+01  2.71627981E+00
  7.72218397E-01  2.12031498E-01  8.00000000E-01  3.04752488E+03  4.57369518E+02
  1.03948685E+02  2.92101553E+01  9.28666296E+00  3.16392696E+00  7.86827235E+00
  1.88128854E+00  5.44249258E-01  1.68714478E-01  8.00000000E-01  3.04752488E+03
  4.57369518E+02  1.03948685E+02  2.92101553E+01  9.28666296E+00  3.16392696E+00
  7.86827235E+00  1.88128854E+00  5.44249258E-01  1.68714478E-01  8.00000000E-01
  3.04752488E+03  4.57369518E+02  1.03948685E+02  2.92101553E+01  9.28666296E+00
  3.16392696E+00  7.86827235E+00  1.88128854E+00  5.44249258E-01  1.68714478E-01
  8.00000000E-01  3.04752488E+03  4.57369518E+02  1.03948685E+02  2.92101553E+01
  9.28666296E+00  3.16392696E+00  7.86827235E+00  1.88128854E+00  5.44249258E-01
  1.68714478E-01  8.00000000E-01  3.04752488E+03  4.57369518E+02  1.03948685E+02
  2.92101553E+01  9.28666296E+00  3.16392696E+00  7.86827235E+00  1.88128854E+00
  5.44249258E-01  1.68714478E-01  8.00000000E-01  3.04752488E+03  4.57369518E+02
  1.03948685E+02  2.92101553E+01  9.28666296E+00  3.16392696E+00  7.86827235E+00
  1.88128854E+00  5.44249258E-01  1.68714478E-01  8.00000000E-01  3.04752488E+03
  4.57369518E+02  1.03948685E+02  2.92101553E+01  9.28666296E+00  3.16392696E+00
  7.86827235E+00  1.88128854E+00  5.44249258E-01  1.68714478E-01  8.00000000E-01
  1.87311370E+01  2.82539436E+00  6.40121692E-01  1.61277759E-01  1.87311370E+01
  2.82539436E+00  6.40121692E-01  1.61277759E-01  1.87311370E+01  2.82539436E+00
  6.40121692E-01  1.61277759E-01  1.87311370E+01  2.82539436E+00  6.40121692E-01
  1.61277759E-01  1.87311370E+01  2.82539436E+00  6.40121692E-01  1.61277759E-01
Contraction coefficients                   R   N=         125
  1.86924085E-03  1.42303065E-02  6.96962317E-02  2.38487108E-01  4.83307220E-01
  3.38074154E-01 -2.37677050E-03 -3.16930067E-02 -1.13317024E-01  5.60900118E-02
  5.92255124E-01  4.55006095E-01 -2.50373114E-01  6.69567631E-02  1.05450627E+00
  1.00000000E+00  1.00000000E+00  1.83477216E-03  1.39946270E-02  6.85865518E-02
  2.32240873E-01  4.69069948E-01  3.60455199E-01 -1.14961182E-01 -1.69117479E-01
  1.14585195E+00  1.00000000E+00  1.00000000E+00  1.83473713E-03  1.40373228E-02
  6.88426223E-02  2.32184443E-01  4.67941348E-01  3.62311985E-01 -1.19332420E-01
 -1.60854152E-01  1.14345644E+00  1.00000000E+00  1.00000000E+00  1.83473713E-03
  1.40373228E-02  6.88426223E-02  2.32184443E-01  4.67941348E-01  3.62311985E-01
 -1.19332420E-01 -1.60854152E-01  1.14345644E+00  1.00000000E+00  1.00000000E+00
  1.83473713E-03  1.40373228E-02  6.88426223E-02  2.32184443E-01  4.67941348E-01
  3.62311985E-01 -1.19332420E-01 -1.60854152E-01  1.14345644E+00  1.00000000E+00
  1.00000000E+00  1.83473713E-03  1.40373228E-02  6.88426223E-02  2.32184443E-01
  4.67941348E-01  3.62311985E-01 -1.19332420E-01 -1.60854152E-01  1.14345644E+00
  1.00000000E+00  1.00000000E+00  1.83473713E-03  1.40373228E-02  6.88426223E-02
  2.32184443E-01  4.67941348E-01  3.62311985E-01 -1.19332420E-01 -1.60854152E-01
  1.14345644E+00  1.00000000E+00  1.00000000E+00  1.83473713E-03  1.40373228E-02
  6.88426223E-02  2.32184443E-01  4.67941348E-01  3.62311985E-01 -1.19332420E-01
 -1.60854152E-01  1.14345644E+00  1.00000000E+00  1.00000000E+00  1.83473713E-03
  1.40373228E-02  6.88426223E-02  2.32184443E-01  4.67941348E-01  3.62311985E-01
 -1.19332420E-01 -1.60854152E-01  1.14345644E+00  1.00000000E+00  1.00000000E+00
  3.34946043E-02  2.34726953E-01  8.13757326E-01  1.00000000E+00  3.34946043E-02
  2.34726953E-01  8.13757326E-01  1.00000000E+00  3.34946043E-02  2.34726953E-01
  8.13757326E-01  1.00000000E+00  3.34946043E-02  2.34726953E-01  8.13757326E-01
  1.00000000E+00  3.34946043E-02  2.34726953E-01  8.13757326E-01  1.00000000E+00
P(S=P) Contraction coefficients            R   N=         125
  0.00000000E+00  0.00000000E+00  0.00000000E+00  0.00000000E+00  0.00000000E+00
  0.00000000E+00  4.06100998E-03  3.06812999E-02  1.30451999E-01  3.27204999E-01
  4.52850998E-01  2.56041999E-01 -1.45104895E-02  3.10262776E-01  7.54482456E-01
  1.00000000E+00  0.00000000E+00  0.00000000E+00  0.00000000E+00  0.00000000E+00
  0.00000000E+00  0.00000000E+00  0.00000000E+00  6.75797439E-02  3.23907296E-01
  7.40895140E-01  1.00000000E+00  0.00000000E+00  0.00000000E+00  0.00000000E+00
  0.00000000E+00  0.00000000E+00  0.00000000E+00  0.00000000E+00  6.89990666E-02
  3.16423961E-01  7.44308291E-01  1.00000000E+00  0.00000000E+00  0.00000000E+00
  0.00000000E+00  0.00000000E+00  0.00000000E+00  0.00000000E+00  0.00000000E+00
  6.89990666E-02  3.16423961E-01  7.44308291E-01  1.00000000E+00  0.00000000E+00
  0.00000000E+00  0.00000000E+00  0.00000000E+00  0.00000000E+00  0.00000000E+00
  0.00000000E+00  6.89990666E-02  3.16423961E-01  7.44308291E-01  1.00000000E+00
  0.00000000E+00  0.00000000E+00  0.00000000E+00  0.00000000E+00  0.00000000E+00
  0.00000000E+00  0.00000000E+00  6.89990666E-02  3.16423961E-01  7.44308291E-01
  1.00000000E+00  0.00000000E+00  0.00000000E+00  0.00000000E+00  0.00000000E+00
  0.00000000E+00  0.00000000E+00  0.00000000E+00  6.89990666E-02  3.16423961E-01
  7.44308291E-01  1.00000000E+00  0.00000000E+00  0.00000000E+00  0.00000000E+00
  0.00000000E+00  0.00000000E+00  0.00000000E+00  0.00000000E+00  6.89990666E-02
  3.16423961E-01  7.44308291E-01  1.00000000E+00  0.00000000E+00  0.00000000E+00
  0.00000000E+00  0.00000000E+00  0.00000000E+00  0.00000000E+00  0.00000000E+00
  6.89990666E-02  3.16423961E-01  7.44308291E-01  1.00000000E+00  0.00000000E+00
  0.00000000E+00  0.00000000E+00  0.00000000E+00  0.00000000E+00  0.00000000E+00
  0.00000000E+00  0.00000000E+00  0.00000000E+00  0.00000000E+00  0.00000000E+00
  0.00000000E+00  0.00000000E+00  0.00000000E+00  0.00000000E+00  0.00000000E+00
  0.00000000E+00  0.00000000E+00  0.00000000E+00  0.00000000E+00  0.00000000E+00
Coordinates of each shell                  R   N=         141
  2.97831570E+00 -1.48646704E+00 -1.16473724E+00  2.97831570E+00 -1.48646704E+00
 -1.16473724E+00  2.97831570E+00 -1.48646704E+00 -1.16473724E+00  2.97831570E+00
 -1.48646704E+00 -1.16473724E+00  2.97831570E+00 -1.48646704E+00 -1.16473724E+00
  5.73375514E+00  2.03145489E+00  1.95786272E+00  5.73375514E+00  2.03145489E+00
  1.95786272E+00  5.73375514E+00  2.03145489E+00  1.95786272E+00  5.73375514E+00
  2.03145489E+00  1.95786272E+00 -1.98109009E-01 -5.36686355E-01 -4.60027245E-01
 -1.98109009E-01 -5.36686355E-01 -4.60027245E-01 -1.98109009E-01 -5.36686355E-01
 -4.60027245E-01 -1.98109009E-01 -5.36686355E-01 -4.60027245E-01 -1.05362462E+00
  1.87758207E+00 -1.11320792E+00 -1.05362462E+00  1.87758207E+00 -1.11320792E+00
 -1.05362462E+00  1.87758207E+00 -1.11320792E+00 -1.05362462E+00  1.87758207E+00
 -1.11320792E+00 -1.83056998E+00 -2.30750380E+00  6.23933672E-01 -1.83056998E+00
 -2.30750380E+00  6.23933672E-01 -1.83056998E+00 -2.30750380E+00  6.23933672E-01
 -1.83056998E+00 -2.30750380E+00  6.23933672E-01 -3.55678224E+00  2.53465880E+00
 -6.13226153E-01 -3.55678224E+00  2.53465880E+00 -6.13226153E-01 -3.55678224E+00
  2.53465880E+00 -6.13226153E-01 -3.55678224E+00  2.53465880E+00 -6.13226153E-01
 -4.34394280E+00 -1.64044768E+00  1.07423031E+00 -4.34394280E+00 -1.64044768E+00
  1.07423031E+00 -4.34394280E+00 -1.64044768E+00  1.07423031E+00 -4.34394280E+00
 -1.64044768E+00  1.07423031E+00 -5.20739822E+00  7.75851963E-01  4.62227741E-01
 -5.20739822E+00  7.75851963E-01  4.62227741E-01 -5.20739822E+00  7.75851963E-01
  4.62227741E-01 -5.20739822E+00  7.75851963E-01  4.62227741E-01  4.54381714E+00
  5.97318471E-01  7.11501229E-01  4.54381714E+00  5.97318471E-01  7.11501229E-01
  4.54381714E+00  5.97318471E-01  7.11501229E-01  4.54381714E+00  5.97318471E-01
  7.11501229E-01  2.31743412E-01  3.23040440E+00 -1.97214761E+00  2.31743412E-01
  3.23040440E+00 -1.97214761E+00 -1.13431151E+00 -4.17078508E+00  1.13565606E+00
 -1.13431151E+00 -4.17078508E+00  1.13565606E+00 -4.22565542E+00  4.41605169E+00
 -1.09539824E+00 -4.22565542E+00  4.41605169E+00 -1.09539824E+00 -5.62071137E+00
 -3.00989172E+00  1.91922453E+00 -5.62071137E+00 -3.00989172E+00  1.91922453E+00
 -7.16074387E+00  1.29286835E+00  8.30832265E-01 -7.16074387E+00  1.29286835E+00
  8.30832265E-01
Constraint Structure                       R   N=          42
  2.97831570E+00 -1.48646704E+00 -1.16473724E+00  5.73375514E+00  2.03145489E+00
  1.95786272E+00 -1.98109009E-01 -5.36686355E-01 -4.60027245E-01 -1.05362462E+00
  1.87758207E+00 -1.11320792E+00 -1.83056998E+00 -2.30750380E+00  6.23933672E-01
 -3.55678224E+00  2.53465880E+00 -6.13226153E-01 -4.34394280E+00 -1.64044768E+00
  1.07423031E+00 -5.20739822E+00  7.75851963E-01  4.62227741E-01  4.54381714E+00
  5.97318471E-01  7.11501229E-01  2.31743412E-01  3.23040440E+00 -1.97214761E+00
 -1.13431151E+00 -4.17078508E+00  1.13565606E+00 -4.22565542E+00  4.41605169E+00
 -1.09539824E+00 -5.62071137E+00 -3.00989172E+00  1.91922453E+00 -7.16074387E+00
  1.29286835E+00  8.30832265E-01
Num ILSW                                   I              100
ILSW                                       I   N=         100
           0           1           0           0           2           0
           0           0           0           0           0          -1
           0           0           0           0           0           0
           0           0           0           0           1           0
           1           0           0           0           0           0
           0           0      100000           0          -1           0
           0           0           0           0           0           0
           0           0           0           1           1           0
           0           0           1           0           0           0
           0           0           4          40           0           0
           0           0           0           0           0           0
           0           0           0           0           0           0
           0           0           0           0           0           0
           0           0           0           0           0           0
           0           0           0           0           0           0
           0           0           0           0           0           0
           0           0           0           0
Num RLSW                                   I               40
RLSW                                       R   N=          40
  1.00000000E+00  1.00000000E+00  1.00000000E+00  1.00000000E+00  1.00000000E+00
  0.00000000E+00  0.00000000E+00  1.00000000E+00  0.00000000E+00  0.00000000E+00
  0.00000000E+00  0.00000000E+00  1.00000000E+00  0.00000000E+00  0.00000000E+00
  0.00000000E+00  0.00000000E+00  1.00000000E+00  0.00000000E+00  0.00000000E+00
  0.00000000E+00  0.00000000E+00  1.00000000E+00  0.00000000E+00  0.00000000E+00
  0.00000000E+00  0.00000000E+00  1.00000000E+00  0.00000000E+00  0.00000000E+00
  0.00000000E+00  0.00000000E+00  0.00000000E+00  0.00000000E+00  0.00000000E+00
  0.00000000E+00  0.00000000E+00  0.00000000E+00  1.00000000E+00  1.00000000E+00
MxBond                                     I                3
NBond                                      I   N=          14
           2           1           3           3           3           3
           3           3           2           1           1           1
           1           1
IBond                                      I   N=          42
           3           9           0           9           0           0
           1           4           5           3           6          10
           3           7          11           4           8          12
           5           8          13           6           7          14
           1           2           0           4           0           0
           5           0           0           6           0           0
           7           0           0           8           0           0
RBond                                      R   N=          42
  1.00000000E+00  1.00000000E+00  0.00000000E+00  2.00000000E+00  0.00000000E+00
  0.00000000E+00  1.00000000E+00  1.50000000E+00  1.50000000E+00  1.50000000E+00
  1.50000000E+00  1.00000000E+00  1.50000000E+00  1.50000000E+00  1.00000000E+00
  1.50000000E+00  1.50000000E+00  1.00000000E+00  1.50000000E+00  1.50000000E+00
  1.00000000E+00  1.50000000E+00  1.50000000E+00  1.00000000E+00  1.00000000E+00
  2.00000000E+00  0.00000000E+00  1.00000000E+00  0.00000000E+00  0.00000000E+00
  1.00000000E+00  0.00000000E+00  0.00000000E+00  1.00000000E+00  0.00000000E+00
  0.00000000E+00  1.00000000E+00  0.00000000E+00  0.00000000E+00  1.00000000E+00
  0.00000000E+00  0.00000000E+00
Virial Ratio                               R      2.001521511953452E+00
SCF Energy                                 R     -7.199237655461565E+02
MP2 Energy                                 R     -7.210937809540077E+02
Total Energy                               R     -7.210937809540077E+02
Post-SCF wavefunction norm                 R      1.703767879614450E+00
RMS Force                                  R      2.263167877179953E-08
RMS Density                                R      2.310475932391400E-09
External E-field                           R   N=          35
  0.00000000E+00  0.00000000E+00  0.00000000E+00  0.00000000E+00  0.00000000E+00
  0.00000000E+00  0.00000000E+00  0.00000000E+00  0.00000000E+00  0.00000000E+00
  0.00000000E+00  0.00000000E+00  0.00000000E+00  0.00000000E+00  0.00000000E+00
  0.00000000E+00  0.00000000E+00  0.00000000E+00  0.00000000E+00  0.00000000E+00
  0.00000000E+00  0.00000000E+00  0.00000000E+00  0.00000000E+00  0.00000000E+00
  0.00000000E+00  0.00000000E+00  0.00000000E+00  0.00000000E+00  0.00000000E+00
  0.00000000E+00  0.00000000E+00  0.00000000E+00  0.00000000E+00  0.00000000E+00
IOpCl                                      I                0
IROHF                                      I                0
Alpha Orbital Energies                     R   N=         149
 -9.20108835E+01 -1.55942338E+01 -1.13067393E+01 -1.12978557E+01 -1.12688339E+01
 -1.12677676E+01 -1.12632507E+01 -1.12606984E+01 -1.12603450E+01 -9.01902439E+00
 -6.70211862E+00 -6.70022095E+00 -6.69829899E+00 -1.21340912E+00 -1.18093006E+00
 -1.08896912E+00 -1.03950446E+00 -9.96833544E-01 -8.52778023E-01 -8.35202286E-01
 -7.30608297E-01 -6.84353967E-01 -6.51787610E-01 -6.38674196E-01 -6.11796183E-01
 -5.83176679E-01 -5.55648768E-01 -5.29842475E-01 -5.22874519E-01 -5.12626770E-01
 -5.08085046E-01 -4.45806543E-01 -3.94822467E-01 -3.57759911E-01 -3.49813485E-01
  1.00076316E-01  1.13966482E-01  1.32727042E-01  2.00182101E-01  2.14749951E-01
  2.32573160E-01  2.59236811E-01  2.70143299E-01  2.83231387E-01  3.04969647E-01
  3.16082672E-01  3.30673615E-01  3.42780138E-01  4.15177587E-01  4.45956412E-01
  4.50703159E-01  4.52793091E-01  5.23567135E-01  5.43457646E-01  5.58735161E-01
  6.40183279E-01  6.98011028E-01  7.16815088E-01  7.27511798E-01  7.52545460E-01
  7.66880465E-01  7.86401223E-01  7.87255435E-01  7.90045685E-01  8.12746290E-01
  8.17809616E-01  8.19667835E-01  8.20826803E-01  8.64491521E-01  8.73896009E-01
  9.02257398E-01  9.47845632E-01  9.54134297E-01  9.83027224E-01  1.00449332E+00
  1.01894303E+00  1.06466614E+00  1.08095979E+00  1.08581576E+00  1.08745593E+00
  1.09453257E+00  1.12062335E+00  1.12768984E+00  1.14166728E+00  1.16129830E+00
  1.16426849E+00  1.19318687E+00  1.21890884E+00  1.24625575E+00  1.26663821E+00
  1.33296602E+00  1.34712991E+00  1.38484675E+00  1.40968082E+00  1.47043116E+00
  1.52991116E+00  1.55605888E+00  1.64230898E+00  1.66050975E+00  1.67499416E+00
  1.71461198E+00  1.73437429E+00  1.74462511E+00  1.76468146E+00  1.79848193E+00
  1.80497941E+00  1.85720273E+00  1.89047407E+00  1.91553542E+00  2.02977879E+00
  2.08129066E+00  2.09468718E+00  2.16278235E+00  2.25555613E+00  2.26272468E+00
  2.27358319E+00  2.27685268E+00  2.37019057E+00  2.37908195E+00  2.43471485E+00
  2.43781699E+00  2.44080848E+00  2.45081004E+00  2.60082356E+00  2.60394022E+00
  2.61678107E+00  2.83189986E+00  2.87466016E+00  2.90473975E+00  2.91528738E+00
  2.94026298E+00  2.96400885E+00  3.00805617E+00  3.04753957E+00  3.06209344E+00
  3.06681378E+00  3.08438259E+00  3.35503332E+00  3.36816539E+00  3.72558975E+00
  4.22064394E+00  4.33526986E+00  4.48843855E+00  4.51308608E+00  4.53137882E+00
  4.68568687E+00  4.72671642E+00  4.73864912E+00  5.06303041E+00
Alpha MO coefficients                      R   N=       22201
  9.96253849E-01  1.42335404E-02 -3.13248783E-05  8.35690457E-05  7.35843035E-05
 -2.00879491E-02  8.16574956E-05 -1.61874688E-04 -1.46908796E-04  2.26856275E-03
 -1.06329944E-04  4.17802814E-05  5.70593995E-05  6.85575943E-03  6.88795609E-03
  6.88194477E-03  7.75374118E-06  5.63626663E-06  1.97629765E-06 -2.67215235E-05
 -6.70321454E-05 -3.74800009E-05 -4.74429004E-05 -4.51735849E-05  1.46374702E-03
 -2.92813797E-04 -3.25502612E-04 -2.50085505E-04 -4.43930373E-05 -4.05984185E-05
 -5.77381944E-05  3.90065934E-05  2.89938772E-05  2.99910712E-05  1.73060328E-05
  1.19400236E-04  1.63498839E-05 -9.70044324E-06 -7.65306196E-06 -3.68733578E-04
  4.98681853E-04 -2.14172890E-04 -1.17868073E-04 -1.99544409E-05  4.73611909E-05
  1.54752859E-05  1.35892741E-05 -6.38963645E-06 -2.39155444E-05 -4.43843409E-06
 -4.10238119E-06  3.29169847E-06 -6.21899895E-06 -1.08280450E-05  4.95424301E-04
 -3.99248072E-04 -6.83895219E-05  1.91867581E-04 -1.91380135E-05 -1.83602013E-05
 -8.58906911E-06  2.69330746E-05 -1.24842157E-05 -1.18228380E-05 -1.58512587E-06
  1.73525427E-06  6.21937641E-06  3.36711359E-06 -1.83227018E-06  3.61743764E-04
 -3.55639149E-04  2.10586266E-04  3.92993391E-05 -2.48352450E-05  1.16042731E-05
 -1.40094634E-05 -1.88588446E-05  1.21351904E-05 -6.45428184E-07  1.22919706E-06
  1.27159097E-05 -1.21565511E-05  1.19526914E-05  8.70260174E-07 -4.63286462E-04
 -1.58360514E-04  9.39854982E-05 -6.73643088E-06 -2.80881006E-06 -3.59364082E-06
 -1.07184687E-06  3.05259695E-06 -4.17343370E-06  4.91400475E-07  4.90310878E-08
  8.17123291E-06 -1.64779376E-05 -5.62787213E-06  5.63615088E-06 -4.18394328E-04
 -1.44301208E-04  1.27752341E-05  3.01026995E-05 -5.55833953E-06 -2.84319630E-06
 -5.14173647E-06 -2.10498312E-06  3.54128986E-07 -1.83709470E-07 -3.34832344E-06
 -1.26741276E-05 -8.92604983E-06  3.31137922E-06 -8.90651700E-08  1.40537012E-04
  1.40365991E-04 -3.29273707E-05 -1.82004124E-05 -5.24028414E-06 -1.85569119E-06
 -7.93286939E-06  1.23322334E-06 -4.64174808E-07 -2.64224977E-06  1.58320225E-05
  1.57845831E-04 -4.74810544E-05 -7.18597305E-05 -4.89581158E-05 -1.08796902E-03
 -5.23933940E-04 -6.83906373E-04 -6.57814703E-04 -3.20543599E-05 -5.73707426E-05
 -4.47430013E-05 -8.23930386E-05 -7.18939110E-05 -8.97858451E-05  2.65936339E-05
  3.31605814E-05  3.32826043E-05 -1.30189240E-05  5.62818884E-06 -4.74433515E-06
  7.39998123E-06  1.03685956E-05  9.06702491E-06  4.15302523E-05 -4.62067593E-07
  5.39633746E-05 -3.34956346E-05 -3.74882804E-05 -3.69380392E-05 -1.10003644E-04
  2.13442268E-04  2.36896524E-04  2.30074717E-04  6.50910814E-04  4.30353077E-05
  1.67211335E-04  1.66412694E-04  1.65926797E-04  2.19499317E-04  2.08275683E-04
  8.78833489E-05  7.62562231E-05  1.15014350E-04  9.95346306E-01  2.40969100E-02
 -1.31819078E-03 -1.57849486E-03 -1.37107591E-03 -4.72615528E-03  1.08702759E-03
  1.29575749E-03  1.13099471E-03 -2.85470622E-03 -2.63578934E-03 -2.76192967E-03
  5.51992176E-04  4.74146955E-04  5.30321723E-04  3.30814566E-06 -5.39364537E-06
 -1.02124245E-06  6.66930121E-06  1.10960561E-05 -6.50728575E-05  1.14422546E-04
  1.25404073E-04 -6.04637554E-05  1.92652918E-05  1.59938988E-05  8.39183790E-06
  2.51123008E-06  6.40061805E-06  2.54611086E-06  2.72357660E-06  6.39862061E-06
  1.33249219E-05 -4.04382131E-06  1.27831424E-05  6.56422995E-06 -1.73898698E-04
  9.19564081E-05 -3.04967901E-05  1.52683732E-05 -1.53780981E-06  6.56232999E-06
  2.29332254E-06 -1.54040553E-07  4.48417558E-06 -2.47377228E-06 -1.03820981E-05
  4.58005619E-06  8.76145724E-08  1.65978179E-06  2.19690405E-04 -3.22600772E-05
  9.46115072E-05 -4.07987924E-05 -1.84418099E-06 -2.29432061E-06 -5.20143410E-06
 -1.70991375E-06 -9.18081483E-07 -4.19371641E-07  3.64658881E-07  5.10813657E-06
 -5.06079551E-06  3.44948175E-06 -2.80091849E-06 -1.46154023E-04 -7.04714843E-05
  6.57309769E-06  4.34030678E-05 -4.72341356E-06 -1.26340854E-06 -9.79716151E-07
  1.24606871E-06  4.49871847E-06 -1.87068677E-06  1.45596655E-06  8.30348309E-06
 -3.38960866E-06  4.08068824E-07 -4.68706964E-07 -1.45095040E-04 -4.71573032E-05
 -4.38203303E-05  3.89888667E-05 -9.38189517E-07  3.33431930E-07  1.39315662E-06
  1.00329068E-06  1.39838293E-06  8.95272135E-07 -1.09413000E-06 -5.51589002E-06
 -2.31693460E-06 -6.19288036E-07  1.77251921E-06  5.40468293E-05  4.72797508E-05
 -4.35735193E-05 -9.05877906E-06 -1.75723891E-06  5.60261679E-07 -1.44240808E-06
 -1.06374306E-06 -6.98596954E-07 -1.38976377E-06  5.87633584E-05  1.77039800E-04
 -4.30735051E-04 -5.25391644E-04 -4.49204513E-04  2.92827925E-03  1.51914380E-03
  1.85926495E-03  1.60302623E-03 -2.69552904E-04 -4.36448075E-04 -3.21395015E-04
 -4.76269553E-04 -4.16317160E-04 -5.06655615E-04  2.68573841E-05 -4.99530578E-05
  5.53312808E-06  1.00196605E-05  3.58888758E-06  7.34822688E-06 -1.21618682E-06
 -1.48496792E-05  3.65403739E-06  1.64348730E-05 -3.80047692E-06 -1.60923884E-05
 -8.66460309E-06  1.10158724E-05  1.25134759E-05  7.29717482E-04  2.75424600E-04
  1.76938879E-04  1.41288018E-04  5.24395436E-03  8.54726930E-04  2.01097135E-03
  1.89874768E-03 -3.51207677E-04 -5.00701283E-04 -4.65114103E-04 -1.68234654E-04
 -1.61704840E-04 -1.72483166E-04 -7.34767875E-04  1.78257133E-04 -7.48182758E-05
 -1.16397972E-04 -1.03905968E-04 -4.45123342E-03  8.17756660E-04  1.07699332E-03
  9.25905539E-04  1.57290586E-04  2.02589234E-04  1.63407481E-04  1.74235173E-04
  1.53121621E-04  1.79862009E-04 -8.48314174E-04 -2.47093205E-04 -1.34923617E-04
 -1.66939332E-05 -1.54079305E-05  1.13909309E-03 -3.09550183E-04  2.53717573E-04
  2.79871513E-04 -9.04548292E-05 -1.14578683E-04 -1.57298182E-04  5.86138036E-05
  6.36897654E-05  1.74264226E-05 -4.87717527E-05  6.88340002E-05 -5.91834753E-05