
    -----------------------------------------------------------------------
          Psi4: An Open-Source Ab Initio Electronic Structure Package
                               Psi4 1.3.2 release

                         Git: Rev {HEAD} ecbda83 


    R. M. Parrish, L. A. Burns, D. G. A. Smith, A. C. Simmonett,
    A. E. DePrince III, E. G. Hohenstein, U. Bozkaya, A. Yu. Sokolov,
    R. Di Remigio, R. M. Richard, J. F. Gonthier, A. M. James,
    H. R. McAlexander, A. Kumar, M. Saitow, X. Wang, B. P. Pritchard,
    P. Verma, H. F. Schaefer III, K. Patkowski, R. A. King, E. F. Valeev,
    F. A. Evangelista, J. M. Turney, T. D. Crawford, and C. D. Sherrill,
    J. Chem. Theory Comput. 13(7) pp 3185--3197 (2017).
    (doi: 10.1021/acs.jctc.7b00174)


                         Additional Contributions by
    P. Kraus, H. Kruse, M. H. Lechner, M. C. Schieber, R. A. Shaw,
    A. Alenaizan, R. Galvelis, Z. L. Glick, S. Lehtola, and J. P. Misiewicz

    -----------------------------------------------------------------------


    Psi4 started on: Thursday, 04 February 2021 01:38AM

    Process ID: 70405
    Host:       node35.bme.utexas.edu
    PSIDATADIR: /home/xy3866/psi4conda/share/psi4
    Memory:     500.0 MiB
    Threads:    8
    
  ==> Input File <==

--------------------------------------------------------------------------
#psi4
#
memory 32 gb

molecule  {
0 1
  C        0.3607500    -0.1378060     0.4783360
  C        1.7635994    -0.5113607     0.0883935
  C        1.2123340     0.9079950    -0.1890090
  C       -0.8959170    -0.6261990    -0.2007820
  C       -2.0823580     0.3074100     0.0307800
  H        0.2884170    -0.0635660     1.5625600
  H        1.7473340    -1.1149480    -0.9600470
  H        2.5174380    -0.7063170     0.6411980
  H        1.6733330     1.6758980     0.4236460
  H        0.9069420     1.2477170    -1.1746190
  H       -1.1377290    -1.6353390     0.1563050
  H       -0.7014120    -0.7176330    -1.2773050
  H       -2.3027070     0.3979840     1.0988780
  H       -1.8634650     1.3083430    -0.3520570
  H       -2.9839190    -0.0602930    -0.4684290
units angstrom
no_reorient  #important for SAPT in psi4, default
symmetry c1  #important for SAPT in psi4, default
}

set PROPERTIES_ORIGIN ["COM"]
properties('MP2/aug-cc-pvtz', properties = ['dipole'])
--------------------------------------------------------------------------

  Memory set to  29.802 GiB by Python driver.
    SCF Algorithm Type (re)set to DF.

*** tstart() called on node35.bme.utexas.edu
*** at Thu Feb  4 01:38:35 2021

   => Loading Basis Set <=

    Name: AUG-CC-PVTZ
    Role: ORBITAL
    Keyword: BASIS
    atoms 1-5  entry C          line   235 file /home/xy3866/psi4conda/share/psi4/basis/aug-cc-pvtz.gbs 
    atoms 6-15 entry H          line    36 file /home/xy3866/psi4conda/share/psi4/basis/aug-cc-pvtz.gbs 


         ---------------------------------------------------------
                                   SCF
               by Justin Turney, Rob Parrish, Andy Simmonett
                          and Daniel G. A. Smith
                              RHF Reference
                        8 Threads,  30517 MiB Core
         ---------------------------------------------------------

  ==> Geometry <==

    Molecular point group: c1
    Full point group: C1

    Geometry (in Angstrom), charge = 0, multiplicity = 1:

       Center              X                  Y                   Z               Mass       
    ------------   -----------------  -----------------  -----------------  -----------------
         C            0.326065752828    -0.132310918536     0.447798504470    12.000000000000
         C            1.728915152828    -0.505865618536     0.057856004470    12.000000000000
         C            1.177649752828     0.913490081464    -0.219546495530    12.000000000000
         C           -0.930601247172    -0.620703918536    -0.231319495530    12.000000000000
         C           -2.117042247172     0.312905081464     0.000242504470    12.000000000000
         H            0.253732752828    -0.058070918536     1.532022504470     1.007825032230
         H            1.712649752828    -1.109452918536    -0.990584495530     1.007825032230
         H            2.482753752828    -0.700821918536     0.610660504470     1.007825032230
         H            1.638648752828     1.681393081464     0.393108504470     1.007825032230
         H            0.872257752828     1.253212081464    -1.205156495530     1.007825032230
         H           -1.172413247172    -1.629843918536     0.125767504470     1.007825032230
         H           -0.736096247172    -0.712137918536    -1.307842495530     1.007825032230
         H           -2.337391247172     0.403479081464     1.068340504470     1.007825032230
         H           -1.898149247172     1.313838081464    -0.382594495530     1.007825032230
         H           -3.018603247172    -0.054797918536    -0.498966495530     1.007825032230

  Running in c1 symmetry.

  Rotational constants: A =      0.39565  B =      0.10334  C =      0.09291 [cm^-1]
  Rotational constants: A =  11861.21275  B =   3098.03320  C =   2785.49239 [MHz]
  Nuclear repulsion =  179.083817089689319

  Charge       = 0
  Multiplicity = 1
  Electrons    = 40
  Nalpha       = 20
  Nbeta        = 20

  ==> Algorithm <==

  SCF Algorithm Type is DF.
  DIIS enabled.
  MOM disabled.
  Fractional occupation disabled.
  Guess Type is SAD.
  Energy threshold   = 1.00e-10
  Density threshold  = 1.00e-10
  Integral threshold = 0.00e+00

  ==> Primary Basis <==

  Basis Set: AUG-CC-PVTZ
    Blend: AUG-CC-PVTZ
    Number of shells: 160
    Number of basis function: 460
    Number of Cartesian functions: 525
    Spherical Harmonics?: true
    Max angular momentum: 3

   => Loading Basis Set <=

    Name: (AUG-CC-PVTZ AUX)
    Role: JKFIT
    Keyword: DF_BASIS_SCF
    atoms 1-5  entry C          line   162 file /home/xy3866/psi4conda/share/psi4/basis/aug-cc-pvtz-jkfit.gbs 
    atoms 6-15 entry H          line    70 file /home/xy3866/psi4conda/share/psi4/basis/aug-cc-pvtz-jkfit.gbs 

  ==> Pre-Iterations <==

   -------------------------------------------------------
    Irrep   Nso     Nmo     Nalpha   Nbeta   Ndocc  Nsocc
   -------------------------------------------------------
     A        460     460       0       0       0       0
   -------------------------------------------------------
    Total     460     460      20      20      20       0
   -------------------------------------------------------

  ==> Integral Setup <==

  DFHelper Memory: AOs need 1.582 GiB; user supplied 22.352 GiB. Using in-core AOs.

  ==> MemDFJK: Density-Fitted J/K Matrices <==

    J tasked:                   Yes
    K tasked:                   Yes
    wK tasked:                   No
    OpenMP threads:               8
    Memory [MiB]:             22888
    Algorithm:                 Core
    Schwarz Cutoff:           1E-12
    Mask sparsity (%):       1.6314
    Fitting Condition:        1E-10

   => Auxiliary Basis Set <=

  Basis Set: (AUG-CC-PVTZ AUX)
    Blend: AUG-CC-PVTZ-JKFIT
    Number of shells: 290
    Number of basis function: 980
    Number of Cartesian functions: 1205
    Spherical Harmonics?: true
    Max angular momentum: 4

  Minimum eigenvalue in the overlap matrix is 3.4676859561E-06.
  Using Symmetric Orthogonalization.

  SCF Guess: Superposition of Atomic Densities via on-the-fly atomic UHF.

  ==> Iterations <==

                           Total Energy        Delta E     RMS |[F,P]|

   @DF-RHF iter SAD:  -194.79256163066705   -1.94793e+02   0.00000e+00 
   @DF-RHF iter   1:  -194.93930966922855   -1.46748e-01   1.31997e-03 DIIS
   @DF-RHF iter   2:  -195.12064484615320   -1.81335e-01   6.47305e-04 DIIS
   @DF-RHF iter   3:  -195.16613315632540   -4.54883e-02   1.14381e-04 DIIS
   @DF-RHF iter   4:  -195.16874065370496   -2.60750e-03   3.29722e-05 DIIS
   @DF-RHF iter   5:  -195.16890596410929   -1.65310e-04   7.90198e-06 DIIS
   @DF-RHF iter   6:  -195.16891907816049   -1.31141e-05   1.46953e-06 DIIS
   @DF-RHF iter   7:  -195.16891968906728   -6.10907e-07   3.92828e-07 DIIS
   @DF-RHF iter   8:  -195.16891972920553   -4.01382e-08   1.43135e-07 DIIS
   @DF-RHF iter   9:  -195.16891973347185   -4.26633e-09   3.32361e-08 DIIS
   @DF-RHF iter  10:  -195.16891973380089   -3.29038e-10   8.20318e-09 DIIS
   @DF-RHF iter  11:  -195.16891973382164   -2.07478e-11   2.01178e-09 DIIS
   @DF-RHF iter  12:  -195.16891973382315   -1.50635e-12   6.68478e-10 DIIS
   @DF-RHF iter  13:  -195.16891973382323   -8.52651e-14   2.22686e-10 DIIS
   @DF-RHF iter  14:  -195.16891973382269    5.40012e-13   6.62614e-11 DIIS
  Energy and wave function converged.


  ==> Post-Iterations <==

    Orbital Energies [Eh]
    ---------------------

    Doubly Occupied:                                                      

       1A    -11.229147     2A    -11.222541     3A    -11.222460  
       4A    -11.221722     5A    -11.212266     6A     -1.137386  
       7A     -1.021139     8A     -0.867495     9A     -0.829080  
      10A     -0.766605    11A     -0.671560    12A     -0.620262  
      13A     -0.598022    14A     -0.550358    15A     -0.521919  
      16A     -0.501039    17A     -0.489587    18A     -0.471818  
      19A     -0.405056    20A     -0.395623  

    Virtual:                                                              

      21A      0.031751    22A      0.035506    23A      0.037598  
      24A      0.038891    25A      0.054087    26A      0.057089  
      27A      0.058193    28A      0.061962    29A      0.065203  
      30A      0.079180    31A      0.106292    32A      0.113552  
      33A      0.114958    34A      0.120653    35A      0.123858  
      36A      0.126133    37A      0.131447    38A      0.139609  
      39A      0.140681    40A      0.145437    41A      0.149895  
      42A      0.158658    43A      0.160335    44A      0.169286  
      45A      0.172053    46A      0.177425    47A      0.198027  
      48A      0.211591    49A      0.219438    50A      0.234411  
      51A      0.240363    52A      0.252484    53A      0.262796  
      54A      0.267466    55A      0.274544    56A      0.284584  
      57A      0.290180    58A      0.293862    59A      0.312868  
      60A      0.315381    61A      0.326315    62A      0.333308  
      63A      0.340123    64A      0.341944    65A      0.346465  
      66A      0.353414    67A      0.356313    68A      0.362566  
      69A      0.367351    70A      0.370245    71A      0.376650  
      72A      0.378342    73A      0.379498    74A      0.386906  
      75A      0.389213    76A      0.401728    77A      0.408990  
      78A      0.415038    79A      0.427642    80A      0.431785  
      81A      0.437473    82A      0.441023    83A      0.447380  
      84A      0.451315    85A      0.459724    86A      0.465962  
      87A      0.469985    88A      0.475221    89A      0.481459  
      90A      0.483145    91A      0.495444    92A      0.499804  
      93A      0.504406    94A      0.508764    95A      0.518272  
      96A      0.521431    97A      0.529215    98A      0.537208  
      99A      0.543074   100A      0.556151   101A      0.562428  
     102A      0.565183   103A      0.573018   104A      0.576471  
     105A      0.582732   106A      0.588132   107A      0.596335  
     108A      0.604984   109A      0.611520   110A      0.616425  
     111A      0.625173   112A      0.638168   113A      0.646841  
     114A      0.655105   115A      0.665759   116A      0.680475  
     117A      0.684082   118A      0.703790   119A      0.712189  
     120A      0.739689   121A      0.758026   122A      0.770732  
     123A      0.789052   124A      0.799155   125A      0.812287  
     126A      0.825923   127A      0.830986   128A      0.845429  
     129A      0.853449   130A      0.859099   131A      0.878068  
     132A      0.880070   133A      0.883587   134A      0.890682  
     135A      0.898452   136A      0.903918   137A      0.913247  
     138A      0.920001   139A      0.927234   140A      0.936620  
     141A      0.938465   142A      0.942657   143A      0.948936  
     144A      0.960249   145A      0.967817   146A      0.974665  
     147A      0.977719   148A      0.988628   149A      1.000212  
     150A      1.003693   151A      1.016764   152A      1.024571  
     153A      1.031714   154A      1.036869   155A      1.055442  
     156A      1.063222   157A      1.071545   158A      1.074340  
     159A      1.084653   160A      1.098915   161A      1.107856  
     162A      1.112085   163A      1.116463   164A      1.127087  
     165A      1.141116   166A      1.147536   167A      1.149081  
     168A      1.160457   169A      1.165690   170A      1.179411  
     171A      1.187511   172A      1.197414   173A      1.203354  
     174A      1.211019   175A      1.229306   176A      1.232101  
     177A      1.242628   178A      1.251257   179A      1.253432  
     180A      1.276353   181A      1.278230   182A      1.286999  
     183A      1.293061   184A      1.304835   185A      1.315085  
     186A      1.331924   187A      1.338493   188A      1.349350  
     189A      1.358622   190A      1.371898   191A      1.379819  
     192A      1.387671   193A      1.403712   194A      1.425152  
     195A      1.433922   196A      1.449610   197A      1.453155  
     198A      1.475611   199A      1.487312   200A      1.502337  
     201A      1.512049   202A      1.519642   203A      1.535670  
     204A      1.543098   205A      1.559397   206A      1.569191  
     207A      1.590523   208A      1.594960   209A      1.612191  
     210A      1.613955   211A      1.622234   212A      1.629844  
     213A      1.636091   214A      1.673090   215A      1.676572  
     216A      1.692416   217A      1.698239   218A      1.706076  
     219A      1.716802   220A      1.724942   221A      1.728777  
     222A      1.741135   223A      1.748559   224A      1.752758  
     225A      1.775807   226A      1.785041   227A      1.798005  
     228A      1.814217   229A      1.817995   230A      1.843282  
     231A      1.848381   232A      1.867412   233A      1.882255  
     234A      1.886323   235A      1.890936   236A      1.897048  
     237A      1.913599   238A      1.917771   239A      1.934238  
     240A      1.953523   241A      1.960286   242A      1.976622  
     243A      1.984845   244A      1.989628   245A      1.999420  
     246A      2.023904   247A      2.031824   248A      2.036775  
     249A      2.049916   250A      2.054652   251A      2.078265  
     252A      2.088925   253A      2.095457   254A      2.115264  
     255A      2.127388   256A      2.142657   257A      2.160997  
     258A      2.166903   259A      2.186848   260A      2.209924  
     261A      2.235738   262A      2.243678   263A      2.255949  
     264A      2.268304   265A      2.275317   266A      2.293340  
     267A      2.306915   268A      2.318667   269A      2.351244  
     270A      2.368395   271A      2.382645   272A      2.391344  
     273A      2.398241   274A      2.417844   275A      2.448958  
     276A      2.462680   277A      2.475966   278A      2.517252  
     279A      2.533319   280A      2.545086   281A      2.564153  
     282A      2.581905   283A      2.602197   284A      2.662271  
     285A      2.693430   286A      2.763698   287A      2.825755  
     288A      2.877704   289A      2.926504   290A      3.072534  
     291A      3.199695   292A      3.226920   293A      3.263061  
     294A      3.295054   295A      3.343368   296A      3.349891  
     297A      3.374034   298A      3.427213   299A      3.446292  
     300A      3.461619   301A      3.491750   302A      3.506677  
     303A      3.534921   304A      3.555773   305A      3.565754  
     306A      3.570454   307A      3.584915   308A      3.598516  
     309A      3.610142   310A      3.626677   311A      3.646119  
     312A      3.653249   313A      3.675522   314A      3.695319  
     315A      3.721612   316A      3.734671   317A      3.739665  
     318A      3.753649   319A      3.765310   320A      3.773208  
     321A      3.789064   322A      3.796517   323A      3.817647  
     324A      3.831319   325A      3.846123   326A      3.854570  
     327A      3.874917   328A      3.887012   329A      3.896712  
     330A      3.907213   331A      3.930654   332A      3.937900  
     333A      3.955573   334A      3.966492   335A      3.979024  
     336A      3.984893   337A      4.002425   338A      4.028699  
     339A      4.041097   340A      4.052923   341A      4.070694  
     342A      4.076114   343A      4.102732   344A      4.106586  
     345A      4.119133   346A      4.132764   347A      4.151752  
     348A      4.160430   349A      4.192472   350A      4.196586  
     351A      4.222667   352A      4.235887   353A      4.258151  
     354A      4.264035   355A      4.272891   356A      4.282676  
     357A      4.294023   358A      4.314511   359A      4.344901  
     360A      4.346916   361A      4.374400   362A      4.378206  
     363A      4.419625   364A      4.446054   365A      4.466332  
     366A      4.502955   367A      4.513065   368A      4.541119  
     369A      4.550683   370A      4.559943   371A      4.575076  
     372A      4.593439   373A      4.626933   374A      4.654027  
     375A      4.662031   376A      4.695146   377A      4.709359  
     378A      4.743262   379A      4.751828   380A      4.777162  
     381A      4.810714   382A      4.835443   383A      4.843884  
     384A      4.860610   385A      4.877497   386A      4.895103  
     387A      4.909752   388A      4.929104   389A      4.950637  
     390A      4.962665   391A      4.989644   392A      4.998788  
     393A      5.016591   394A      5.039672   395A      5.050522  
     396A      5.064058   397A      5.093256   398A      5.107429  
     399A      5.120876   400A      5.141970   401A      5.167723  
     402A      5.196117   403A      5.203108   404A      5.234632  
     405A      5.246995   406A      5.276854   407A      5.284490  
     408A      5.313830   409A      5.329512   410A      5.375478  
     411A      5.382515   412A      5.397928   413A      5.414966  
     414A      5.432779   415A      5.462536   416A      5.480537  
     417A      5.497285   418A      5.536685   419A      5.566855  
     420A      5.577041   421A      5.613527   422A      5.646372  
     423A      5.668354   424A      5.679303   425A      5.686370  
     426A      5.727860   427A      5.746526   428A      5.799093  
     429A      5.837651   430A      5.851748   431A      5.874336  
     432A      5.927125   433A      5.960985   434A      6.000646  
     435A      6.039268   436A      6.072691   437A      6.095352  
     438A      6.180737   439A      6.210623   440A      6.242563  
     441A      6.246627   442A      6.264805   443A      6.374705  
     444A      6.387667   445A      6.492206   446A      6.522150  
     447A      6.570331   448A      6.630184   449A      6.634372  
     450A      6.764307   451A      6.803632   452A      6.842871  
     453A      6.858104   454A      6.879037   455A      6.961981  
     456A     17.288423   457A     17.624104   458A     18.026354  
     459A     18.424245   460A     19.711015  

    Final Occupation by Irrep:
              A 
    DOCC [    20 ]

  @DF-RHF Final Energy:  -195.16891973382269

   => Energetics <=

    Nuclear Repulsion Energy =            179.0838170896893189
    One-Electron Energy =                -616.5953054048741251
    Two-Electron Energy =                 242.3425685813621158
    Total Energy =                       -195.1689197338226904

Computation Completed

*** tstop() called on node35.bme.utexas.edu at Thu Feb  4 01:38:52 2021
Module time:
	user time   =     106.66 seconds =       1.78 minutes
	system time =       9.24 seconds =       0.15 minutes
	total time  =         17 seconds =       0.28 minutes
Total time:
	user time   =     106.66 seconds =       1.78 minutes
	system time =       9.24 seconds =       0.15 minutes
	total time  =         17 seconds =       0.28 minutes
   => Loading Basis Set <=

    Name: (AUG-CC-PVTZ AUX)
    Role: RIFIT
    Keyword: DF_BASIS_MP2
    atoms 1-5  entry C          line   148 file /home/xy3866/psi4conda/share/psi4/basis/aug-cc-pvtz-ri.gbs 
    atoms 6-15 entry H          line    30 file /home/xy3866/psi4conda/share/psi4/basis/aug-cc-pvtz-ri.gbs 


*** tstart() called on node35.bme.utexas.edu
*** at Thu Feb  4 01:38:52 2021


  //>>>>>>>>>>>>>>>>>>>>>>>>>>>>>>>>>>>//
  //               DFMP2               //
  //<<<<<<<<<<<<<<<<<<<<<<<<<<<<<<<<<<<//

	 --------------------------------------------------------
	                          DF-MP2                         
	      2nd-Order Density-Fitted Moller-Plesset Theory     
	              RMP2 Wavefunction,   8 Threads             
	                                                         
	        Rob Parrish, Justin Turney, Andy Simmonett,      
	           Ed Hohenstein, and C. David Sherrill          
	 --------------------------------------------------------

   => Auxiliary Basis Set <=

  Basis Set: (AUG-CC-PVTZ AUX)
    Blend: AUG-CC-PVTZ-RI
    Number of shells: 280
    Number of basis function: 990
    Number of Cartesian functions: 1230
    Spherical Harmonics?: true
    Max angular momentum: 4

	 --------------------------------------------------------
	                 NBF =   460, NAUX =   990
	 --------------------------------------------------------
	   CLASS    FOCC     OCC    AOCC    AVIR     VIR    FVIR
	   PAIRS       0      20      20     440     440       0
	 --------------------------------------------------------

  DFHelper Memory: AOs need 1.582 GiB; user supplied 22.352 GiB. Using in-core AOs.


         ------------------------------------------------------------
                                     CPHF                           
                                  Rob Parrish                       
         ------------------------------------------------------------

  ==> Geometry <==

    Molecular point group: c1
    Full point group: C1

    Geometry (in Angstrom), charge = 0, multiplicity = 1:

       Center              X                  Y                   Z               Mass       
    ------------   -----------------  -----------------  -----------------  -----------------
         C            0.326065752828    -0.132310918536     0.447798504470    12.000000000000
         C            1.728915152828    -0.505865618536     0.057856004470    12.000000000000
         C            1.177649752828     0.913490081464    -0.219546495530    12.000000000000
         C           -0.930601247172    -0.620703918536    -0.231319495530    12.000000000000
         C           -2.117042247172     0.312905081464     0.000242504470    12.000000000000
         H            0.253732752828    -0.058070918536     1.532022504470     1.007825032230
         H            1.712649752828    -1.109452918536    -0.990584495530     1.007825032230
         H            2.482753752828    -0.700821918536     0.610660504470     1.007825032230
         H            1.638648752828     1.681393081464     0.393108504470     1.007825032230
         H            0.872257752828     1.253212081464    -1.205156495530     1.007825032230
         H           -1.172413247172    -1.629843918536     0.125767504470     1.007825032230
         H           -0.736096247172    -0.712137918536    -1.307842495530     1.007825032230
         H           -2.337391247172     0.403479081464     1.068340504470     1.007825032230
         H           -1.898149247172     1.313838081464    -0.382594495530     1.007825032230
         H           -3.018603247172    -0.054797918536    -0.498966495530     1.007825032230

  Nuclear repulsion =  179.083817089689319
  Reference energy  = -195.168919733822690

  ==> Basis Set <==

  Basis Set: AUG-CC-PVTZ
    Blend: AUG-CC-PVTZ
    Number of shells: 160
    Number of basis function: 460
    Number of Cartesian functions: 525
    Spherical Harmonics?: true
    Max angular momentum: 3

  ==> CGRSolver (by Rob Parrish) <==

   Number of roots    =         1
   Preconditioning    =    JACOBI
   Convergence cutoff =     1E-06
   Maximum iterations =       100

  ==> CPHFRHamiltonian (by Rob Parrish) <== 

  ==> MemDFJK: Density-Fitted J/K Matrices <==

    J tasked:                   Yes
    K tasked:                   Yes
    wK tasked:                   No
    OpenMP threads:               8
    Memory [MiB]:             22888
    Algorithm:                 Core
    Schwarz Cutoff:           1E-12
    Mask sparsity (%):       1.6314
    Fitting Condition:        1E-10

   => Auxiliary Basis Set <=

  Basis Set: (AUG-CC-PVTZ AUX)
    Blend: AUG-CC-PVTZ-JKFIT
    Number of shells: 290
    Number of basis function: 980
    Number of Cartesian functions: 1205
    Spherical Harmonics?: true
    Max angular momentum: 4

  ==> CPHF Iterations <==

  => Iterations <=

             Iter  Converged  Remaining    Residual
  CGR           1          0          1   8.813E-02
  CGR           2          0          1   1.575E-02
  CGR           3          0          1   5.308E-03
  CGR           4          0          1   1.430E-03
  CGR           5          0          1   2.906E-04
  CGR           6          0          1   8.187E-05
  CGR           7          0          1   2.331E-05
  CGR           8          0          1   5.597E-06
  CGR           9          0          1   1.533E-06
  CGR          10          1          0   3.695E-07

    CGRSolver converged.

	-----------------------------------------------------------
	 ==================> DF-MP2 Energies <==================== 
	-----------------------------------------------------------
	 Reference Energy          =    -195.1689197338226904 [Eh]
	 Singles Energy            =      -0.0000000000000000 [Eh]
	 Same-Spin Energy          =      -0.2104004929174117 [Eh]
	 Opposite-Spin Energy      =      -0.7653872626363740 [Eh]
	 Correlation Energy        =      -0.9757877555537857 [Eh]
	 Total Energy              =    -196.1447074893764864 [Eh]
	-----------------------------------------------------------
	 ================> DF-SCS-MP2 Energies <================== 
	-----------------------------------------------------------
	 SCS Same-Spin Scale       =       0.3333333333333333 [-]
	 SCS Opposite-Spin Scale   =       1.2000000000000000 [-]
	 SCS Same-Spin Energy      =      -0.0701334976391372 [Eh]
	 SCS Opposite-Spin Energy  =      -0.9184647151636488 [Eh]
	 SCS Correlation Energy    =      -0.9885982128027860 [Eh]
	 SCS Total Energy          =    -196.1575179466254895 [Eh]
	-----------------------------------------------------------



Properties will be evaluated at  -0.000000,  -0.000000,  -0.000000 [a0]

Properties computed using the MP2 density matrix

  Nuclear Dipole Moment: [e a0]
     X:    -2.0649      Y:     0.3626      Z:    -0.6143

  Electronic Dipole Moment: [e a0]
     X:     1.9958      Y:    -0.3647      Z:     0.6683

  Dipole Moment: [e a0]
     X:    -0.0690      Y:    -0.0021      Z:     0.0541     Total:     0.0877

  Dipole Moment: [D]
     X:    -0.1755      Y:    -0.0054      Z:     0.1374     Total:     0.2229


*** tstop() called on node35.bme.utexas.edu at Thu Feb  4 01:39:40 2021
Module time:
	user time   =     303.76 seconds =       5.06 minutes
	system time =      15.88 seconds =       0.26 minutes
	total time  =         48 seconds =       0.80 minutes
Total time:
	user time   =     410.62 seconds =       6.84 minutes
	system time =      25.13 seconds =       0.42 minutes
	total time  =         65 seconds =       1.08 minutes

    Psi4 stopped on: Thursday, 04 February 2021 01:39AM
    Psi4 wall time for execution: 0:01:05.86

*** Psi4 exiting successfully. Buy a developer a beer!
