6920                                                                    
Freq      RMP2-FC                                                     6-31G(d)            
Number of atoms                            I               14
Info1-9                                    I   N=           9
          26          24        1002           0           0         100
           6           2           1
Charge                                     I                0
Multiplicity                               I                1
Number of electrons                        I               66
Number of alpha electrons                  I               33
Number of beta electrons                   I               33
Number of basis functions                  I              136
Number of independent functions            I              136
Number of point charges in /Mol/           I                0
Number of translation vectors              I                0
Atomic numbers                             I   N=          14
          16           8           6           6           6           6
           6           6           1           1           1           1
           1           1
Nuclear charges                            R   N=          14
  1.60000000E+01  8.00000000E+00  6.00000000E+00  6.00000000E+00  6.00000000E+00
  6.00000000E+00  6.00000000E+00  6.00000000E+00  1.00000000E+00  1.00000000E+00
  1.00000000E+00  1.00000000E+00  1.00000000E+00  1.00000000E+00
Current cartesian coordinates              R   N=          42
 -1.85901699E+00 -2.18650788E+00 -1.17758114E-04  3.74523445E+00 -2.50901093E+00
 -6.57637591E-04  2.78098124E-01  2.76882609E-01 -8.12050115E-06 -9.42063935E-01
  2.59825053E+00  4.24926752E-04  2.99807059E+00 -2.99612873E-01 -3.31618620E-04
 -3.59929041E+00  2.36017692E+00  6.62270757E-04  4.81500746E+00  1.90651693E+00
 -2.15773091E-04 -4.36184231E+00 -1.35766722E-01  4.01745953E-04  5.35207331E-02
  4.39185351E+00  5.68142199E-04 -4.90741878E+00  3.93912393E+00  1.00544759E-03
  4.52354407E+00  3.08833264E+00 -1.67158610E+00  6.73865149E+00  1.16746277E+00
 -6.69546507E-04  4.52409357E+00  3.08764786E+00  1.67173862E+00 -6.27787206E+00
 -8.56891577E-01  4.88072417E-04
Force Field                                I                0
Int Atom Types                             I   N=          14
           0           0           0           0           0           0
           0           0           0           0           0           0
           0           0
MM charges                                 R   N=          14
  0.00000000E+00  0.00000000E+00  0.00000000E+00  0.00000000E+00  0.00000000E+00
  0.00000000E+00  0.00000000E+00  0.00000000E+00  0.00000000E+00  0.00000000E+00
  0.00000000E+00  0.00000000E+00  0.00000000E+00  0.00000000E+00
Integer atomic weights                     I   N=          14
          32          16          12          12          12          12
          12          12           1           1           1           1
           1           1
Real atomic weights                        R   N=          14
  3.19720718E+01  1.59949146E+01  1.20000000E+01  1.20000000E+01  1.20000000E+01
  1.20000000E+01  1.20000000E+01  1.20000000E+01  1.00782504E+00  1.00782504E+00
  1.00782504E+00  1.00782504E+00  1.00782504E+00  1.00782504E+00
Atom fragment info                         I   N=          14
           0           0           0           0           0           0
           0           0           0           0           0           0
           0           0
Atom residue num                           I   N=          14
           0           0           0           0           0           0
           0           0           0           0           0           0
           0           0
Nuclear spins                              I   N=          14
           0           0           0           0           0           0
           0           0           1           1           1           1
           1           1
Nuclear ZEff                               R   N=          14
 -1.36000000E+01 -5.60000000E+00 -3.60000000E+00 -3.60000000E+00 -3.60000000E+00
 -3.60000000E+00 -3.60000000E+00 -3.60000000E+00 -1.00000000E+00 -1.00000000E+00
 -1.00000000E+00 -1.00000000E+00 -1.00000000E+00 -1.00000000E+00
Nuclear QMom                               R   N=          14
  0.00000000E+00  0.00000000E+00  0.00000000E+00  0.00000000E+00  0.00000000E+00
  0.00000000E+00  0.00000000E+00  0.00000000E+00  0.00000000E+00  0.00000000E+00
  0.00000000E+00  0.00000000E+00  0.00000000E+00  0.00000000E+00
Nuclear GFac                               R   N=          14
  0.00000000E+00  0.00000000E+00  0.00000000E+00  0.00000000E+00  0.00000000E+00
  0.00000000E+00  0.00000000E+00  0.00000000E+00  2.79284600E+00  2.79284600E+00
  2.79284600E+00  2.79284600E+00  2.79284600E+00  2.79284600E+00
MicOpt                                     I   N=          14
          -1          -1          -1          -1          -1          -1
          -1          -1          -1          -1          -1          -1
          -1          -1
Number of contracted shells                I               45
Number of primitive shells                 I              118
Pure/Cartesian d shells                    I                1
Pure/Cartesian f shells                    I                0
Highest angular momentum                   I                2
Largest degree of contraction              I                6
Shell types                                I   N=          45
           0          -1          -1          -1           2           0
          -1          -1           2           0          -1          -1
           2           0          -1          -1           2           0
          -1          -1           2           0          -1          -1
           2           0          -1          -1           2           0
          -1          -1           2           0           0           0
           0           0           0           0           0           0
           0           0           0
Number of primitives per shell             I   N=          45
           6           6           3           1           1           6
           3           1           1           6           3           1
           1           6           3           1           1           6
           3           1           1           6           3           1
           1           6           3           1           1           6
           3           1           1           3           1           3
           1           3           1           3           1           3
           1           3           1
Shell to atom map                          I   N=          45
           1           1           1           1           1           2
           2           2           2           3           3           3
           3           4           4           4           4           5
           5           5           5           6           6           6
           6           7           7           7           7           8
           8           8           8           9           9          10
          10          11          11          12          12          13
          13          14          14
Primitive exponents                        R   N=         118
  2.19171000E+04  3.30149000E+03  7.54146000E+02  2.12711000E+02  6.79896000E+01
  2.30515000E+01  4.23735000E+02  1.00710000E+02  3.21599000E+01  1.18079000E+01
  4.63110000E+00  1.87025000E+00  2.61584000E+00  9.22167000E-01  3.41287000E-01
  1.17167000E-01  6.50000000E-01  5.48467166E+03  8.25234946E+02  1.88046958E+02
  5.29645000E+01  1.68975704E+01  5.79963534E+00  1.55396162E+01  3.59993359E+00
  1.01376175E+00  2.70005823E-01  8.00000000E-01  3.04752488E+03  4.57369518E+02
  1.03948685E+02  2.92101553E+01  9.28666296E+00  3.16392696E+00  7.86827235E+00
  1.88128854E+00  5.44249258E-01  1.68714478E-01  8.00000000E-01  3.04752488E+03
  4.57369518E+02  1.03948685E+02  2.92101553E+01  9.28666296E+00  3.16392696E+00
  7.86827235E+00  1.88128854E+00  5.44249258E-01  1.68714478E-01  8.00000000E-01
  3.04752488E+03  4.57369518E+02  1.03948685E+02  2.92101553E+01  9.28666296E+00
  3.16392696E+00  7.86827235E+00  1.88128854E+00  5.44249258E-01  1.68714478E-01
  8.00000000E-01  3.04752488E+03  4.57369518E+02  1.03948685E+02  2.92101553E+01
  9.28666296E+00  3.16392696E+00  7.86827235E+00  1.88128854E+00  5.44249258E-01
  1.68714478E-01  8.00000000E-01  3.04752488E+03  4.57369518E+02  1.03948685E+02
  2.92101553E+01  9.28666296E+00  3.16392696E+00  7.86827235E+00  1.88128854E+00
  5.44249258E-01  1.68714478E-01  8.00000000E-01  3.04752488E+03  4.57369518E+02
  1.03948685E+02  2.92101553E+01  9.28666296E+00  3.16392696E+00  7.86827235E+00
  1.88128854E+00  5.44249258E-01  1.68714478E-01  8.00000000E-01  1.87311370E+01
  2.82539436E+00  6.40121692E-01  1.61277759E-01  1.87311370E+01  2.82539436E+00
  6.40121692E-01  1.61277759E-01  1.87311370E+01  2.82539436E+00  6.40121692E-01
  1.61277759E-01  1.87311370E+01  2.82539436E+00  6.40121692E-01  1.61277759E-01
  1.87311370E+01  2.82539436E+00  6.40121692E-01  1.61277759E-01  1.87311370E+01
  2.82539436E+00  6.40121692E-01  1.61277759E-01
Contraction coefficients                   R   N=         118
  1.86924085E-03  1.42303065E-02  6.96962317E-02  2.38487108E-01  4.83307220E-01
  3.38074154E-01 -2.37677050E-03 -3.16930067E-02 -1.13317024E-01  5.60900118E-02
  5.92255124E-01  4.55006095E-01 -2.50373114E-01  6.69567631E-02  1.05450627E+00
  1.00000000E+00  1.00000000E+00  1.83107443E-03  1.39501722E-02  6.84450781E-02
  2.32714336E-01  4.70192898E-01  3.58520853E-01 -1.10777550E-01 -1.48026263E-01
  1.13076702E+00  1.00000000E+00  1.00000000E+00  1.83473713E-03  1.40373228E-02
  6.88426223E-02  2.32184443E-01  4.67941348E-01  3.62311985E-01 -1.19332420E-01
 -1.60854152E-01  1.14345644E+00  1.00000000E+00  1.00000000E+00  1.83473713E-03
  1.40373228E-02  6.88426223E-02  2.32184443E-01  4.67941348E-01  3.62311985E-01
 -1.19332420E-01 -1.60854152E-01  1.14345644E+00  1.00000000E+00  1.00000000E+00
  1.83473713E-03  1.40373228E-02  6.88426223E-02  2.32184443E-01  4.67941348E-01
  3.62311985E-01 -1.19332420E-01 -1.60854152E-01  1.14345644E+00  1.00000000E+00
  1.00000000E+00  1.83473713E-03  1.40373228E-02  6.88426223E-02  2.32184443E-01
  4.67941348E-01  3.62311985E-01 -1.19332420E-01 -1.60854152E-01  1.14345644E+00
  1.00000000E+00  1.00000000E+00  1.83473713E-03  1.40373228E-02  6.88426223E-02
  2.32184443E-01  4.67941348E-01  3.62311985E-01 -1.19332420E-01 -1.60854152E-01
  1.14345644E+00  1.00000000E+00  1.00000000E+00  1.83473713E-03  1.40373228E-02
  6.88426223E-02  2.32184443E-01  4.67941348E-01  3.62311985E-01 -1.19332420E-01
 -1.60854152E-01  1.14345644E+00  1.00000000E+00  1.00000000E+00  3.34946043E-02
  2.34726953E-01  8.13757326E-01  1.00000000E+00  3.34946043E-02  2.34726953E-01
  8.13757326E-01  1.00000000E+00  3.34946043E-02  2.34726953E-01  8.13757326E-01
  1.00000000E+00  3.34946043E-02  2.34726953E-01  8.13757326E-01  1.00000000E+00
  3.34946043E-02  2.34726953E-01  8.13757326E-01  1.00000000E+00  3.34946043E-02
  2.34726953E-01  8.13757326E-01  1.00000000E+00
P(S=P) Contraction coefficients            R   N=         118
  0.00000000E+00  0.00000000E+00  0.00000000E+00  0.00000000E+00  0.00000000E+00
  0.00000000E+00  4.06100998E-03  3.06812999E-02  1.30451999E-01  3.27204999E-01
  4.52850998E-01  2.56041999E-01 -1.45104895E-02  3.10262776E-01  7.54482456E-01
  1.00000000E+00  0.00000000E+00  0.00000000E+00  0.00000000E+00  0.00000000E+00
  0.00000000E+00  0.00000000E+00  0.00000000E+00  7.08742682E-02  3.39752839E-01
  7.27158577E-01  1.00000000E+00  0.00000000E+00  0.00000000E+00  0.00000000E+00
  0.00000000E+00  0.00000000E+00  0.00000000E+00  0.00000000E+00  6.89990666E-02
  3.16423961E-01  7.44308291E-01  1.00000000E+00  0.00000000E+00  0.00000000E+00
  0.00000000E+00  0.00000000E+00  0.00000000E+00  0.00000000E+00  0.00000000E+00
  6.89990666E-02  3.16423961E-01  7.44308291E-01  1.00000000E+00  0.00000000E+00
  0.00000000E+00  0.00000000E+00  0.00000000E+00  0.00000000E+00  0.00000000E+00
  0.00000000E+00  6.89990666E-02  3.16423961E-01  7.44308291E-01  1.00000000E+00
  0.00000000E+00  0.00000000E+00  0.00000000E+00  0.00000000E+00  0.00000000E+00
  0.00000000E+00  0.00000000E+00  6.89990666E-02  3.16423961E-01  7.44308291E-01
  1.00000000E+00  0.00000000E+00  0.00000000E+00  0.00000000E+00  0.00000000E+00
  0.00000000E+00  0.00000000E+00  0.00000000E+00  6.89990666E-02  3.16423961E-01
  7.44308291E-01  1.00000000E+00  0.00000000E+00  0.00000000E+00  0.00000000E+00
  0.00000000E+00  0.00000000E+00  0.00000000E+00  0.00000000E+00  6.89990666E-02
  3.16423961E-01  7.44308291E-01  1.00000000E+00  0.00000000E+00  0.00000000E+00
  0.00000000E+00  0.00000000E+00  0.00000000E+00  0.00000000E+00  0.00000000E+00
  0.00000000E+00  0.00000000E+00  0.00000000E+00  0.00000000E+00  0.00000000E+00
  0.00000000E+00  0.00000000E+00  0.00000000E+00  0.00000000E+00  0.00000000E+00
  0.00000000E+00  0.00000000E+00  0.00000000E+00  0.00000000E+00  0.00000000E+00
  0.00000000E+00  0.00000000E+00  0.00000000E+00
Coordinates of each shell                  R   N=         135
 -1.85901699E+00 -2.18650788E+00 -1.17758114E-04 -1.85901699E+00 -2.18650788E+00
 -1.17758114E-04 -1.85901699E+00 -2.18650788E+00 -1.17758114E-04 -1.85901699E+00
 -2.18650788E+00 -1.17758114E-04 -1.85901699E+00 -2.18650788E+00 -1.17758114E-04
  3.74523445E+00 -2.50901093E+00 -6.57637591E-04  3.74523445E+00 -2.50901093E+00
 -6.57637591E-04  3.74523445E+00 -2.50901093E+00 -6.57637591E-04  3.74523445E+00
 -2.50901093E+00 -6.57637591E-04  2.78098124E-01  2.76882609E-01 -8.12050115E-06
  2.78098124E-01  2.76882609E-01 -8.12050115E-06  2.78098124E-01  2.76882609E-01
 -8.12050115E-06  2.78098124E-01  2.76882609E-01 -8.12050115E-06 -9.42063935E-01
  2.59825053E+00  4.24926752E-04 -9.42063935E-01  2.59825053E+00  4.24926752E-04
 -9.42063935E-01  2.59825053E+00  4.24926752E-04 -9.42063935E-01  2.59825053E+00
  4.24926752E-04  2.99807059E+00 -2.99612873E-01 -3.31618620E-04  2.99807059E+00
 -2.99612873E-01 -3.31618620E-04  2.99807059E+00 -2.99612873E-01 -3.31618620E-04
  2.99807059E+00 -2.99612873E-01 -3.31618620E-04 -3.59929041E+00  2.36017692E+00
  6.62270757E-04 -3.59929041E+00  2.36017692E+00  6.62270757E-04 -3.59929041E+00
  2.36017692E+00  6.62270757E-04 -3.59929041E+00  2.36017692E+00  6.62270757E-04
  4.81500746E+00  1.90651693E+00 -2.15773091E-04  4.81500746E+00  1.90651693E+00
 -2.15773091E-04  4.81500746E+00  1.90651693E+00 -2.15773091E-04  4.81500746E+00
  1.90651693E+00 -2.15773091E-04 -4.36184231E+00 -1.35766722E-01  4.01745953E-04
 -4.36184231E+00 -1.35766722E-01  4.01745953E-04 -4.36184231E+00 -1.35766722E-01
  4.01745953E-04 -4.36184231E+00 -1.35766722E-01  4.01745953E-04  5.35207331E-02
  4.39185351E+00  5.68142199E-04  5.35207331E-02  4.39185351E+00  5.68142199E-04
 -4.90741878E+00  3.93912393E+00  1.00544759E-03 -4.90741878E+00  3.93912393E+00
  1.00544759E-03  4.52354407E+00  3.08833264E+00 -1.67158610E+00  4.52354407E+00
  3.08833264E+00 -1.67158610E+00  6.73865149E+00  1.16746277E+00 -6.69546507E-04
  6.73865149E+00  1.16746277E+00 -6.69546507E-04  4.52409357E+00  3.08764786E+00
  1.67173862E+00  4.52409357E+00  3.08764786E+00  1.67173862E+00 -6.27787206E+00
 -8.56891577E-01  4.88072417E-04 -6.27787206E+00 -8.56891577E-01  4.88072417E-04
Constraint Structure                       R   N=          42
 -1.85901699E+00 -2.18650788E+00 -1.17758114E-04  3.74523445E+00 -2.50901093E+00
 -6.57637591E-04  2.78098124E-01  2.76882609E-01 -8.12050115E-06 -9.42063935E-01
  2.59825053E+00  4.24926752E-04  2.99807059E+00 -2.99612873E-01 -3.31618620E-04
 -3.59929041E+00  2.36017692E+00  6.62270757E-04  4.81500746E+00  1.90651693E+00
 -2.15773091E-04 -4.36184231E+00 -1.35766722E-01  4.01745953E-04  5.35207331E-02
  4.39185351E+00  5.68142199E-04 -4.90741878E+00  3.93912393E+00  1.00544759E-03
  4.52354407E+00  3.08833264E+00 -1.67158610E+00  6.73865149E+00  1.16746277E+00
 -6.69546507E-04  4.52409357E+00  3.08764786E+00  1.67173862E+00 -6.27787206E+00
 -8.56891577E-01  4.88072417E-04
Num ILSW                                   I              100
ILSW                                       I   N=         100
           0           1           0           1           2           0
           0           0           0           0           0          -1
           0           0           0           0           0           0
           0           0           0           0           1           0
           1           0           0           0           0           0
           0           0      100000           0          -1           0
           0           0           0           0           0           0
           0           0           0           1           1           0
           0           0           1           0           0           0
           0           0           4          40           0           0
           0           0           0           0           0           0
           0           0           0           0           0           0
           0           0           0           0           0           0
           0           0           0           0           0           0
           0           0           0           0           0           0
           0           0           0           0           0           0
           0           0           0           0
Num RLSW                                   I               40
RLSW                                       R   N=          40
  1.00000000E+00  1.00000000E+00  1.00000000E+00  1.00000000E+00  1.00000000E+00
  0.00000000E+00  0.00000000E+00  1.00000000E+00  0.00000000E+00  0.00000000E+00
  0.00000000E+00  0.00000000E+00  1.00000000E+00  0.00000000E+00  0.00000000E+00
  0.00000000E+00  0.00000000E+00  1.00000000E+00  0.00000000E+00  0.00000000E+00
  0.00000000E+00  0.00000000E+00  1.00000000E+00  0.00000000E+00  0.00000000E+00
  0.00000000E+00  0.00000000E+00  1.00000000E+00  0.00000000E+00  0.00000000E+00
  0.00000000E+00  0.00000000E+00  0.00000000E+00  0.00000000E+00  0.00000000E+00
  0.00000000E+00  0.00000000E+00  0.00000000E+00  1.00000000E+00  1.00000000E+00
MxBond                                     I                4
NBond                                      I   N=          14
           2           1           3           3           3           3
           4           3           1           1           1           1
           1           1
IBond                                      I   N=          56
           3           8           0           0           5           0
           0           0           1           4           5           0
           3           6           9           0           2           3
           7           0           4           8          10           0
           5          11          12          13           1           6
          14           0           4           0           0           0
           6           0           0           0           7           0
           0           0           7           0           0           0
           7           0           0           0           8           0
           0           0
RBond                                      R   N=          56
  1.00000000E+00  1.00000000E+00  0.00000000E+00  0.00000000E+00  2.00000000E+00
  0.00000000E+00  0.00000000E+00  0.00000000E+00  1.00000000E+00  1.50000000E+00
  1.50000000E+00  0.00000000E+00  1.50000000E+00  1.50000000E+00  1.00000000E+00
  0.00000000E+00  2.00000000E+00  1.50000000E+00  1.00000000E+00  0.00000000E+00
  1.50000000E+00  1.50000000E+00  1.00000000E+00  0.00000000E+00  1.00000000E+00
  1.00000000E+00  1.00000000E+00  1.00000000E+00  1.00000000E+00  1.50000000E+00
  1.00000000E+00  0.00000000E+00  1.00000000E+00  0.00000000E+00  0.00000000E+00
  0.00000000E+00  1.00000000E+00  0.00000000E+00  0.00000000E+00  0.00000000E+00
  1.00000000E+00  0.00000000E+00  0.00000000E+00  0.00000000E+00  1.00000000E+00
  0.00000000E+00  0.00000000E+00  0.00000000E+00  1.00000000E+00  0.00000000E+00
  0.00000000E+00  0.00000000E+00  1.00000000E+00  0.00000000E+00  0.00000000E+00
  0.00000000E+00
Virial Ratio                               R      2.001301375952568E+00
SCF Energy                                 R     -7.030604098454307E+02
MP2 Energy                                 R     -7.041325513331340E+02
Total Energy                               R     -7.041325513331340E+02
Post-SCF wavefunction norm                 R      1.668162251080726E+00
RMS Force                                  R      1.143184400812778E-06
RMS Density                                R      2.897383157793934E-09
External E-field                           R   N=          35
  0.00000000E+00  0.00000000E+00  0.00000000E+00  0.00000000E+00  0.00000000E+00
  0.00000000E+00  0.00000000E+00  0.00000000E+00  0.00000000E+00  0.00000000E+00
  0.00000000E+00  0.00000000E+00  0.00000000E+00  0.00000000E+00  0.00000000E+00
  0.00000000E+00  0.00000000E+00  0.00000000E+00  0.00000000E+00  0.00000000E+00
  0.00000000E+00  0.00000000E+00  0.00000000E+00  0.00000000E+00  0.00000000E+00
  0.00000000E+00  0.00000000E+00  0.00000000E+00  0.00000000E+00  0.00000000E+00
  0.00000000E+00  0.00000000E+00  0.00000000E+00  0.00000000E+00  0.00000000E+00
IOpCl                                      I                0
IROHF                                      I                0
Alpha Orbital Energies                     R   N=         136
 -9.19825625E+01 -2.05532332E+01 -1.13452678E+01 -1.12827553E+01 -1.12725828E+01
 -1.12666246E+01 -1.12520281E+01 -1.12400149E+01 -8.99218865E+00 -6.67454154E+00
 -6.67360193E+00 -6.67216150E+00 -1.37476105E+00 -1.18549528E+00 -1.04190079E+00
 -1.00164407E+00 -9.81200405E-01 -8.37355450E-01 -7.70194442E-01 -7.24224697E-01
 -6.90468409E-01 -6.20037461E-01 -6.15439769E-01 -6.08065125E-01 -5.72257530E-01
 -5.55730143E-01 -5.37524157E-01 -5.28392779E-01 -4.88437628E-01 -4.85776735E-01
 -4.20921310E-01 -3.55461476E-01 -3.33144555E-01  7.23216514E-02  1.81876974E-01
  1.90342596E-01  2.28758936E-01  2.53598976E-01  2.55435315E-01  2.60117451E-01
  2.99066823E-01  3.08216780E-01  3.24842950E-01  3.27250548E-01  3.61118897E-01
  4.16569869E-01  4.28935087E-01  4.53835511E-01  5.20080034E-01  5.35585103E-01
  5.54490978E-01  5.93272459E-01  6.13363330E-01  6.49433061E-01  7.12491487E-01
  7.37691643E-01  7.40636124E-01  7.69964212E-01  8.03974074E-01  8.11145923E-01
  8.21566196E-01  8.71126770E-01  8.79462996E-01  8.92422417E-01  9.14248306E-01
  9.14666556E-01  9.54062921E-01  1.02434998E+00  1.03920203E+00  1.04296309E+00
  1.07211991E+00  1.08234603E+00  1.10912816E+00  1.11378864E+00  1.13595540E+00
  1.13647716E+00  1.15627752E+00  1.16663970E+00  1.20833593E+00  1.21118763E+00
  1.26155659E+00  1.28022881E+00  1.29793272E+00  1.31894724E+00  1.33304012E+00
  1.40409255E+00  1.41162931E+00  1.46092939E+00  1.53789872E+00  1.56084268E+00
  1.57590244E+00  1.65450986E+00  1.67642268E+00  1.68588981E+00  1.71674155E+00
  1.74385028E+00  1.89605490E+00  1.90035124E+00  2.01059674E+00  2.06049024E+00
  2.09241241E+00  2.10811673E+00  2.19885745E+00  2.20785933E+00  2.22340744E+00
  2.25448551E+00  2.26308008E+00  2.33439276E+00  2.36918684E+00  2.41007219E+00
  2.47242810E+00  2.53217151E+00  2.54082390E+00  2.57488430E+00  2.58125775E+00
  2.60449809E+00  2.70829462E+00  2.74654892E+00  2.82109086E+00  2.82664787E+00
  2.91439245E+00  2.92910322E+00  2.98913756E+00  3.12128603E+00  3.22727491E+00
  3.32472430E+00  3.41649258E+00  3.44791347E+00  4.35263318E+00  4.37474998E+00
  4.50976656E+00  4.52742172E+00  4.61480100E+00  4.72735105E+00  4.83572151E+00
  4.97306782E+00
Alpha MO coefficients                      R   N=       18496
  9.96255235E-01  1.42528729E-02  3.93334606E-06  9.51002025E-05  1.20722844E-08
 -1.99946588E-02 -5.24787883E-05 -1.89030956E-04 -2.01066901E-08  2.13319348E-03
  5.01692122E-06 -4.43797559E-05 -5.67058488E-09  6.87775486E-03  6.88698717E-03
  6.91180305E-03  2.22092620E-07  4.02161207E-09 -3.94786404E-09 -2.02176376E-05
 -8.69700039E-05 -6.45276733E-06 -1.46776006E-05 -9.70626569E-10  6.83731126E-04
 -2.99879945E-05  2.24221676E-04  2.81816472E-08 -8.05883059E-05 -2.85158651E-05
 -5.18334746E-05 -2.30446992E-05  3.02905085E-10  5.13342523E-09  1.95852291E-05
  1.27191638E-04 -1.69355272E-05  4.59182668E-06  1.78307893E-09 -6.00085774E-04
 -4.44163290E-05 -9.11412492E-04 -1.11920651E-07  1.74470511E-05 -2.42387212E-05
  6.46815258E-06 -5.02130549E-05 -7.44599869E-09 -2.51726657E-10 -7.47583253E-06
 -7.04528174E-05 -6.31101175E-06  1.07518298E-05  2.44843319E-09  1.04451738E-03
  1.24488348E-04 -4.00904343E-04 -6.87842474E-08  3.67116094E-05  1.41330021E-06
 -2.26643452E-05 -1.29405410E-06 -7.29188388E-09  4.13222968E-09 -8.39483509E-06
 -8.77071935E-06 -5.56709558E-06  8.17369500E-06  1.47754262E-09 -2.09788909E-04
  6.47139469E-05  7.74082604E-04  8.70436832E-08 -4.95679725E-05 -2.88084987E-05
 -1.35401502E-05 -6.85405334E-06  2.51480864E-09 -1.22482926E-09  1.26399181E-05
  4.42820355E-05  1.32747052E-05  1.56412436E-05  7.97054922E-10 -6.90490772E-04
 -3.62510943E-04  5.07892517E-04  1.05304129E-07  1.71193565E-05 -1.66457093E-06
  1.81034945E-05 -1.01239293E-05 -9.95347901E-10 -2.05736120E-09 -4.10621204E-06
 -6.98848542E-06  2.77707856E-05  8.97706191E-06 -1.98603206E-09 -2.54109940E-04
  7.62601282E-05  6.99987300E-05  8.63035870E-09 -2.16061041E-05  3.70146529E-06
 -1.56085236E-05 -2.57700714E-06  2.68364174E-10  3.19759184E-09  5.73009097E-06
  6.95457913E-05  3.37820692E-05 -2.24058728E-05 -6.15939138E-09  5.31369055E-04
  4.44671262E-04  1.54886509E-04 -2.33457909E-08 -3.34925569E-05 -1.87017846E-06
 -2.78899993E-05  6.24370391E-05  8.95310394E-09 -2.14109785E-09 -2.38098258E-05
  3.26300081E-05 -4.31221052E-05 -1.81273182E-04  2.49801664E-06 -9.99977001E-06
  6.08623856E-06  1.59526853E-05  2.49693960E-06 -1.00056257E-05  8.79744285E-06
  6.95541449E-05  1.73322140E-08  4.64126937E-07 -2.28641080E-07  4.96816530E-06
  6.20552318E-10  7.23864031E-06  5.73047394E-06 -2.89843710E-05 -3.93301661E-09
 -4.11045285E-05 -1.71476022E-04  3.06227332E-05  1.97878030E-08 -7.30980478E-06
 -3.39006826E-06  2.77676596E-06 -1.94194489E-05 -1.53405731E-09  9.68332336E-10
  9.94697310E-01  2.08995081E-02 -4.96838444E-04  1.40644371E-03  2.09459795E-07
  4.62786442E-03 -1.38971144E-06 -3.68185320E-05 -5.82658681E-09 -3.86293622E-03
 -3.68238138E-03 -4.16744143E-03 -8.02041375E-05 -4.18525238E-08  7.22357770E-08
 -3.43535162E-07  2.29595366E-05 -1.76223006E-05  3.23940968E-05  5.30109121E-09
 -3.38177423E-04 -2.69687072E-06 -3.35201642E-04 -4.33454533E-08 -9.45571268E-06
 -4.69958178E-05 -1.88635435E-05  7.43884476E-05  7.99498251E-09 -1.13074578E-08
 -1.17596906E-07 -1.11960222E-05  2.19293410E-05 -2.16009218E-05 -5.14778892E-09
  3.24200119E-04 -2.70710462E-05 -2.21701816E-04 -2.79524981E-08  3.76029723E-06
  3.25846649E-05  2.37808754E-06 -1.34410380E-05 -2.18794007E-09  6.27478980E-09
 -8.83596920E-06  4.60759822E-04 -9.64741534E-07  1.04094265E-06 -1.32280245E-10
 -1.45430454E-04 -1.67190343E-04  7.47930637E-04  1.06762425E-07 -1.19813978E-04
 -6.62293566E-04 -5.42455484E-05  2.33196533E-04  3.42656823E-08 -1.02999196E-07
  3.12841179E-06  1.82902723E-05 -4.63281782E-06 -1.43191395E-06  2.57451619E-10
 -2.25715165E-04 -4.30539519E-05  1.32031017E-04  2.24231441E-08 -1.44093829E-06
 -3.56614041E-06  6.21733327E-06 -2.28154673E-07  9.20665991E-10 -1.50757086E-09
 -1.44969271E-06  1.43930826E-05  2.69009595E-06  2.82596079E-05  3.29745206E-09
 -1.86041797E-04  1.54450385E-04  7.51121905E-05 -4.75736308E-09  1.99469701E-05
 -5.71697365E-05 -2.30190303E-05  1.38093642E-06 -4.21168906E-09 -4.54888760E-09
  3.37690212E-06  1.04730075E-05  3.23032864E-06 -3.90002521E-06 -9.47621069E-10
  1.28173797E-05  4.02235854E-06  1.30314609E-04  1.75407633E-08  1.40915130E-06
  1.17031667E-05  8.31741969E-06  4.63170805E-06  1.44794006E-09  4.90084934E-11
  6.12288427E-06  7.61596953E-05 -1.66821750E-06 -3.29558976E-05  1.36088979E-05
 -3.00680805E-05  7.53224724E-06 -6.18169568E-05  1.36087211E-05 -3.00709644E-05
  8.71191157E-06  3.10627253E-06  6.50868940E-07  1.43244346E-05 -7.82939536E-06
 -1.95556918E-05 -1.81667224E-09  1.48709989E-05  4.74511752E-05  1.36323298E-04
  1.32149223E-08  1.01305102E-03  4.83524921E-04  4.44118566E-04  1.03880736E-08
  9.00403945E-05  4.40098962E-05 -2.43221728E-05  4.45106878E-05 -7.15604699E-09
  6.30045573E-09 -1.81437409E-04  9.28669985E-04 -7.92166452E-05  2.51171425E-04
  3.46778952E-08 -5.06854755E-03  8.03829528E-04 -2.00254576E-03 -2.94981991E-07
  3.46184208E-04  1.13550844E-04  6.28168595E-04  1.35348597E-04  4.50364360E-08
 -7.87094049E-08  5.00264962E-03  1.36000160E-04 -1.97001967E-04 -1.21693987E-04
  4.72478004E-09  6.02771873E-03  1.26466819E-03  3.49076982E-03  3.30071164E-07
 -6.26513786E-04 -2.16525251E-04 -1.93872377E-04  1.30980610E-04  6.06633447E-08
 -1.22737268E-08  2.05677004E-05  1.24330594E-04 -1.45776128E-04  2.77535304E-06
  1.39050559E-08 -4.01733715E-03 -6.47170533E-05  2.23612288E-03  3.16539665E-07
 -6.77139953E-05  6.92836880E-05  2.80072558E-06  3.85803613E-05  1.52206124E-08
  5.80469561E-09  9.95880037E-01  2.66975503E-02 -1.88471576E-05 -3.59767451E-04
 -3.48920297E-08 -9.55713783E-03  1.00109834E-03 -6.43440987E-03 -8.70712978E-07
 -1.37377700E-03 -7.20177783E-04 -2.18290935E-03 -3.10112234E-04 -1.17012057E-07
  2.30207756E-07 -1.63245810E-05 -1.40501836E-04  5.60846894E-05  2.69518052E-05
 -1.73129842E-09  1.90481449E-03  7.23134508E-04 -1.26387427E-03 -2.47452210E-07
  4.47107575E-05  4.74278965E-06 -4.14671738E-05 -4.59159076E-06 -1.11712276E-08
  7.90963180E-09  2.89039064E-03  1.44141006E-04 -6.27804504E-05  6.00771163E-05