187_Cysteine Gaussian SP Calculation on node58.bme.utexas.edu           
Freq      RMP2-FC                                                     6-31G(d)            
Number of atoms                            I               14
Info1-9                                    I   N=           9
          25          24        1002           0           0         100
           6           2           1
Charge                                     I                0
Multiplicity                               I                1
Number of electrons                        I               64
Number of alpha electrons                  I               32
Number of beta electrons                   I               32
Number of basis functions                  I              123
Number of independent functions            I              123
Number of point charges in /Mol/           I                0
Number of translation vectors              I                0
Atomic numbers                             I   N=          14
          16           8           8           7           6           6
           6           1           1           1           1           1
           1           1
Nuclear charges                            R   N=          14
  1.60000000E+01  8.00000000E+00  8.00000000E+00  7.00000000E+00  6.00000000E+00
  6.00000000E+00  6.00000000E+00  1.00000000E+00  1.00000000E+00  1.00000000E+00
  1.00000000E+00  1.00000000E+00  1.00000000E+00  1.00000000E+00
Current cartesian coordinates              R   N=          42
  4.26682200E+00 -5.15488709E-01 -5.54582140E-01 -4.26142635E+00 -1.31108239E+00
 -1.06327534E+00 -1.12202324E+00 -2.88006596E+00  1.38380769E+00 -2.38229117E+00
  3.30211515E+00  5.18493128E-01 -7.07434074E-01  1.33237552E+00 -4.91244976E-01
  1.85733794E+00  1.52348671E+00  7.97255456E-01 -1.96243050E+00 -1.17985378E+00
  7.75982510E-02 -4.36712175E-01  1.42209757E+00 -2.55573976E+00  2.57094139E+00
  3.45110763E+00  5.68688404E-01  1.64431665E+00  1.16172922E+00  2.81629857E+00
 -4.11078012E+00  3.15426469E+00 -3.18456929E-01 -1.67870907E+00  5.02903185E+00
  3.32413092E-02  3.34281290E+00 -2.66891580E+00  4.00491024E-01 -4.98222693E+00
 -2.94316573E+00 -5.66571516E-01
Force Field                                I                0
Int Atom Types                             I   N=          14
           0           0           0           0           0           0
           0           0           0           0           0           0
           0           0
MM charges                                 R   N=          14
  0.00000000E+00  0.00000000E+00  0.00000000E+00  0.00000000E+00  0.00000000E+00
  0.00000000E+00  0.00000000E+00  0.00000000E+00  0.00000000E+00  0.00000000E+00
  0.00000000E+00  0.00000000E+00  0.00000000E+00  0.00000000E+00
Integer atomic weights                     I   N=          14
          32          16          16          14          12          12
          12           1           1           1           1           1
           1           1
Real atomic weights                        R   N=          14
  3.19720718E+01  1.59949146E+01  1.59949146E+01  1.40030740E+01  1.20000000E+01
  1.20000000E+01  1.20000000E+01  1.00782504E+00  1.00782504E+00  1.00782504E+00
  1.00782504E+00  1.00782504E+00  1.00782504E+00  1.00782504E+00
Atom fragment info                         I   N=          14
           0           0           0           0           0           0
           0           0           0           0           0           0
           0           0
Atom residue num                           I   N=          14
           0           0           0           0           0           0
           0           0           0           0           0           0
           0           0
Nuclear spins                              I   N=          14
           0           0           0           2           0           0
           0           1           1           1           1           1
           1           1
Nuclear ZEff                               R   N=          14
 -1.36000000E+01 -5.60000000E+00 -5.60000000E+00 -4.55000000E+00 -3.60000000E+00
 -3.60000000E+00 -3.60000000E+00 -1.00000000E+00 -1.00000000E+00 -1.00000000E+00
 -1.00000000E+00 -1.00000000E+00 -1.00000000E+00 -1.00000000E+00
Nuclear QMom                               R   N=          14
  0.00000000E+00  0.00000000E+00  0.00000000E+00  2.04400000E+00  0.00000000E+00
  0.00000000E+00  0.00000000E+00  0.00000000E+00  0.00000000E+00  0.00000000E+00
  0.00000000E+00  0.00000000E+00  0.00000000E+00  0.00000000E+00
Nuclear GFac                               R   N=          14
  0.00000000E+00  0.00000000E+00  0.00000000E+00  4.03761000E-01  0.00000000E+00
  0.00000000E+00  0.00000000E+00  2.79284600E+00  2.79284600E+00  2.79284600E+00
  2.79284600E+00  2.79284600E+00  2.79284600E+00  2.79284600E+00
MicOpt                                     I   N=          14
          -1          -1          -1          -1          -1          -1
          -1          -1          -1          -1          -1          -1
          -1          -1
Number of contracted shells                I               43
Number of primitive shells                 I              111
Pure/Cartesian d shells                    I                1
Pure/Cartesian f shells                    I                0
Highest angular momentum                   I                2
Largest degree of contraction              I                6
Shell types                                I   N=          43
           0          -1          -1          -1           2           0
          -1          -1           2           0          -1          -1
           2           0          -1          -1           2           0
          -1          -1           2           0          -1          -1
           2           0          -1          -1           2           0
           0           0           0           0           0           0
           0           0           0           0           0           0
           0
Number of primitives per shell             I   N=          43
           6           6           3           1           1           6
           3           1           1           6           3           1
           1           6           3           1           1           6
           3           1           1           6           3           1
           1           6           3           1           1           3
           1           3           1           3           1           3
           1           3           1           3           1           3
           1
Shell to atom map                          I   N=          43
           1           1           1           1           1           2
           2           2           2           3           3           3
           3           4           4           4           4           5
           5           5           5           6           6           6
           6           7           7           7           7           8
           8           9           9          10          10          11
          11          12          12          13          13          14
          14
Primitive exponents                        R   N=         111
  2.19171000E+04  3.30149000E+03  7.54146000E+02  2.12711000E+02  6.79896000E+01
  2.30515000E+01  4.23735000E+02  1.00710000E+02  3.21599000E+01  1.18079000E+01
  4.63110000E+00  1.87025000E+00  2.61584000E+00  9.22167000E-01  3.41287000E-01
  1.17167000E-01  6.50000000E-01  5.48467166E+03  8.25234946E+02  1.88046958E+02
  5.29645000E+01  1.68975704E+01  5.79963534E+00  1.55396162E+01  3.59993359E+00
  1.01376175E+00  2.70005823E-01  8.00000000E-01  5.48467166E+03  8.25234946E+02
  1.88046958E+02  5.29645000E+01  1.68975704E+01  5.79963534E+00  1.55396162E+01
  3.59993359E+00  1.01376175E+00  2.70005823E-01  8.00000000E-01  4.17351146E+03
  6.27457911E+02  1.42902093E+02  4.02343293E+01  1.28202129E+01  4.39043701E+00
  1.16263619E+01  2.71627981E+00  7.72218397E-01  2.12031498E-01  8.00000000E-01
  3.04752488E+03  4.57369518E+02  1.03948685E+02  2.92101553E+01  9.28666296E+00
  3.16392696E+00  7.86827235E+00  1.88128854E+00  5.44249258E-01  1.68714478E-01
  8.00000000E-01  3.04752488E+03  4.57369518E+02  1.03948685E+02  2.92101553E+01
  9.28666296E+00  3.16392696E+00  7.86827235E+00  1.88128854E+00  5.44249258E-01
  1.68714478E-01  8.00000000E-01  3.04752488E+03  4.57369518E+02  1.03948685E+02
  2.92101553E+01  9.28666296E+00  3.16392696E+00  7.86827235E+00  1.88128854E+00
  5.44249258E-01  1.68714478E-01  8.00000000E-01  1.87311370E+01  2.82539436E+00
  6.40121692E-01  1.61277759E-01  1.87311370E+01  2.82539436E+00  6.40121692E-01
  1.61277759E-01  1.87311370E+01  2.82539436E+00  6.40121692E-01  1.61277759E-01
  1.87311370E+01  2.82539436E+00  6.40121692E-01  1.61277759E-01  1.87311370E+01
  2.82539436E+00  6.40121692E-01  1.61277759E-01  1.87311370E+01  2.82539436E+00
  6.40121692E-01  1.61277759E-01  1.87311370E+01  2.82539436E+00  6.40121692E-01
  1.61277759E-01
Contraction coefficients                   R   N=         111
  1.86924085E-03  1.42303065E-02  6.96962317E-02  2.38487108E-01  4.83307220E-01
  3.38074154E-01 -2.37677050E-03 -3.16930067E-02 -1.13317024E-01  5.60900118E-02
  5.92255124E-01  4.55006095E-01 -2.50373114E-01  6.69567631E-02  1.05450627E+00
  1.00000000E+00  1.00000000E+00  1.83107443E-03  1.39501722E-02  6.84450781E-02
  2.32714336E-01  4.70192898E-01  3.58520853E-01 -1.10777550E-01 -1.48026263E-01
  1.13076702E+00  1.00000000E+00  1.00000000E+00  1.83107443E-03  1.39501722E-02
  6.84450781E-02  2.32714336E-01  4.70192898E-01  3.58520853E-01 -1.10777550E-01
 -1.48026263E-01  1.13076702E+00  1.00000000E+00  1.00000000E+00  1.83477216E-03
  1.39946270E-02  6.85865518E-02  2.32240873E-01  4.69069948E-01  3.60455199E-01
 -1.14961182E-01 -1.69117479E-01  1.14585195E+00  1.00000000E+00  1.00000000E+00
  1.83473713E-03  1.40373228E-02  6.88426223E-02  2.32184443E-01  4.67941348E-01
  3.62311985E-01 -1.19332420E-01 -1.60854152E-01  1.14345644E+00  1.00000000E+00
  1.00000000E+00  1.83473713E-03  1.40373228E-02  6.88426223E-02  2.32184443E-01
  4.67941348E-01  3.62311985E-01 -1.19332420E-01 -1.60854152E-01  1.14345644E+00
  1.00000000E+00  1.00000000E+00  1.83473713E-03  1.40373228E-02  6.88426223E-02
  2.32184443E-01  4.67941348E-01  3.62311985E-01 -1.19332420E-01 -1.60854152E-01
  1.14345644E+00  1.00000000E+00  1.00000000E+00  3.34946043E-02  2.34726953E-01
  8.13757326E-01  1.00000000E+00  3.34946043E-02  2.34726953E-01  8.13757326E-01
  1.00000000E+00  3.34946043E-02  2.34726953E-01  8.13757326E-01  1.00000000E+00
  3.34946043E-02  2.34726953E-01  8.13757326E-01  1.00000000E+00  3.34946043E-02
  2.34726953E-01  8.13757326E-01  1.00000000E+00  3.34946043E-02  2.34726953E-01
  8.13757326E-01  1.00000000E+00  3.34946043E-02  2.34726953E-01  8.13757326E-01
  1.00000000E+00
P(S=P) Contraction coefficients            R   N=         111
  0.00000000E+00  0.00000000E+00  0.00000000E+00  0.00000000E+00  0.00000000E+00
  0.00000000E+00  4.06100998E-03  3.06812999E-02  1.30451999E-01  3.27204999E-01
  4.52850998E-01  2.56041999E-01 -1.45104895E-02  3.10262776E-01  7.54482456E-01
  1.00000000E+00  0.00000000E+00  0.00000000E+00  0.00000000E+00  0.00000000E+00
  0.00000000E+00  0.00000000E+00  0.00000000E+00  7.08742682E-02  3.39752839E-01
  7.27158577E-01  1.00000000E+00  0.00000000E+00  0.00000000E+00  0.00000000E+00
  0.00000000E+00  0.00000000E+00  0.00000000E+00  0.00000000E+00  7.08742682E-02
  3.39752839E-01  7.27158577E-01  1.00000000E+00  0.00000000E+00  0.00000000E+00
  0.00000000E+00  0.00000000E+00  0.00000000E+00  0.00000000E+00  0.00000000E+00
  6.75797439E-02  3.23907296E-01  7.40895140E-01  1.00000000E+00  0.00000000E+00
  0.00000000E+00  0.00000000E+00  0.00000000E+00  0.00000000E+00  0.00000000E+00
  0.00000000E+00  6.89990666E-02  3.16423961E-01  7.44308291E-01  1.00000000E+00
  0.00000000E+00  0.00000000E+00  0.00000000E+00  0.00000000E+00  0.00000000E+00
  0.00000000E+00  0.00000000E+00  6.89990666E-02  3.16423961E-01  7.44308291E-01
  1.00000000E+00  0.00000000E+00  0.00000000E+00  0.00000000E+00  0.00000000E+00
  0.00000000E+00  0.00000000E+00  0.00000000E+00  6.89990666E-02  3.16423961E-01
  7.44308291E-01  1.00000000E+00  0.00000000E+00  0.00000000E+00  0.00000000E+00
  0.00000000E+00  0.00000000E+00  0.00000000E+00  0.00000000E+00  0.00000000E+00
  0.00000000E+00  0.00000000E+00  0.00000000E+00  0.00000000E+00  0.00000000E+00
  0.00000000E+00  0.00000000E+00  0.00000000E+00  0.00000000E+00  0.00000000E+00
  0.00000000E+00  0.00000000E+00  0.00000000E+00  0.00000000E+00  0.00000000E+00
  0.00000000E+00  0.00000000E+00  0.00000000E+00  0.00000000E+00  0.00000000E+00
  0.00000000E+00
Coordinates of each shell                  R   N=         129
  4.26682200E+00 -5.15488709E-01 -5.54582140E-01  4.26682200E+00 -5.15488709E-01
 -5.54582140E-01  4.26682200E+00 -5.15488709E-01 -5.54582140E-01  4.26682200E+00
 -5.15488709E-01 -5.54582140E-01  4.26682200E+00 -5.15488709E-01 -5.54582140E-01
 -4.26142635E+00 -1.31108239E+00 -1.06327534E+00 -4.26142635E+00 -1.31108239E+00
 -1.06327534E+00 -4.26142635E+00 -1.31108239E+00 -1.06327534E+00 -4.26142635E+00
 -1.31108239E+00 -1.06327534E+00 -1.12202324E+00 -2.88006596E+00  1.38380769E+00
 -1.12202324E+00 -2.88006596E+00  1.38380769E+00 -1.12202324E+00 -2.88006596E+00
  1.38380769E+00 -1.12202324E+00 -2.88006596E+00  1.38380769E+00 -2.38229117E+00
  3.30211515E+00  5.18493128E-01 -2.38229117E+00  3.30211515E+00  5.18493128E-01
 -2.38229117E+00  3.30211515E+00  5.18493128E-01 -2.38229117E+00  3.30211515E+00
  5.18493128E-01 -7.07434074E-01  1.33237552E+00 -4.91244976E-01 -7.07434074E-01
  1.33237552E+00 -4.91244976E-01 -7.07434074E-01  1.33237552E+00 -4.91244976E-01
 -7.07434074E-01  1.33237552E+00 -4.91244976E-01  1.85733794E+00  1.52348671E+00
  7.97255456E-01  1.85733794E+00  1.52348671E+00  7.97255456E-01  1.85733794E+00
  1.52348671E+00  7.97255456E-01  1.85733794E+00  1.52348671E+00  7.97255456E-01
 -1.96243050E+00 -1.17985378E+00  7.75982510E-02 -1.96243050E+00 -1.17985378E+00
  7.75982510E-02 -1.96243050E+00 -1.17985378E+00  7.75982510E-02 -1.96243050E+00
 -1.17985378E+00  7.75982510E-02 -4.36712175E-01  1.42209757E+00 -2.55573976E+00
 -4.36712175E-01  1.42209757E+00 -2.55573976E+00  2.57094139E+00  3.45110763E+00
  5.68688404E-01  2.57094139E+00  3.45110763E+00  5.68688404E-01  1.64431665E+00
  1.16172922E+00  2.81629857E+00  1.64431665E+00  1.16172922E+00  2.81629857E+00
 -4.11078012E+00  3.15426469E+00 -3.18456929E-01 -4.11078012E+00  3.15426469E+00
 -3.18456929E-01 -1.67870907E+00  5.02903185E+00  3.32413092E-02 -1.67870907E+00
  5.02903185E+00  3.32413092E-02  3.34281290E+00 -2.66891580E+00  4.00491024E-01
  3.34281290E+00 -2.66891580E+00  4.00491024E-01 -4.98222693E+00 -2.94316573E+00
 -5.66571516E-01 -4.98222693E+00 -2.94316573E+00 -5.66571516E-01
Constraint Structure                       R   N=          42
  4.26682200E+00 -5.15488709E-01 -5.54582140E-01 -4.26142635E+00 -1.31108239E+00
 -1.06327534E+00 -1.12202324E+00 -2.88006596E+00  1.38380769E+00 -2.38229117E+00
  3.30211515E+00  5.18493128E-01 -7.07434074E-01  1.33237552E+00 -4.91244976E-01
  1.85733794E+00  1.52348671E+00  7.97255456E-01 -1.96243050E+00 -1.17985378E+00
  7.75982510E-02 -4.36712175E-01  1.42209757E+00 -2.55573976E+00  2.57094139E+00
  3.45110763E+00  5.68688404E-01  1.64431665E+00  1.16172922E+00  2.81629857E+00
 -4.11078012E+00  3.15426469E+00 -3.18456929E-01 -1.67870907E+00  5.02903185E+00
  3.32413092E-02  3.34281290E+00 -2.66891580E+00  4.00491024E-01 -4.98222693E+00
 -2.94316573E+00 -5.66571516E-01
Num ILSW                                   I              100
ILSW                                       I   N=         100
           0           1           0           0           2           0
           0           0           0           0           0          -1
           0           0           0           0           0           0
           0           0           0           0           1           0
           1           0           0           0           0           0
           0           0      100000           0          -1           0
           0           0           0           0           0           0
           0           0           0           1           1           0
           0           0           1           0           0           0
           0           0           4          40           0           0
           0           0           0           0           0           0
           0           0           0           0           0           0
           0           0           0           0           0           0
           0           0           0           0           0           0
           0           0           0           0           0           0
           0           0           0           0           0           0
           0           0           0           0
Num RLSW                                   I               40
RLSW                                       R   N=          40
  1.00000000E+00  1.00000000E+00  1.00000000E+00  1.00000000E+00  1.00000000E+00
  0.00000000E+00  0.00000000E+00  1.00000000E+00  0.00000000E+00  0.00000000E+00
  0.00000000E+00  0.00000000E+00  1.00000000E+00  0.00000000E+00  0.00000000E+00
  0.00000000E+00  0.00000000E+00  1.00000000E+00  0.00000000E+00  0.00000000E+00
  0.00000000E+00  0.00000000E+00  1.00000000E+00  0.00000000E+00  0.00000000E+00
  0.00000000E+00  0.00000000E+00  1.00000000E+00  0.00000000E+00  0.00000000E+00
  0.00000000E+00  0.00000000E+00  0.00000000E+00  0.00000000E+00  0.00000000E+00
  0.00000000E+00  0.00000000E+00  0.00000000E+00  1.00000000E+00  1.00000000E+00
MxBond                                     I                4
NBond                                      I   N=          14
           2           2           1           3           4           4
           3           1           1           1           1           1
           1           1
IBond                                      I   N=          56
           6          13           0           0           7          14
           0           0           7           0           0           0
           5          11          12           0           4           6
           7           8           1           5           9          10
           2           3           5           0           5           0
           0           0           6           0           0           0
           6           0           0           0           4           0
           0           0           4           0           0           0
           1           0           0           0           2           0
           0           0
RBond                                      R   N=          56
  1.00000000E+00  1.00000000E+00  0.00000000E+00  0.00000000E+00  1.50000000E+00
  1.00000000E+00  0.00000000E+00  0.00000000E+00  2.00000000E+00  0.00000000E+00
  0.00000000E+00  0.00000000E+00  1.00000000E+00  1.00000000E+00  1.00000000E+00
  0.00000000E+00  1.00000000E+00  1.00000000E+00  1.00000000E+00  1.00000000E+00
  1.00000000E+00  1.00000000E+00  1.00000000E+00  1.00000000E+00  1.50000000E+00
  2.00000000E+00  1.00000000E+00  0.00000000E+00  1.00000000E+00  0.00000000E+00
  0.00000000E+00  0.00000000E+00  1.00000000E+00  0.00000000E+00  0.00000000E+00
  0.00000000E+00  1.00000000E+00  0.00000000E+00  0.00000000E+00  0.00000000E+00
  1.00000000E+00  0.00000000E+00  0.00000000E+00  0.00000000E+00  1.00000000E+00
  0.00000000E+00  0.00000000E+00  0.00000000E+00  1.00000000E+00  0.00000000E+00
  0.00000000E+00  0.00000000E+00  1.00000000E+00  0.00000000E+00  0.00000000E+00
  0.00000000E+00
Virial Ratio                               R      2.001454755914529E+00
SCF Energy                                 R     -7.193659034724578E+02
MP2 Energy                                 R     -7.203945042638919E+02
Total Energy                               R     -7.203945042638919E+02
Post-SCF wavefunction norm                 R      1.630512943825443E+00
RMS Force                                  R      5.210571840086025E-07
RMS Density                                R      2.235637947646328E-09
External E-field                           R   N=          35
  0.00000000E+00  0.00000000E+00  0.00000000E+00  0.00000000E+00  0.00000000E+00
  0.00000000E+00  0.00000000E+00  0.00000000E+00  0.00000000E+00  0.00000000E+00
  0.00000000E+00  0.00000000E+00  0.00000000E+00  0.00000000E+00  0.00000000E+00
  0.00000000E+00  0.00000000E+00  0.00000000E+00  0.00000000E+00  0.00000000E+00
  0.00000000E+00  0.00000000E+00  0.00000000E+00  0.00000000E+00  0.00000000E+00
  0.00000000E+00  0.00000000E+00  0.00000000E+00  0.00000000E+00  0.00000000E+00
  0.00000000E+00  0.00000000E+00  0.00000000E+00  0.00000000E+00  0.00000000E+00
IOpCl                                      I                0
IROHF                                      I                0
Alpha Orbital Energies                     R   N=         123
 -9.19347676E+01 -2.06339645E+01 -2.05736772E+01 -1.55702688E+01 -1.14044874E+01
 -1.12925919E+01 -1.12678864E+01 -8.94717381E+00 -6.63027362E+00 -6.62875298E+00
 -6.62655975E+00 -1.47205415E+00 -1.36882208E+00 -1.21352226E+00 -1.06309194E+00
 -9.63572343E-01 -8.78727311E-01 -7.89273986E-01 -7.16293404E-01 -7.13481682E-01
 -6.68587188E-01 -6.54535818E-01 -6.20324955E-01 -5.99252916E-01 -5.65354758E-01
 -5.55290070E-01 -5.24269027E-01 -4.90286451E-01 -4.70655837E-01 -4.47109806E-01
 -4.17021980E-01 -3.56569182E-01  1.54632204E-01  1.88659987E-01  2.11307660E-01
  2.27178851E-01  2.49597317E-01  2.78333761E-01  2.84603772E-01  2.99614503E-01
  3.25618190E-01  3.74734372E-01  4.13684812E-01  4.27521953E-01  4.94127550E-01
  5.08435455E-01  5.33353431E-01  5.60900965E-01  5.69199686E-01  5.98903806E-01
  7.45803195E-01  7.53607468E-01  7.70319276E-01  8.08720942E-01  8.31861144E-01
  8.55013397E-01  9.07736595E-01  9.13623320E-01  9.44974322E-01  9.56248819E-01
  9.77491725E-01  9.97596359E-01  1.04254173E+00  1.07784056E+00  1.10547857E+00
  1.11799258E+00  1.12731442E+00  1.14635509E+00  1.16230864E+00  1.17714408E+00
  1.19336213E+00  1.19555679E+00  1.22682624E+00  1.25117579E+00  1.27737105E+00
  1.29815002E+00  1.34947256E+00  1.38484909E+00  1.40021591E+00  1.41950964E+00
  1.49380149E+00  1.49719173E+00  1.61335919E+00  1.65416024E+00  1.66615402E+00
  1.76316175E+00  1.83696532E+00  1.92183957E+00  1.94016615E+00  2.01446994E+00
  2.02056843E+00  2.03296723E+00  2.08275873E+00  2.11504002E+00  2.15847733E+00
  2.19018365E+00  2.24114229E+00  2.26260702E+00  2.29839263E+00  2.35029318E+00
  2.42555556E+00  2.44213842E+00  2.52103511E+00  2.61157813E+00  2.64899157E+00
  2.68941535E+00  2.72340189E+00  2.81709898E+00  2.86249595E+00  2.91727045E+00
  2.98920959E+00  3.00353799E+00  3.14736187E+00  3.21316662E+00  3.34466582E+00
  3.45843833E+00  4.17773139E+00  4.24462228E+00  4.34968811E+00  4.51077665E+00
  4.65576942E+00  4.77133075E+00  5.00740215E+00
Alpha MO coefficients                      R   N=       15129
  9.96253437E-01  1.42517022E-02 -8.00358177E-05 -8.45726147E-06  4.74459353E-05
 -2.00052677E-02  1.54806125E-04 -2.19776857E-05 -6.19698983E-05  2.93321889E-03
 -3.05049085E-04 -6.67025664E-05  1.77008161E-04  6.87393805E-03  6.88850796E-03
  6.87780703E-03  4.59654085E-06 -4.23049685E-06  2.53960324E-06  2.25240544E-06
  1.21417599E-05 -1.11472050E-07  8.07954488E-06  2.72849812E-06 -4.71559892E-05
 -2.23163670E-05 -4.00830905E-05 -1.92879624E-05  2.14839190E-06  4.96404391E-06
  6.79676878E-06 -6.36739022E-06 -7.50526731E-06 -1.55357815E-06  9.94876027E-06
  3.92556510E-05  1.20101737E-05  8.73720220E-06 -4.80254730E-06 -1.46175540E-04
 -3.22709191E-05 -3.95967503E-05  1.89497673E-05  2.21999252E-05  3.07975442E-05
  3.97482885E-05 -6.33857620E-06  4.66854974E-06  9.67511549E-06  4.50905841E-06
  1.90568935E-05 -1.40327240E-06  1.61988253E-07 -1.87476433E-06 -1.52545187E-04
  1.30701021E-05  4.35310897E-05  4.61706426E-05  9.94527845E-06  6.84848260E-06
  7.64215881E-06 -3.62618550E-06 -7.94168573E-06 -9.74997244E-06  3.24681891E-06
  5.59073781E-05 -7.15156201E-06  8.81345887E-07 -3.10456180E-06 -2.65964497E-04
 -4.05989628E-04  3.60797187E-05 -1.25847414E-04 -4.69648734E-05  1.34497344E-06
 -1.15415996E-05  5.46871452E-06 -1.31007205E-05  2.65457199E-06 -1.94119991E-05
 -2.06429219E-05  6.92133273E-05 -4.42400967E-05 -3.20780954E-05  5.77276118E-04
 -2.70017281E-04  3.45013645E-05 -9.05242709E-05 -2.54756734E-05 -5.43612553E-05
 -3.78396204E-05  1.87622709E-05  2.57755432E-05  4.84486710E-06  9.40517844E-06
  3.55827968E-05  1.65117833E-05 -6.32633730E-06 -7.43780772E-06 -7.22146234E-05
 -5.46591909E-05 -2.98998444E-05  4.26320697E-05  1.75924358E-05  5.57908075E-06
  2.27479742E-05  2.67637332E-08  4.64040601E-06  8.89079418E-06  4.04802970E-05
 -1.63856540E-04 -3.16140625E-05 -1.86545671E-04 -2.72043010E-05 -2.01427685E-04
  1.31956263E-05 -6.51324320E-07 -5.35095211E-06  2.81939320E-05  1.39540892E-04
 -4.13579235E-04 -6.35612523E-06 -1.67158084E-05  1.17422004E-07  1.20481188E-06
  1.65795807E-06 -9.08657257E-07 -6.60186441E-07  1.06338543E-06 -1.19594092E-05
  5.78258534E-06  3.94793948E-06  6.23031298E-06 -5.67452924E-06 -1.12286695E-05
 -6.10766668E-06  8.14583837E-06  5.00181257E-06  1.88569556E-06 -3.98740189E-06
 -3.29666124E-06 -3.24156735E-06  9.94633300E-01  2.11812932E-02  5.42218086E-04
 -8.62610136E-04  7.45303542E-04  4.04411984E-03 -1.80981620E-04  5.48493731E-04
 -3.58166238E-04 -4.11866864E-03 -4.10254678E-03 -4.01399172E-03 -7.47692993E-05
 -5.39459358E-05  5.48711617E-05 -2.87289445E-04  2.02834884E-05  3.35177954E-05
 -5.82962114E-06  2.26715127E-05 -2.45918123E-04  1.06570481E-04  6.71935017E-06
  4.67540307E-05 -3.91163817E-05  3.72595704E-05 -2.52819036E-05  4.06022395E-05
 -3.76408486E-05 -1.02243556E-05 -4.11535249E-06 -9.61254943E-06  8.24332631E-06
 -2.17911395E-05  7.47054918E-06  1.09889128E-04 -1.56711432E-04  1.19723211E-04
 -6.86588367E-05 -2.06012815E-05 -1.31407786E-05  2.18295454E-06  1.56270936E-05
  3.16246465E-08 -8.75708631E-06 -1.27577736E-05 -2.30545772E-05 -2.19322770E-05
  1.13555026E-05 -1.51844108E-05  7.49194508E-04  2.11014248E-04 -7.20447350E-05
  2.93968237E-04 -4.95980728E-05 -3.40296070E-05 -2.59252767E-05 -4.58347741E-05
  3.37635267E-06 -5.48235963E-06  4.58913297E-06  3.25556555E-05  2.11716287E-05
  2.84051650E-06  2.13965567E-06 -3.97148979E-04  1.70095554E-04  1.81432047E-05
  7.83505087E-05 -1.11333486E-05  5.43997274E-06  4.86495980E-06 -8.44748101E-06
 -1.35611427E-06 -3.39956447E-06 -4.19697423E-06  3.79674708E-04 -2.81834140E-04
 -1.99147080E-05 -1.45368917E-04 -2.01853145E-04 -1.09976409E-04 -4.66546443E-04
  1.71564616E-04 -8.20164430E-05 -1.46881249E-05 -5.55304306E-05  7.54186584E-06
 -1.90913550E-05 -2.51713789E-05  2.44004444E-05  8.26133346E-06  1.03433670E-05
  1.51303592E-05  1.32295073E-05 -3.48210032E-06  3.08194002E-05 -2.86470651E-04
 -3.31126520E-05 -8.71989481E-06  3.60233753E-06 -1.74843656E-05  4.42365196E-04
 -2.59533003E-04 -3.22496424E-07 -1.94207727E-06  3.54161776E-06  4.56284451E-07
 -1.64973229E-06 -2.04610545E-05 -2.31426365E-05 -4.75141471E-06  1.04952359E-05
  1.62498130E-04 -3.73133730E-05 -8.09990807E-05  3.52074615E-05  6.87320077E-06
  4.82020212E-06 -1.11334807E-07  2.72455908E-06 -6.62780600E-06 -8.41951325E-06
  2.81459787E-04 -5.64604455E-05 -2.29830312E-05  2.07332427E-05 -2.43089118E-05
  2.37553211E-04  8.92115849E-05 -8.43009318E-06  5.41192058E-05 -2.42487901E-07
 -4.43905442E-05 -8.78481079E-05  8.28998131E-05  5.67120810E-06  2.40653443E-05
  9.94687983E-01  2.09866701E-02 -6.00021655E-04  1.14228119E-03 -8.98532307E-04
  4.50009021E-03  3.44352468E-05 -3.82053438E-05  1.01943628E-05 -3.91699010E-03
 -3.78960204E-03 -3.96721169E-03 -5.36358427E-05  1.59973605E-04 -2.38593256E-04
  3.47436971E-06  1.56128707E-05 -2.30354912E-07 -9.12669478E-06 -2.26414505E-06
 -8.33348067E-05 -1.04893414E-05  7.48153577E-05  1.25684605E-05  7.54438242E-06
 -3.34873878E-06  1.53271821E-05 -1.65052520E-06 -4.87829390E-06 -7.41646547E-06
 -2.18618329E-06 -2.28453026E-05 -1.56388477E-05  1.05250702E-05 -1.36272408E-05
  4.71519080E-05  5.79058786E-05  8.38919947E-05  5.89427459E-05  4.63439885E-05
 -2.08261890E-05 -2.22382351E-05  4.07427493E-05  5.59771848E-06  3.03193344E-05
  6.68247310E-06  3.17613216E-05 -2.88986765E-06 -2.16827121E-05  4.30279511E-06
 -1.36439278E-04  8.80218616E-05  9.10346748E-05  1.64851751E-05 -2.45700689E-06
  1.26113291E-05  3.53552265E-06  3.44330097E-06 -9.55559081E-06  5.53353198E-06
 -5.17917177E-06  4.90413222E-04 -2.35805489E-05  3.07364233E-05 -3.22463900E-05
 -4.11223683E-04 -2.58593662E-05  4.15181512E-04 -2.12594488E-04 -1.77998347E-04
 -4.60008134E-04 -2.91226165E-04  2.35397273E-04 -2.04354035E-04  3.67507748E-04
  1.00281248E-05 -2.00533929E-05 -7.28602004E-06 -3.90739275E-05  3.27277597E-05
 -3.66852585E-05  1.41772928E-05 -1.74475104E-05 -6.52908052E-06 -2.24223967E-05
  3.88438638E-05 -2.36875871E-04 -1.91324969E-05 -1.37551661E-05 -8.23846214E-07
 -1.11472770E-05  5.77166583E-09 -8.25235729E-07  7.31022256E-07 -4.27180844E-05
  1.02851648E-05 -9.66951894E-09 -5.05205249E-06  1.80447505E-04 -1.12644130E-04
  1.22923796E-05  6.65849026E-06  1.21023740E-07 -1.22593812E-05 -2.94088838E-05
 -8.96270460E-06  1.85982297E-06 -4.43651665E-06  5.73381857E-06  2.03384026E-05
  5.32174788E-06  6.93253387E-06 -1.37644482E-05 -5.39884633E-05 -1.77103653E-05
 -9.29971799E-05  4.87567666E-05  1.71931449E-05  2.20571461E-06  2.20957647E-05
 -1.33857540E-05  8.29671618E-06  2.98200234E-07  2.15531155E-06  7.73278424E-06
 -1.01639684E-06  1.19756037E-05 -5.25312313E-06 -3.45825151E-05 -1.77161910E-05
 -5.14306222E-06  1.90280914E-06  1.65682665E-05  1.36641792E-05  5.42209398E-06