
    -----------------------------------------------------------------------
          Psi4: An Open-Source Ab Initio Electronic Structure Package
                               Psi4 1.4a3.dev225 

                         Git: Rev {master} 7105e37 


    D. G. A. Smith, L. A. Burns, A. C. Simmonett, R. M. Parrish,
    M. C. Schieber, R. Galvelis, P. Kraus, H. Kruse, R. Di Remigio,
    A. Alenaizan, A. M. James, S. Lehtola, J. P. Misiewicz, M. Scheurer,
    R. A. Shaw, J. B. Schriber, Y. Xie, Z. L. Glick, D. A. Sirianni,
    J. S. O'Brien, J. M. Waldrop, A. Kumar, E. G. Hohenstein,
    B. P. Pritchard, B. R. Brooks, H. F. Schaefer III, A. Yu. Sokolov,
    K. Patkowski, A. E. DePrince III, U. Bozkaya, R. A. King,
    F. A. Evangelista, J. M. Turney, T. D. Crawford, C. D. Sherrill,
    J. Chem. Phys. 152(18) 184108 (2020). https://doi.org/10.1063/5.0006002

                            Additional Code Authors
    E. T. Seidl, C. L. Janssen, E. F. Valeev, M. L. Leininger,
    J. F. Gonthier, R. M. Richard, H. R. McAlexander, M. Saitow, X. Wang,
    P. Verma, and M. H. Lechner

             Previous Authors, Complete List of Code Contributors,
                       and Citations for Specific Modules
    https://github.com/psi4/psi4/blob/master/codemeta.json
    https://github.com/psi4/psi4/graphs/contributors
    http://psicode.org/psi4manual/master/introduction.html#citing-psifour

    -----------------------------------------------------------------------


    Psi4 started on: Thursday, 01 April 2021 01:49AM

    Process ID: 31580
    Host:       c448-002.stampede2.tacc.utexas.edu
    PSIDATADIR: /home1/07844/xy3866/miniconda3/envs/p4env/share/psi4
    Memory:     500.0 MiB
    Threads:    8
    
  ==> Input File <==

--------------------------------------------------------------------------
#psi4
#
memory 32 gb

molecule  {
1 1
  O       -1.7781010     0.0481890    -0.8899830
  N        0.7082630     0.0057180    -0.1922720
  C       -0.2685380    -0.7093740     0.7027740
  C        0.9538210     1.4204460     0.2306060
  C        1.9887930    -0.7552220    -0.3346960
  C       -1.6515690    -0.1051770     0.5221950
  H        0.2279220     0.0414410    -1.1066860
  H       -0.2728820    -1.7522560     0.3793240
  H        0.0946000    -0.6468560     1.7315660
  H        1.3625390     1.4139280     1.2413360
  H        1.6670510     1.8686130    -0.4607680
  H        0.0151050     1.9693480     0.1947690
  H        2.4631220    -0.8193040     0.6447500
  H        1.7659200    -1.7521810    -0.7136960
  H        2.6659460    -0.2006066    -1.0647027
  H       -2.3916570    -0.7986900     0.9363150
  H       -1.7508380     0.8532310     1.0447820
  H       -2.6851960     0.3180950    -1.1185210
units angstrom
no_reorient  #important for SAPT in psi4, default
symmetry c1  #important for SAPT in psi4, default
}

set PROPERTIES_ORIGIN ["COM"]
properties('MP2/aug-cc-pvtz', properties = ['dipole'])
--------------------------------------------------------------------------

  Memory set to  29.802 GiB by Python driver.
    SCF Algorithm Type (re)set to DF.

*** tstart() called on c448-002.stampede2.tacc.utexas.edu
*** at Thu Apr  1 01:49:31 2021

   => Loading Basis Set <=

    Name: AUG-CC-PVTZ
    Role: ORBITAL
    Keyword: BASIS
    atoms 1    entry O          line   331 file /home1/07844/xy3866/miniconda3/envs/p4env/share/psi4/basis/aug-cc-pvtz.gbs 
    atoms 2    entry N          line   285 file /home1/07844/xy3866/miniconda3/envs/p4env/share/psi4/basis/aug-cc-pvtz.gbs 
    atoms 3-6  entry C          line   239 file /home1/07844/xy3866/miniconda3/envs/p4env/share/psi4/basis/aug-cc-pvtz.gbs 
    atoms 7-18 entry H          line    40 file /home1/07844/xy3866/miniconda3/envs/p4env/share/psi4/basis/aug-cc-pvtz.gbs 


         ---------------------------------------------------------
                                   SCF
               by Justin Turney, Rob Parrish, Andy Simmonett
                          and Daniel G. A. Smith
                              RHF Reference
                        8 Threads,  30517 MiB Core
         ---------------------------------------------------------

  ==> Geometry <==

    Molecular point group: c1
    Full point group: C1

    Geometry (in Angstrom), charge = 1, multiplicity = 1:

       Center              X                  Y                   Z               Mass       
    ------------   -----------------  -----------------  -----------------  -----------------
         O           -1.744066209102     0.053100003148    -0.870500491168    15.994914619570
         N            0.742297790898     0.010629003148    -0.172789491168    14.003074004430
         C           -0.234503209102    -0.704462996852     0.722256508832    12.000000000000
         C            0.987855790898     1.425357003148     0.250088508832    12.000000000000
         C            2.022827790898    -0.750310996852    -0.315213491168    12.000000000000
         C           -1.617534209102    -0.100265996852     0.541677508832    12.000000000000
         H            0.261956790898     0.046352003148    -1.087203491168     1.007825032230
         H           -0.238847209102    -1.747344996852     0.398806508832     1.007825032230
         H            0.128634790898    -0.641944996852     1.751048508832     1.007825032230
         H            1.396573790898     1.418839003148     1.260818508832     1.007825032230
         H            1.701085790898     1.873524003148    -0.441285491168     1.007825032230
         H            0.049139790898     1.974259003148     0.214251508832     1.007825032230
         H            2.497156790898    -0.814392996852     0.664232508832     1.007825032230
         H            1.799954790898    -1.747269996852    -0.694213491168     1.007825032230
         H            2.699980790898    -0.195695596852    -1.045220191168     1.007825032230
         H           -2.357622209102    -0.793778996852     0.955797508832     1.007825032230
         H           -1.716803209102     0.858142003148     1.064264508832     1.007825032230
         H           -2.651161209102     0.323006003148    -1.099038491168     1.007825032230

  Running in c1 symmetry.

  Rotational constants: A =      0.18458  B =      0.07570  C =      0.06955 [cm^-1]
  Rotational constants: A =   5533.71675  B =   2269.54326  C =   2085.10192 [MHz]
  Nuclear repulsion =  278.298858799571519

  Charge       = 1
  Multiplicity = 1
  Electrons    = 50
  Nalpha       = 25
  Nbeta        = 25

  ==> Algorithm <==

  SCF Algorithm Type is DF.
  DIIS enabled.
  MOM disabled.
  Fractional occupation disabled.
  Guess Type is SAD.
  Energy threshold   = 1.00e-10
  Density threshold  = 1.00e-10
  Integral threshold = 1.00e-12

  ==> Primary Basis <==

  Basis Set: AUG-CC-PVTZ
    Blend: AUG-CC-PVTZ
    Number of shells: 192
    Number of basis functions: 552
    Number of Cartesian functions: 630
    Spherical Harmonics?: true
    Max angular momentum: 3

   => Loading Basis Set <=

    Name: (AUG-CC-PVTZ AUX)
    Role: JKFIT
    Keyword: DF_BASIS_SCF
    atoms 1    entry O          line   286 file /home1/07844/xy3866/miniconda3/envs/p4env/share/psi4/basis/aug-cc-pvtz-jkfit.gbs 
    atoms 2    entry N          line   224 file /home1/07844/xy3866/miniconda3/envs/p4env/share/psi4/basis/aug-cc-pvtz-jkfit.gbs 
    atoms 3-6  entry C          line   162 file /home1/07844/xy3866/miniconda3/envs/p4env/share/psi4/basis/aug-cc-pvtz-jkfit.gbs 
    atoms 7-18 entry H          line    70 file /home1/07844/xy3866/miniconda3/envs/p4env/share/psi4/basis/aug-cc-pvtz-jkfit.gbs 

  ==> Integral Setup <==

  DFHelper Memory: AOs need 2.656 GiB; user supplied 22.352 GiB. Using in-core AOs.

  ==> MemDFJK: Density-Fitted J/K Matrices <==

    J tasked:                   Yes
    K tasked:                   Yes
    wK tasked:                   No
    OpenMP threads:               8
    Memory [MiB]:             22888
    Algorithm:                 Core
    Schwarz Cutoff:           1E-12
    Mask sparsity (%):       3.8805
    Fitting Condition:        1E-10

   => Auxiliary Basis Set <=

  Basis Set: (AUG-CC-PVTZ AUX)
    Blend: AUG-CC-PVTZ-JKFIT
    Number of shells: 348
    Number of basis functions: 1176
    Number of Cartesian functions: 1446
    Spherical Harmonics?: true
    Max angular momentum: 4

  Minimum eigenvalue in the overlap matrix is 3.3340287203E-06.
  Reciprocal condition number of the overlap matrix is 1.5357147230E-07.
    Using symmetric orthogonalization.

  ==> Pre-Iterations <==

  SCF Guess: Superposition of Atomic Densities via on-the-fly atomic UHF (no occupation information).

   -------------------------
    Irrep   Nso     Nmo    
   -------------------------
     A        552     552 
   -------------------------
    Total     552     552
   -------------------------

  ==> Iterations <==

                           Total Energy        Delta E     RMS |[F,P]|

   @DF-RHF iter SAD:  -287.48767378071994   -2.87488e+02   0.00000e+00 
   @DF-RHF iter   1:  -287.46800201724926    1.96718e-02   1.00286e-03 DIIS
   @DF-RHF iter   2:  -287.62934347936107   -1.61341e-01   4.51379e-04 DIIS
   @DF-RHF iter   3:  -287.65386843627164   -2.45250e-02   1.28966e-04 DIIS
   @DF-RHF iter   4:  -287.65692006576774   -3.05163e-03   3.33392e-05 DIIS
   @DF-RHF iter   5:  -287.65711300733005   -1.92942e-04   7.35315e-06 DIIS
   @DF-RHF iter   6:  -287.65712728043081   -1.42731e-05   1.64767e-06 DIIS
   @DF-RHF iter   7:  -287.65712814736605   -8.66935e-07   5.34974e-07 DIIS
   @DF-RHF iter   8:  -287.65712822781177   -8.04457e-08   1.70031e-07 DIIS
   @DF-RHF iter   9:  -287.65712823681093   -8.99917e-09   4.32439e-08 DIIS
   @DF-RHF iter  10:  -287.65712823736180   -5.50870e-10   1.65220e-08 DIIS
   @DF-RHF iter  11:  -287.65712823742678   -6.49720e-11   4.27339e-09 DIIS
   @DF-RHF iter  12:  -287.65712823743189   -5.11591e-12   1.06400e-09 DIIS
   @DF-RHF iter  13:  -287.65712823743144    4.54747e-13   2.80104e-10 DIIS
   @DF-RHF iter  14:  -287.65712823743138    5.68434e-14   8.13718e-11 DIIS
  Energy and wave function converged.


  ==> Post-Iterations <==

    Orbital Energies [Eh]
    ---------------------

    Doubly Occupied:                                                      

       1A    -20.733206     2A    -15.856500     3A    -11.457240  
       4A    -11.454673     5A    -11.454315     6A    -11.448972  
       7A     -1.539702     8A     -1.487038     9A     -1.206096  
      10A     -1.164231    11A     -1.090635    12A     -1.024988  
      13A     -0.918487    14A     -0.877222    15A     -0.853284  
      16A     -0.834431    17A     -0.792125    18A     -0.756774  
      19A     -0.745547    20A     -0.734728    21A     -0.724187  
      22A     -0.716814    23A     -0.711290    24A     -0.673212  
      25A     -0.624436  

    Virtual:                                                              

      26A     -0.083094    27A     -0.070160    28A     -0.067605  
      29A     -0.064932    30A     -0.046255    31A     -0.044299  
      32A     -0.043135    33A     -0.042487    34A     -0.036313  
      35A     -0.018061    36A     -0.014924    37A     -0.012585  
      38A     -0.003376    39A      0.007116    40A      0.009752  
      41A      0.012319    42A      0.013840    43A      0.017116  
      44A      0.021299    45A      0.022656    46A      0.031096  
      47A      0.037571    48A      0.039440    49A      0.042541  
      50A      0.047029    51A      0.058182    52A      0.061531  
      53A      0.071210    54A      0.071839    55A      0.074732  
      56A      0.082873    57A      0.085507    58A      0.097022  
      59A      0.107624    60A      0.114991    61A      0.117124  
      62A      0.123881    63A      0.134030    64A      0.140993  
      65A      0.144732    66A      0.154175    67A      0.157212  
      68A      0.162257    69A      0.170314    70A      0.173793  
      71A      0.189094    72A      0.195757    73A      0.202818  
      74A      0.205152    75A      0.211473    76A      0.216314  
      77A      0.218975    78A      0.224886    79A      0.231542  
      80A      0.235053    81A      0.237424    82A      0.241175  
      83A      0.247748    84A      0.255011    85A      0.256100  
      86A      0.261094    87A      0.272520    88A      0.275389  
      89A      0.279437    90A      0.281791    91A      0.292506  
      92A      0.296468    93A      0.301606    94A      0.304216  
      95A      0.307569    96A      0.313275    97A      0.315048  
      98A      0.319686    99A      0.321881   100A      0.332831  
     101A      0.334756   102A      0.339432   103A      0.342426  
     104A      0.346267   105A      0.350888   106A      0.357458  
     107A      0.361353   108A      0.369628   109A      0.371255  
     110A      0.384165   111A      0.391560   112A      0.396412  
     113A      0.406906   114A      0.409859   115A      0.412786  
     116A      0.422241   117A      0.434519   118A      0.438079  
     119A      0.448230   120A      0.452624   121A      0.462182  
     122A      0.468801   123A      0.470657   124A      0.473646  
     125A      0.480249   126A      0.494575   127A      0.497965  
     128A      0.506469   129A      0.511459   130A      0.517895  
     131A      0.520414   132A      0.527594   133A      0.543758  
     134A      0.546809   135A      0.561745   136A      0.568783  
     137A      0.598442   138A      0.606803   139A      0.611372  
     140A      0.624806   141A      0.636215   142A      0.640893  
     143A      0.655382   144A      0.659989   145A      0.669893  
     146A      0.670809   147A      0.677280   148A      0.686204  
     149A      0.688837   150A      0.698916   151A      0.709007  
     152A      0.719132   153A      0.727392   154A      0.734377  
     155A      0.743703   156A      0.752414   157A      0.755709  
     158A      0.761133   159A      0.764687   160A      0.769633  
     161A      0.778068   162A      0.778626   163A      0.788707  
     164A      0.796912   165A      0.800418   166A      0.804977  
     167A      0.813605   168A      0.819969   169A      0.835261  
     170A      0.843521   171A      0.851687   172A      0.859005  
     173A      0.860309   174A      0.871938   175A      0.872382  
     176A      0.893900   177A      0.896313   178A      0.908380  
     179A      0.914666   180A      0.922168   181A      0.935557  
     182A      0.940530   183A      0.949421   184A      0.956489  
     185A      0.966754   186A      0.970446   187A      0.982743  
     188A      0.988147   189A      0.995713   190A      1.001810  
     191A      1.008620   192A      1.024333   193A      1.031692  
     194A      1.034423   195A      1.041255   196A      1.045615  
     197A      1.052565   198A      1.066194   199A      1.075169  
     200A      1.083966   201A      1.086578   202A      1.098581  
     203A      1.102238   204A      1.107402   205A      1.113435  
     206A      1.124229   207A      1.132332   208A      1.141222  
     209A      1.153731   210A      1.167482   211A      1.172712  
     212A      1.181914   213A      1.187193   214A      1.202043  
     215A      1.218333   216A      1.230816   217A      1.241602  
     218A      1.249002   219A      1.253849   220A      1.266124  
     221A      1.272409   222A      1.288754   223A      1.295110  
     224A      1.300182   225A      1.315007   226A      1.326324  
     227A      1.336881   228A      1.344191   229A      1.352532  
     230A      1.357106   231A      1.374814   232A      1.382435  
     233A      1.387468   234A      1.394317   235A      1.400512  
     236A      1.413019   237A      1.421768   238A      1.432616  
     239A      1.445908   240A      1.446938   241A      1.454463  
     242A      1.468576   243A      1.472123   244A      1.491460  
     245A      1.493919   246A      1.498859   247A      1.515568  
     248A      1.525762   249A      1.533436   250A      1.537531  
     251A      1.546337   252A      1.553158   253A      1.559878  
     254A      1.583959   255A      1.586200   256A      1.591427  
     257A      1.602108   258A      1.613988   259A      1.627075  
     260A      1.636589   261A      1.647289   262A      1.653058  
     263A      1.659692   264A      1.675082   265A      1.689959  
     266A      1.701700   267A      1.705472   268A      1.723492  
     269A      1.730362   270A      1.730964   271A      1.741604  
     272A      1.751603   273A      1.767857   274A      1.769017  
     275A      1.795201   276A      1.801222   277A      1.805882  
     278A      1.823397   279A      1.847720   280A      1.851137  
     281A      1.853787   282A      1.865056   283A      1.877808  
     284A      1.886848   285A      1.892080   286A      1.906832  
     287A      1.932790   288A      1.942313   289A      1.948500  
     290A      1.967706   291A      1.972404   292A      1.983598  
     293A      1.989184   294A      2.009300   295A      2.012413  
     296A      2.035236   297A      2.050802   298A      2.054081  
     299A      2.071738   300A      2.082185   301A      2.091521  
     302A      2.096133   303A      2.122635   304A      2.142459  
     305A      2.148149   306A      2.150428   307A      2.161257  
     308A      2.175759   309A      2.196366   310A      2.226124  
     311A      2.233194   312A      2.248169   313A      2.276717  
     314A      2.285045   315A      2.312386   316A      2.331766  
     317A      2.335629   318A      2.346263   319A      2.387150  
     320A      2.389883   321A      2.410242   322A      2.440134  
     323A      2.443521   324A      2.453501   325A      2.465050  
     326A      2.487789   327A      2.507110   328A      2.518299  
     329A      2.533899   330A      2.569802   331A      2.595394  
     332A      2.637090   333A      2.653333   334A      2.716464  
     335A      2.729327   336A      2.742380   337A      2.799685  
     338A      2.816274   339A      2.825779   340A      2.850488  
     341A      2.873220   342A      2.909322   343A      2.923688  
     344A      2.974484   345A      3.000415   346A      3.035308  
     347A      3.091783   348A      3.112442   349A      3.201591  
     350A      3.231846   351A      3.309593   352A      3.317518  
     353A      3.328535   354A      3.335413   355A      3.347649  
     356A      3.381192   357A      3.397065   358A      3.421041  
     359A      3.440382   360A      3.459210   361A      3.482328  
     362A      3.491910   363A      3.523798   364A      3.534478  
     365A      3.547065   366A      3.557597   367A      3.569987  
     368A      3.582073   369A      3.590723   370A      3.613780  
     371A      3.622686   372A      3.645369   373A      3.662133  
     374A      3.667782   375A      3.686974   376A      3.696644  
     377A      3.708429   378A      3.716187   379A      3.722918  
     380A      3.741253   381A      3.759407   382A      3.768071  
     383A      3.773479   384A      3.779478   385A      3.786651  
     386A      3.800474   387A      3.804316   388A      3.818443  
     389A      3.841542   390A      3.852441   391A      3.864437  
     392A      3.891737   393A      3.900176   394A      3.914443  
     395A      3.943261   396A      3.965740   397A      3.971272  
     398A      3.984534   399A      4.001345   400A      4.007338  
     401A      4.014271   402A      4.022643   403A      4.051426  
     404A      4.066421   405A      4.070446   406A      4.082546  
     407A      4.094029   408A      4.112150   409A      4.122656  
     410A      4.140853   411A      4.158566   412A      4.162427  
     413A      4.177328   414A      4.189530   415A      4.204816  
     416A      4.230162   417A      4.241559   418A      4.250898  
     419A      4.261012   420A      4.299750   421A      4.315195  
     422A      4.326399   423A      4.342935   424A      4.375336  
     425A      4.390106   426A      4.424386   427A      4.436427  
     428A      4.445729   429A      4.461214   430A      4.473892  
     431A      4.496460   432A      4.517304   433A      4.531141  
     434A      4.534188   435A      4.564051   436A      4.575496  
     437A      4.596259   438A      4.608979   439A      4.621214  
     440A      4.638670   441A      4.653643   442A      4.662850  
     443A      4.663389   444A      4.695686   445A      4.721859  
     446A      4.728952   447A      4.742220   448A      4.754114  
     449A      4.764397   450A      4.792451   451A      4.819451  
     452A      4.823988   453A      4.848793   454A      4.870357  
     455A      4.895360   456A      4.900027   457A      4.929678  
     458A      4.944419   459A      4.959379   460A      4.977828  
     461A      4.996775   462A      5.010758   463A      5.029799  
     464A      5.045480   465A      5.057918   466A      5.092799  
     467A      5.096511   468A      5.101364   469A      5.110267  
     470A      5.147751   471A      5.165269   472A      5.180680  
     473A      5.191861   474A      5.224154   475A      5.237602  
     476A      5.266944   477A      5.269208   478A      5.274568  
     479A      5.294119   480A      5.315405   481A      5.320983  
     482A      5.334948   483A      5.369069   484A      5.393275  
     485A      5.408121   486A      5.418682   487A      5.447375  
     488A      5.481165   489A      5.505509   490A      5.510508  
     491A      5.522649   492A      5.552317   493A      5.582944  
     494A      5.603596   495A      5.628974   496A      5.645405  
     497A      5.660903   498A      5.698813   499A      5.717748  
     500A      5.730058   501A      5.801684   502A      5.814398  
     503A      5.835929   504A      5.863844   505A      5.915936  
     506A      5.927853   507A      5.949525   508A      5.965262  
     509A      6.014558   510A      6.028153   511A      6.059545  
     512A      6.088805   513A      6.111712   514A      6.186216  
     515A      6.211663   516A      6.236084   517A      6.254944  
     518A      6.278226   519A      6.297217   520A      6.321379  
     521A      6.471985   522A      6.531674   523A      6.583328  
     524A      6.620217   525A      6.627124   526A      6.642267  
     527A      6.653174   528A      6.698599   529A      6.717281  
     530A      6.764565   531A      6.784130   532A      6.825945  
     533A      6.842037   534A      6.911751   535A      6.958462  
     536A      6.993257   537A      7.189710   538A      7.293581  
     539A      7.381989   540A      7.427755   541A      7.550345  
     542A      7.640673   543A      7.669438   544A      7.868878  
     545A      8.137301   546A      8.540951   547A     15.842643  
     548A     17.842347   549A     18.325301   550A     18.432678  
     551A     18.921762   552A     19.593801  

    Final Occupation by Irrep:
              A 
    DOCC [    25 ]

  @DF-RHF Final Energy:  -287.65712823743138

   => Energetics <=

    Nuclear Repulsion Energy =            278.2988587995715193
    One-Electron Energy =                -932.1517094416933560
    Two-Electron Energy =                 366.1957224046905139
    Total Energy =                       -287.6571282374313796

Computation Completed

*** tstop() called on c448-002.stampede2.tacc.utexas.edu at Thu Apr  1 01:50:07 2021
Module time:
	user time   =     197.83 seconds =       3.30 minutes
	system time =       6.03 seconds =       0.10 minutes
	total time  =         36 seconds =       0.60 minutes
Total time:
	user time   =     197.83 seconds =       3.30 minutes
	system time =       6.03 seconds =       0.10 minutes
	total time  =         36 seconds =       0.60 minutes
   => Loading Basis Set <=

    Name: (AUG-CC-PVTZ AUX)
    Role: RIFIT
    Keyword: DF_BASIS_MP2
    atoms 1    entry O          line   264 file /home1/07844/xy3866/miniconda3/envs/p4env/share/psi4/basis/aug-cc-pvtz-ri.gbs 
    atoms 2    entry N          line   206 file /home1/07844/xy3866/miniconda3/envs/p4env/share/psi4/basis/aug-cc-pvtz-ri.gbs 
    atoms 3-6  entry C          line   148 file /home1/07844/xy3866/miniconda3/envs/p4env/share/psi4/basis/aug-cc-pvtz-ri.gbs 
    atoms 7-18 entry H          line    30 file /home1/07844/xy3866/miniconda3/envs/p4env/share/psi4/basis/aug-cc-pvtz-ri.gbs 


*** tstart() called on c448-002.stampede2.tacc.utexas.edu
*** at Thu Apr  1 01:50:08 2021


  //>>>>>>>>>>>>>>>>>>>>>>>>>>>>>>>>>>>//
  //               DFMP2               //
  //<<<<<<<<<<<<<<<<<<<<<<<<<<<<<<<<<<<//

	 --------------------------------------------------------
	                          DF-MP2                         
	      2nd-Order Density-Fitted Moller-Plesset Theory     
	              RMP2 Wavefunction,   8 Threads             
	                                                         
	        Rob Parrish, Justin Turney, Andy Simmonett,      
	           Ed Hohenstein, and C. David Sherrill          
	 --------------------------------------------------------

   => Auxiliary Basis Set <=

  Basis Set: (AUG-CC-PVTZ AUX)
    Blend: AUG-CC-PVTZ-RI
    Number of shells: 336
    Number of basis functions: 1188
    Number of Cartesian functions: 1476
    Spherical Harmonics?: true
    Max angular momentum: 4

	 --------------------------------------------------------
	                 NBF =   552, NAUX =  1188
	 --------------------------------------------------------
	   CLASS    FOCC     OCC    AOCC    AVIR     VIR    FVIR
	   PAIRS       0      25      25     527     527       0
	 --------------------------------------------------------

  DFHelper Memory: AOs need 2.703 GiB; user supplied 22.352 GiB. Using in-core AOs.


         ------------------------------------------------------------
                                     CPHF                           
                                  Rob Parrish                       
         ------------------------------------------------------------

  ==> Geometry <==

    Molecular point group: c1
    Full point group: C1

    Geometry (in Angstrom), charge = 1, multiplicity = 1:

       Center              X                  Y                   Z               Mass       
    ------------   -----------------  -----------------  -----------------  -----------------
         O           -1.744066209102     0.053100003148    -0.870500491168    15.994914619570
         N            0.742297790898     0.010629003148    -0.172789491168    14.003074004430
         C           -0.234503209102    -0.704462996852     0.722256508832    12.000000000000
         C            0.987855790898     1.425357003148     0.250088508832    12.000000000000
         C            2.022827790898    -0.750310996852    -0.315213491168    12.000000000000
         C           -1.617534209102    -0.100265996852     0.541677508832    12.000000000000
         H            0.261956790898     0.046352003148    -1.087203491168     1.007825032230
         H           -0.238847209102    -1.747344996852     0.398806508832     1.007825032230
         H            0.128634790898    -0.641944996852     1.751048508832     1.007825032230
         H            1.396573790898     1.418839003148     1.260818508832     1.007825032230
         H            1.701085790898     1.873524003148    -0.441285491168     1.007825032230
         H            0.049139790898     1.974259003148     0.214251508832     1.007825032230
         H            2.497156790898    -0.814392996852     0.664232508832     1.007825032230
         H            1.799954790898    -1.747269996852    -0.694213491168     1.007825032230
         H            2.699980790898    -0.195695596852    -1.045220191168     1.007825032230
         H           -2.357622209102    -0.793778996852     0.955797508832     1.007825032230
         H           -1.716803209102     0.858142003148     1.064264508832     1.007825032230
         H           -2.651161209102     0.323006003148    -1.099038491168     1.007825032230

  Nuclear repulsion =  278.298858799571519
  Reference energy  = -287.657128237431380

  ==> Basis Set <==

  Basis Set: AUG-CC-PVTZ
    Blend: AUG-CC-PVTZ
    Number of shells: 192
    Number of basis functions: 552
    Number of Cartesian functions: 630
    Spherical Harmonics?: true
    Max angular momentum: 3

  ==> CGRSolver (by Rob Parrish) <==

   Number of roots    =         1
   Preconditioning    =    JACOBI
   Convergence cutoff =     1E-06
   Maximum iterations =       100

  ==> CPHFRHamiltonian (by Rob Parrish) <== 

  ==> MemDFJK: Density-Fitted J/K Matrices <==

    J tasked:                   Yes
    K tasked:                   Yes
    wK tasked:                   No
    OpenMP threads:               8
    Memory [MiB]:             22888
    Algorithm:                 Core
    Schwarz Cutoff:           1E-12
    Mask sparsity (%):       2.1365
    Fitting Condition:        1E-10

   => Auxiliary Basis Set <=

  Basis Set: (AUG-CC-PVTZ AUX)
    Blend: AUG-CC-PVTZ-JKFIT
    Number of shells: 348
    Number of basis functions: 1176
    Number of Cartesian functions: 1446
    Spherical Harmonics?: true
    Max angular momentum: 4

  ==> CPHF Iterations <==

  => Iterations <=

             Iter  Converged  Remaining    Residual
  CGR           1          0          1   6.649E-02
  CGR           2          0          1   1.467E-02
  CGR           3          0          1   5.681E-03
  CGR           4          0          1   1.489E-03
  CGR           5          0          1   4.050E-04
  CGR           6          0          1   1.336E-04
  CGR           7          0          1   3.891E-05
  CGR           8          0          1   1.155E-05
  CGR           9          0          1   3.733E-06
  CGR          10          1          0   7.260E-07

    CGRSolver converged.

	-----------------------------------------------------------
	 ==================> DF-MP2 Energies <==================== 
	-----------------------------------------------------------
	 Reference Energy          =    -287.6571282374313796 [Eh]
	 Singles Energy            =      -0.0000000000000000 [Eh]
	 Same-Spin Energy          =      -0.2850744470452469 [Eh]
	 Opposite-Spin Energy      =      -0.9998101611957602 [Eh]
	 Correlation Energy        =      -1.2848846082410070 [Eh]
	 Total Energy              =    -288.9420128456723660 [Eh]
	-----------------------------------------------------------
	 ================> DF-SCS-MP2 Energies <================== 
	-----------------------------------------------------------
	 SCS Same-Spin Scale       =       0.3333333333333333 [-]
	 SCS Opposite-Spin Scale   =       1.2000000000000000 [-]
	 SCS Same-Spin Energy      =      -0.0950248156817490 [Eh]
	 SCS Opposite-Spin Energy  =      -1.1997721934349121 [Eh]
	 SCS Correlation Energy    =      -1.2947970091166612 [Eh]
	 SCS Total Energy          =    -288.9519252465480577 [Eh]
	-----------------------------------------------------------



Properties will be evaluated at   0.000000,  -0.000000,  -0.000000 [a0]

Properties computed using the MP2 density matrix

  Nuclear Dipole Moment: [e a0]
     X:     3.3363      Y:     0.5193      Z:     1.8171

  Electronic Dipole Moment: [e a0]
     X:    -2.7984      Y:    -0.3980      Z:    -1.5569

  Dipole Moment: [e a0]
     X:     0.5379      Y:     0.1213      Z:     0.2602     Total:     0.6097

  Dipole Moment: [D]
     X:     1.3672      Y:     0.3082      Z:     0.6613     Total:     1.5497


*** tstop() called on c448-002.stampede2.tacc.utexas.edu at Thu Apr  1 01:52:03 2021
Module time:
	user time   =     710.41 seconds =      11.84 minutes
	system time =      11.41 seconds =       0.19 minutes
	total time  =        115 seconds =       1.92 minutes
Total time:
	user time   =     909.10 seconds =      15.15 minutes
	system time =      17.46 seconds =       0.29 minutes
	total time  =        152 seconds =       2.53 minutes

    Psi4 stopped on: Thursday, 01 April 2021 01:52AM
    Psi4 wall time for execution: 0:02:32.11

*** Psi4 exiting successfully. Buy a developer a beer!
