250683                                                                  
Freq      RMP2-FC                                                     6-31G(d)            
Number of atoms                            I               20
Info1-9                                    I   N=           9
          32          30        1002           0           0         100
           6           2           1
Charge                                     I                0
Multiplicity                               I                1
Number of electrons                        I               74
Number of alpha electrons                  I               37
Number of beta electrons                   I               37
Number of basis functions                  I              170
Number of independent functions            I              170
Number of point charges in /Mol/           I                0
Number of translation vectors              I                0
Atomic numbers                             I   N=          20
           8           7           7           6           6           6
           6           6           6           6           1           1
           1           1           1           1           1           1
           1           1
Nuclear charges                            R   N=          20
  8.00000000E+00  7.00000000E+00  7.00000000E+00  6.00000000E+00  6.00000000E+00
  6.00000000E+00  6.00000000E+00  6.00000000E+00  6.00000000E+00  6.00000000E+00
  1.00000000E+00  1.00000000E+00  1.00000000E+00  1.00000000E+00  1.00000000E+00
  1.00000000E+00  1.00000000E+00  1.00000000E+00  1.00000000E+00  1.00000000E+00
Current cartesian coordinates              R   N=          60
 -2.50718084E+00  2.64298529E+00 -7.64131901E-01  2.66373704E+00  1.04245980E+00
  1.35862746E-01 -3.80227354E+00 -1.35388620E+00  2.47753006E-01  6.19864479E-01
 -5.51252043E-01 -1.20598269E-01  1.54967370E+00 -3.01964454E+00 -2.73431316E-01
  4.83615346E+00 -3.64168642E-01  1.56628944E-01  4.19992195E+00 -2.89333521E+00
 -1.00395277E-01 -1.98244399E+00  4.21377838E-01 -2.30693662E-01  2.60314724E+00
  3.79281547E+00  3.41017304E-01 -6.44769397E+00 -6.33698487E-01  3.15854876E-01
  4.23182882E-01 -4.70152483E+00 -5.79626388E-01  6.65711821E+00  5.44938798E-01
  3.56789965E-01  5.51694580E+00 -4.45629535E+00 -1.68500630E-01  1.32277287E+00
  4.36651533E+00  1.84776543E+00  4.51904522E+00  4.42095878E+00  7.73136357E-01
  1.95358871E+00  4.63215268E+00 -1.42241255E+00 -3.26180810E+00 -2.94273652E+00
  1.16178808E+00 -7.60980128E+00 -2.31727055E+00  5.21445775E-02 -6.79773999E+00
  6.91155257E-01 -1.22084587E+00 -6.96783928E+00  2.85642619E-01  2.09721036E+00
Force Field                                I                0
Int Atom Types                             I   N=          20
           0           0           0           0           0           0
           0           0           0           0           0           0
           0           0           0           0           0           0
           0           0
MM charges                                 R   N=          20
  0.00000000E+00  0.00000000E+00  0.00000000E+00  0.00000000E+00  0.00000000E+00
  0.00000000E+00  0.00000000E+00  0.00000000E+00  0.00000000E+00  0.00000000E+00
  0.00000000E+00  0.00000000E+00  0.00000000E+00  0.00000000E+00  0.00000000E+00
  0.00000000E+00  0.00000000E+00  0.00000000E+00  0.00000000E+00  0.00000000E+00
Integer atomic weights                     I   N=          20
          16          14          14          12          12          12
          12          12          12          12           1           1
           1           1           1           1           1           1
           1           1
Real atomic weights                        R   N=          20
  1.59949146E+01  1.40030740E+01  1.40030740E+01  1.20000000E+01  1.20000000E+01
  1.20000000E+01  1.20000000E+01  1.20000000E+01  1.20000000E+01  1.20000000E+01
  1.00782504E+00  1.00782504E+00  1.00782504E+00  1.00782504E+00  1.00782504E+00
  1.00782504E+00  1.00782504E+00  1.00782504E+00  1.00782504E+00  1.00782504E+00
Atom fragment info                         I   N=          20
           0           0           0           0           0           0
           0           0           0           0           0           0
           0           0           0           0           0           0
           0           0
Atom residue num                           I   N=          20
           0           0           0           0           0           0
           0           0           0           0           0           0
           0           0           0           0           0           0
           0           0
Nuclear spins                              I   N=          20
           0           2           2           0           0           0
           0           0           0           0           1           1
           1           1           1           1           1           1
           1           1
Nuclear ZEff                               R   N=          20
 -5.60000000E+00 -4.55000000E+00 -4.55000000E+00 -3.60000000E+00 -3.60000000E+00
 -3.60000000E+00 -3.60000000E+00 -3.60000000E+00 -3.60000000E+00 -3.60000000E+00
 -1.00000000E+00 -1.00000000E+00 -1.00000000E+00 -1.00000000E+00 -1.00000000E+00
 -1.00000000E+00 -1.00000000E+00 -1.00000000E+00 -1.00000000E+00 -1.00000000E+00
Nuclear QMom                               R   N=          20
  0.00000000E+00  2.04400000E+00  2.04400000E+00  0.00000000E+00  0.00000000E+00
  0.00000000E+00  0.00000000E+00  0.00000000E+00  0.00000000E+00  0.00000000E+00
  0.00000000E+00  0.00000000E+00  0.00000000E+00  0.00000000E+00  0.00000000E+00
  0.00000000E+00  0.00000000E+00  0.00000000E+00  0.00000000E+00  0.00000000E+00
Nuclear GFac                               R   N=          20
  0.00000000E+00  4.03761000E-01  4.03761000E-01  0.00000000E+00  0.00000000E+00
  0.00000000E+00  0.00000000E+00  0.00000000E+00  0.00000000E+00  0.00000000E+00
  2.79284600E+00  2.79284600E+00  2.79284600E+00  2.79284600E+00  2.79284600E+00
  2.79284600E+00  2.79284600E+00  2.79284600E+00  2.79284600E+00  2.79284600E+00
MicOpt                                     I   N=          20
          -1          -1          -1          -1          -1          -1
          -1          -1          -1          -1          -1          -1
          -1          -1          -1          -1          -1          -1
          -1          -1
Number of contracted shells                I               60
Number of primitive shells                 I              150
Pure/Cartesian d shells                    I                1
Pure/Cartesian f shells                    I                0
Highest angular momentum                   I                2
Largest degree of contraction              I                6
Shell types                                I   N=          60
           0          -1          -1           2           0          -1
          -1           2           0          -1          -1           2
           0          -1          -1           2           0          -1
          -1           2           0          -1          -1           2
           0          -1          -1           2           0          -1
          -1           2           0          -1          -1           2
           0          -1          -1           2           0           0
           0           0           0           0           0           0
           0           0           0           0           0           0
           0           0           0           0           0           0
Number of primitives per shell             I   N=          60
           6           3           1           1           6           3
           1           1           6           3           1           1
           6           3           1           1           6           3
           1           1           6           3           1           1
           6           3           1           1           6           3
           1           1           6           3           1           1
           6           3           1           1           3           1
           3           1           3           1           3           1
           3           1           3           1           3           1
           3           1           3           1           3           1
Shell to atom map                          I   N=          60
           1           1           1           1           2           2
           2           2           3           3           3           3
           4           4           4           4           5           5
           5           5           6           6           6           6
           7           7           7           7           8           8
           8           8           9           9           9           9
          10          10          10          10          11          11
          12          12          13          13          14          14
          15          15          16          16          17          17
          18          18          19          19          20          20
Primitive exponents                        R   N=         150
  5.48467166E+03  8.25234946E+02  1.88046958E+02  5.29645000E+01  1.68975704E+01
  5.79963534E+00  1.55396162E+01  3.59993359E+00  1.01376175E+00  2.70005823E-01
  8.00000000E-01  4.17351146E+03  6.27457911E+02  1.42902093E+02  4.02343293E+01
  1.28202129E+01  4.39043701E+00  1.16263619E+01  2.71627981E+00  7.72218397E-01
  2.12031498E-01  8.00000000E-01  4.17351146E+03  6.27457911E+02  1.42902093E+02
  4.02343293E+01  1.28202129E+01  4.39043701E+00  1.16263619E+01  2.71627981E+00
  7.72218397E-01  2.12031498E-01  8.00000000E-01  3.04752488E+03  4.57369518E+02
  1.03948685E+02  2.92101553E+01  9.28666296E+00  3.16392696E+00  7.86827235E+00
  1.88128854E+00  5.44249258E-01  1.68714478E-01  8.00000000E-01  3.04752488E+03
  4.57369518E+02  1.03948685E+02  2.92101553E+01  9.28666296E+00  3.16392696E+00
  7.86827235E+00  1.88128854E+00  5.44249258E-01  1.68714478E-01  8.00000000E-01
  3.04752488E+03  4.57369518E+02  1.03948685E+02  2.92101553E+01  9.28666296E+00
  3.16392696E+00  7.86827235E+00  1.88128854E+00  5.44249258E-01  1.68714478E-01
  8.00000000E-01  3.04752488E+03  4.57369518E+02  1.03948685E+02  2.92101553E+01
  9.28666296E+00  3.16392696E+00  7.86827235E+00  1.88128854E+00  5.44249258E-01
  1.68714478E-01  8.00000000E-01  3.04752488E+03  4.57369518E+02  1.03948685E+02
  2.92101553E+01  9.28666296E+00  3.16392696E+00  7.86827235E+00  1.88128854E+00
  5.44249258E-01  1.68714478E-01  8.00000000E-01  3.04752488E+03  4.57369518E+02
  1.03948685E+02  2.92101553E+01  9.28666296E+00  3.16392696E+00  7.86827235E+00
  1.88128854E+00  5.44249258E-01  1.68714478E-01  8.00000000E-01  3.04752488E+03
  4.57369518E+02  1.03948685E+02  2.92101553E+01  9.28666296E+00  3.16392696E+00
  7.86827235E+00  1.88128854E+00  5.44249258E-01  1.68714478E-01  8.00000000E-01
  1.87311370E+01  2.82539436E+00  6.40121692E-01  1.61277759E-01  1.87311370E+01
  2.82539436E+00  6.40121692E-01  1.61277759E-01  1.87311370E+01  2.82539436E+00
  6.40121692E-01  1.61277759E-01  1.87311370E+01  2.82539436E+00  6.40121692E-01
  1.61277759E-01  1.87311370E+01  2.82539436E+00  6.40121692E-01  1.61277759E-01
  1.87311370E+01  2.82539436E+00  6.40121692E-01  1.61277759E-01  1.87311370E+01
  2.82539436E+00  6.40121692E-01  1.61277759E-01  1.87311370E+01  2.82539436E+00
  6.40121692E-01  1.61277759E-01  1.87311370E+01  2.82539436E+00  6.40121692E-01
  1.61277759E-01  1.87311370E+01  2.82539436E+00  6.40121692E-01  1.61277759E-01
Contraction coefficients                   R   N=         150
  1.83107443E-03  1.39501722E-02  6.84450781E-02  2.32714336E-01  4.70192898E-01
  3.58520853E-01 -1.10777550E-01 -1.48026263E-01  1.13076702E+00  1.00000000E+00
  1.00000000E+00  1.83477216E-03  1.39946270E-02  6.85865518E-02  2.32240873E-01
  4.69069948E-01  3.60455199E-01 -1.14961182E-01 -1.69117479E-01  1.14585195E+00
  1.00000000E+00  1.00000000E+00  1.83477216E-03  1.39946270E-02  6.85865518E-02
  2.32240873E-01  4.69069948E-01  3.60455199E-01 -1.14961182E-01 -1.69117479E-01
  1.14585195E+00  1.00000000E+00  1.00000000E+00  1.83473713E-03  1.40373228E-02
  6.88426223E-02  2.32184443E-01  4.67941348E-01  3.62311985E-01 -1.19332420E-01
 -1.60854152E-01  1.14345644E+00  1.00000000E+00  1.00000000E+00  1.83473713E-03
  1.40373228E-02  6.88426223E-02  2.32184443E-01  4.67941348E-01  3.62311985E-01
 -1.19332420E-01 -1.60854152E-01  1.14345644E+00  1.00000000E+00  1.00000000E+00
  1.83473713E-03  1.40373228E-02  6.88426223E-02  2.32184443E-01  4.67941348E-01
  3.62311985E-01 -1.19332420E-01 -1.60854152E-01  1.14345644E+00  1.00000000E+00
  1.00000000E+00  1.83473713E-03  1.40373228E-02  6.88426223E-02  2.32184443E-01
  4.67941348E-01  3.62311985E-01 -1.19332420E-01 -1.60854152E-01  1.14345644E+00
  1.00000000E+00  1.00000000E+00  1.83473713E-03  1.40373228E-02  6.88426223E-02
  2.32184443E-01  4.67941348E-01  3.62311985E-01 -1.19332420E-01 -1.60854152E-01
  1.14345644E+00  1.00000000E+00  1.00000000E+00  1.83473713E-03  1.40373228E-02
  6.88426223E-02  2.32184443E-01  4.67941348E-01  3.62311985E-01 -1.19332420E-01
 -1.60854152E-01  1.14345644E+00  1.00000000E+00  1.00000000E+00  1.83473713E-03
  1.40373228E-02  6.88426223E-02  2.32184443E-01  4.67941348E-01  3.62311985E-01
 -1.19332420E-01 -1.60854152E-01  1.14345644E+00  1.00000000E+00  1.00000000E+00
  3.34946043E-02  2.34726953E-01  8.13757326E-01  1.00000000E+00  3.34946043E-02
  2.34726953E-01  8.13757326E-01  1.00000000E+00  3.34946043E-02  2.34726953E-01
  8.13757326E-01  1.00000000E+00  3.34946043E-02  2.34726953E-01  8.13757326E-01
  1.00000000E+00  3.34946043E-02  2.34726953E-01  8.13757326E-01  1.00000000E+00
  3.34946043E-02  2.34726953E-01  8.13757326E-01  1.00000000E+00  3.34946043E-02
  2.34726953E-01  8.13757326E-01  1.00000000E+00  3.34946043E-02  2.34726953E-01
  8.13757326E-01  1.00000000E+00  3.34946043E-02  2.34726953E-01  8.13757326E-01
  1.00000000E+00  3.34946043E-02  2.34726953E-01  8.13757326E-01  1.00000000E+00
P(S=P) Contraction coefficients            R   N=         150
  0.00000000E+00  0.00000000E+00  0.00000000E+00  0.00000000E+00  0.00000000E+00
  0.00000000E+00  7.08742682E-02  3.39752839E-01  7.27158577E-01  1.00000000E+00
  0.00000000E+00  0.00000000E+00  0.00000000E+00  0.00000000E+00  0.00000000E+00
  0.00000000E+00  0.00000000E+00  6.75797439E-02  3.23907296E-01  7.40895140E-01
  1.00000000E+00  0.00000000E+00  0.00000000E+00  0.00000000E+00  0.00000000E+00
  0.00000000E+00  0.00000000E+00  0.00000000E+00  6.75797439E-02  3.23907296E-01
  7.40895140E-01  1.00000000E+00  0.00000000E+00  0.00000000E+00  0.00000000E+00
  0.00000000E+00  0.00000000E+00  0.00000000E+00  0.00000000E+00  6.89990666E-02
  3.16423961E-01  7.44308291E-01  1.00000000E+00  0.00000000E+00  0.00000000E+00
  0.00000000E+00  0.00000000E+00  0.00000000E+00  0.00000000E+00  0.00000000E+00
  6.89990666E-02  3.16423961E-01  7.44308291E-01  1.00000000E+00  0.00000000E+00
  0.00000000E+00  0.00000000E+00  0.00000000E+00  0.00000000E+00  0.00000000E+00
  0.00000000E+00  6.89990666E-02  3.16423961E-01  7.44308291E-01  1.00000000E+00
  0.00000000E+00  0.00000000E+00  0.00000000E+00  0.00000000E+00  0.00000000E+00
  0.00000000E+00  0.00000000E+00  6.89990666E-02  3.16423961E-01  7.44308291E-01
  1.00000000E+00  0.00000000E+00  0.00000000E+00  0.00000000E+00  0.00000000E+00
  0.00000000E+00  0.00000000E+00  0.00000000E+00  6.89990666E-02  3.16423961E-01
  7.44308291E-01  1.00000000E+00  0.00000000E+00  0.00000000E+00  0.00000000E+00
  0.00000000E+00  0.00000000E+00  0.00000000E+00  0.00000000E+00  6.89990666E-02
  3.16423961E-01  7.44308291E-01  1.00000000E+00  0.00000000E+00  0.00000000E+00
  0.00000000E+00  0.00000000E+00  0.00000000E+00  0.00000000E+00  0.00000000E+00
  6.89990666E-02  3.16423961E-01  7.44308291E-01  1.00000000E+00  0.00000000E+00
  0.00000000E+00  0.00000000E+00  0.00000000E+00  0.00000000E+00  0.00000000E+00
  0.00000000E+00  0.00000000E+00  0.00000000E+00  0.00000000E+00  0.00000000E+00
  0.00000000E+00  0.00000000E+00  0.00000000E+00  0.00000000E+00  0.00000000E+00
  0.00000000E+00  0.00000000E+00  0.00000000E+00  0.00000000E+00  0.00000000E+00
  0.00000000E+00  0.00000000E+00  0.00000000E+00  0.00000000E+00  0.00000000E+00
  0.00000000E+00  0.00000000E+00  0.00000000E+00  0.00000000E+00  0.00000000E+00
  0.00000000E+00  0.00000000E+00  0.00000000E+00  0.00000000E+00  0.00000000E+00
  0.00000000E+00  0.00000000E+00  0.00000000E+00  0.00000000E+00  0.00000000E+00
Coordinates of each shell                  R   N=         180
 -2.50718084E+00  2.64298529E+00 -7.64131901E-01 -2.50718084E+00  2.64298529E+00
 -7.64131901E-01 -2.50718084E+00  2.64298529E+00 -7.64131901E-01 -2.50718084E+00
  2.64298529E+00 -7.64131901E-01  2.66373704E+00  1.04245980E+00  1.35862746E-01
  2.66373704E+00  1.04245980E+00  1.35862746E-01  2.66373704E+00  1.04245980E+00
  1.35862746E-01  2.66373704E+00  1.04245980E+00  1.35862746E-01 -3.80227354E+00
 -1.35388620E+00  2.47753006E-01 -3.80227354E+00 -1.35388620E+00  2.47753006E-01
 -3.80227354E+00 -1.35388620E+00  2.47753006E-01 -3.80227354E+00 -1.35388620E+00
  2.47753006E-01  6.19864479E-01 -5.51252043E-01 -1.20598269E-01  6.19864479E-01
 -5.51252043E-01 -1.20598269E-01  6.19864479E-01 -5.51252043E-01 -1.20598269E-01
  6.19864479E-01 -5.51252043E-01 -1.20598269E-01  1.54967370E+00 -3.01964454E+00
 -2.73431316E-01  1.54967370E+00 -3.01964454E+00 -2.73431316E-01  1.54967370E+00
 -3.01964454E+00 -2.73431316E-01  1.54967370E+00 -3.01964454E+00 -2.73431316E-01
  4.83615346E+00 -3.64168642E-01  1.56628944E-01  4.83615346E+00 -3.64168642E-01
  1.56628944E-01  4.83615346E+00 -3.64168642E-01  1.56628944E-01  4.83615346E+00
 -3.64168642E-01  1.56628944E-01  4.19992195E+00 -2.89333521E+00 -1.00395277E-01
  4.19992195E+00 -2.89333521E+00 -1.00395277E-01  4.19992195E+00 -2.89333521E+00
 -1.00395277E-01  4.19992195E+00 -2.89333521E+00 -1.00395277E-01 -1.98244399E+00
  4.21377838E-01 -2.30693662E-01 -1.98244399E+00  4.21377838E-01 -2.30693662E-01
 -1.98244399E+00  4.21377838E-01 -2.30693662E-01 -1.98244399E+00  4.21377838E-01
 -2.30693662E-01  2.60314724E+00  3.79281547E+00  3.41017304E-01  2.60314724E+00
  3.79281547E+00  3.41017304E-01  2.60314724E+00  3.79281547E+00  3.41017304E-01
  2.60314724E+00  3.79281547E+00  3.41017304E-01 -6.44769397E+00 -6.33698487E-01
  3.15854876E-01 -6.44769397E+00 -6.33698487E-01  3.15854876E-01 -6.44769397E+00
 -6.33698487E-01  3.15854876E-01 -6.44769397E+00 -6.33698487E-01  3.15854876E-01
  4.23182882E-01 -4.70152483E+00 -5.79626388E-01  4.23182882E-01 -4.70152483E+00
 -5.79626388E-01  6.65711821E+00  5.44938798E-01  3.56789965E-01  6.65711821E+00
  5.44938798E-01  3.56789965E-01  5.51694580E+00 -4.45629535E+00 -1.68500630E-01
  5.51694580E+00 -4.45629535E+00 -1.68500630E-01  1.32277287E+00  4.36651533E+00
  1.84776543E+00  1.32277287E+00  4.36651533E+00  1.84776543E+00  4.51904522E+00
  4.42095878E+00  7.73136357E-01  4.51904522E+00  4.42095878E+00  7.73136357E-01
  1.95358871E+00  4.63215268E+00 -1.42241255E+00  1.95358871E+00  4.63215268E+00
 -1.42241255E+00 -3.26180810E+00 -2.94273652E+00  1.16178808E+00 -3.26180810E+00
 -2.94273652E+00  1.16178808E+00 -7.60980128E+00 -2.31727055E+00  5.21445775E-02
 -7.60980128E+00 -2.31727055E+00  5.21445775E-02 -6.79773999E+00  6.91155257E-01
 -1.22084587E+00 -6.79773999E+00  6.91155257E-01 -1.22084587E+00 -6.96783928E+00
  2.85642619E-01  2.09721036E+00 -6.96783928E+00  2.85642619E-01  2.09721036E+00
Constraint Structure                       R   N=          60
 -2.50718084E+00  2.64298529E+00 -7.64131901E-01  2.66373704E+00  1.04245980E+00
  1.35862746E-01 -3.80227354E+00 -1.35388620E+00  2.47753006E-01  6.19864479E-01
 -5.51252043E-01 -1.20598269E-01  1.54967370E+00 -3.01964454E+00 -2.73431316E-01
  4.83615346E+00 -3.64168642E-01  1.56628944E-01  4.19992195E+00 -2.89333521E+00
 -1.00395277E-01 -1.98244399E+00  4.21377838E-01 -2.30693662E-01  2.60314724E+00
  3.79281547E+00  3.41017304E-01 -6.44769397E+00 -6.33698487E-01  3.15854876E-01
  4.23182882E-01 -4.70152483E+00 -5.79626388E-01  6.65711821E+00  5.44938798E-01
  3.56789965E-01  5.51694580E+00 -4.45629535E+00 -1.68500630E-01  1.32277287E+00
  4.36651533E+00  1.84776543E+00  4.51904522E+00  4.42095878E+00  7.73136357E-01
  1.95358871E+00  4.63215268E+00 -1.42241255E+00 -3.26180810E+00 -2.94273652E+00
  1.16178808E+00 -7.60980128E+00 -2.31727055E+00  5.21445775E-02 -6.79773999E+00
  6.91155257E-01 -1.22084587E+00 -6.96783928E+00  2.85642619E-01  2.09721036E+00
Num ILSW                                   I              100
ILSW                                       I   N=         100
           0           1           0           0           2           0
           0           0           0           0           0          -1
           0           0           0           0           0           0
           0           0           0           0           1           0
           1           0           0           0           0           0
           0           0      100000           0          -1           0
           0           0           0           0           0           0
           0           0           0           1           1           0
           0           0           1           0           0           0
           0           0           4          40           0           0
           0           0           0           0           0           0
           0           0           0           0           0           0
           0           0           0           0           0           0
           0           0           0           0           0           0
           0           0           0           0           0           0
           0           0           0           0           0           0
           0           0           0           0
Num RLSW                                   I               40
RLSW                                       R   N=          40
  1.00000000E+00  1.00000000E+00  1.00000000E+00  1.00000000E+00  1.00000000E+00
  0.00000000E+00  0.00000000E+00  1.00000000E+00  0.00000000E+00  0.00000000E+00
  0.00000000E+00  0.00000000E+00  1.00000000E+00  0.00000000E+00  0.00000000E+00
  0.00000000E+00  0.00000000E+00  1.00000000E+00  0.00000000E+00  0.00000000E+00
  0.00000000E+00  0.00000000E+00  1.00000000E+00  0.00000000E+00  0.00000000E+00
  0.00000000E+00  0.00000000E+00  1.00000000E+00  0.00000000E+00  0.00000000E+00
  0.00000000E+00  0.00000000E+00  0.00000000E+00  0.00000000E+00  0.00000000E+00
  0.00000000E+00  0.00000000E+00  0.00000000E+00  1.00000000E+00  1.00000000E+00
MxBond                                     I                4
NBond                                      I   N=          20
           1           3           3           3           3           3
           3           3           4           4           1           1
           1           1           1           1           1           1
           1           1
IBond                                      I   N=          80
           8           0           0           0           4           6
           9           0           8          10          17           0
           2           5           8           0           4           7
          11           0           2           7          12           0
           5           6          13           0           1           3
           4           0           2          14          15          16
           3          18          19          20           5           0
           0           0           6           0           0           0
           7           0           0           0           9           0
           0           0           9           0           0           0
           9           0           0           0           3           0
           0           0          10           0           0           0
          10           0           0           0          10           0
           0           0
RBond                                      R   N=          80
  2.00000000E+00  0.00000000E+00  0.00000000E+00  0.00000000E+00  1.00000000E+00
  1.00000000E+00  1.00000000E+00  0.00000000E+00  1.00000000E+00  1.00000000E+00
  1.00000000E+00  0.00000000E+00  1.00000000E+00  1.50000000E+00  1.00000000E+00
  0.00000000E+00  1.50000000E+00  1.50000000E+00  1.00000000E+00  0.00000000E+00
  1.00000000E+00  1.50000000E+00  1.00000000E+00  0.00000000E+00  1.50000000E+00
  1.50000000E+00  1.00000000E+00  0.00000000E+00  2.00000000E+00  1.00000000E+00
  1.00000000E+00  0.00000000E+00  1.00000000E+00  1.00000000E+00  1.00000000E+00
  1.00000000E+00  1.00000000E+00  1.00000000E+00  1.00000000E+00  1.00000000E+00
  1.00000000E+00  0.00000000E+00  0.00000000E+00  0.00000000E+00  1.00000000E+00
  0.00000000E+00  0.00000000E+00  0.00000000E+00  1.00000000E+00  0.00000000E+00
  0.00000000E+00  0.00000000E+00  1.00000000E+00  0.00000000E+00  0.00000000E+00
  0.00000000E+00  1.00000000E+00  0.00000000E+00  0.00000000E+00  0.00000000E+00
  1.00000000E+00  0.00000000E+00  0.00000000E+00  0.00000000E+00  1.00000000E+00
  0.00000000E+00  0.00000000E+00  0.00000000E+00  1.00000000E+00  0.00000000E+00
  0.00000000E+00  0.00000000E+00  1.00000000E+00  0.00000000E+00  0.00000000E+00
  0.00000000E+00  1.00000000E+00  0.00000000E+00  0.00000000E+00  0.00000000E+00
Virial Ratio                               R      2.002552369307368E+00
SCF Energy                                 R     -4.546545192205460E+02
MP2 Energy                                 R     -4.560591582992958E+02
Total Energy                               R     -4.560591582992958E+02
Post-SCF wavefunction norm                 R      1.713840407517505E+00
RMS Force                                  R      2.255479308738768E-07
RMS Density                                R      1.946571164974594E-09
External E-field                           R   N=          35
  0.00000000E+00  0.00000000E+00  0.00000000E+00  0.00000000E+00  0.00000000E+00
  0.00000000E+00  0.00000000E+00  0.00000000E+00  0.00000000E+00  0.00000000E+00
  0.00000000E+00  0.00000000E+00  0.00000000E+00  0.00000000E+00  0.00000000E+00
  0.00000000E+00  0.00000000E+00  0.00000000E+00  0.00000000E+00  0.00000000E+00
  0.00000000E+00  0.00000000E+00  0.00000000E+00  0.00000000E+00  0.00000000E+00
  0.00000000E+00  0.00000000E+00  0.00000000E+00  0.00000000E+00  0.00000000E+00
  0.00000000E+00  0.00000000E+00  0.00000000E+00  0.00000000E+00  0.00000000E+00
IOpCl                                      I                0
IROHF                                      I                0
Alpha Orbital Energies                     R   N=         170
 -2.05190318E+01 -1.56220926E+01 -1.55843999E+01 -1.13536659E+01 -1.12644131E+01
 -1.12623377E+01 -1.12583713E+01 -1.12563247E+01 -1.12297715E+01 -1.12172654E+01
 -1.36666138E+00 -1.30208313E+00 -1.22132375E+00 -1.07776311E+00 -1.01147657E+00
 -9.38608635E-01 -9.35058764E-01 -8.20861249E-01 -7.82465388E-01 -7.57634341E-01
 -7.20798608E-01 -6.47304189E-01 -6.36597552E-01 -6.28614456E-01 -6.13142876E-01
 -5.91012449E-01 -5.75730596E-01 -5.68718022E-01 -5.45822391E-01 -5.44205022E-01
 -5.32925698E-01 -5.28643934E-01 -5.07577458E-01 -4.20203145E-01 -3.85708877E-01
 -3.40838127E-01 -2.99936944E-01  1.30222937E-01  2.16654773E-01  2.36259601E-01
  2.54713130E-01  2.65956399E-01  2.78003896E-01  2.87857163E-01  2.97314105E-01
  3.17145597E-01  3.26608879E-01  3.30410148E-01  3.37785997E-01  3.51722473E-01
  3.61019650E-01  3.77925464E-01  4.26263964E-01  4.39594547E-01  4.94570988E-01
  5.09783578E-01  5.41277387E-01  5.91392849E-01  6.61817015E-01  6.74922168E-01
  7.12611588E-01  7.15305229E-01  7.39581511E-01  7.53635185E-01  7.64663567E-01
  7.88757489E-01  8.01009925E-01  8.08852911E-01  8.18191723E-01  8.39389904E-01
  8.53096431E-01  8.93086522E-01  9.04858744E-01  9.26289765E-01  9.48352493E-01
  9.54862940E-01  9.83767307E-01  9.89729852E-01  1.02319415E+00  1.03524547E+00
  1.05840777E+00  1.08382896E+00  1.10521015E+00  1.10583589E+00  1.12149558E+00
  1.13481631E+00  1.15675992E+00  1.17330191E+00  1.17851994E+00  1.19401221E+00
  1.20986844E+00  1.21190167E+00  1.21955299E+00  1.22876349E+00  1.24134275E+00
  1.28330096E+00  1.30077167E+00  1.35507839E+00  1.37393485E+00  1.42200038E+00
  1.42446711E+00  1.52143859E+00  1.56357207E+00  1.58012708E+00  1.59090374E+00
  1.60553410E+00  1.61078015E+00  1.66955329E+00  1.68318030E+00  1.72592632E+00
  1.74504728E+00  1.75059713E+00  1.77872155E+00  1.81092636E+00  1.84262562E+00
  1.92137790E+00  2.06143617E+00  2.07772643E+00  2.09528526E+00  2.14033210E+00
  2.16789414E+00  2.20462193E+00  2.20826850E+00  2.24668931E+00  2.25910010E+00
  2.27503402E+00  2.31251640E+00  2.34080886E+00  2.34651859E+00  2.37554042E+00
  2.37827040E+00  2.42212450E+00  2.45989114E+00  2.49483455E+00  2.54030238E+00
  2.54595359E+00  2.56385333E+00  2.59433383E+00  2.62112218E+00  2.63246885E+00
  2.64528035E+00  2.66870415E+00  2.71619538E+00  2.74505476E+00  2.78343776E+00
  2.81513487E+00  2.87294791E+00  2.91048803E+00  2.94641243E+00  3.01508639E+00
  3.04364486E+00  3.07732855E+00  3.08281716E+00  3.14200188E+00  3.24013399E+00
  3.28489569E+00  3.35994173E+00  3.42915325E+00  3.60890024E+00  3.65494896E+00
  4.39056542E+00  4.42946953E+00  4.48388401E+00  4.55644449E+00  4.60711225E+00
  4.70301146E+00  4.72228555E+00  4.86991775E+00  4.90289891E+00  5.14097525E+00
Alpha MO coefficients                      R   N=       28900
  9.94690331E-01  2.09768954E-02  3.21402231E-04 -1.43568934E-03  3.46391285E-04
  4.35672213E-03 -1.25106154E-05  1.47202665E-04 -2.28207735E-05 -3.88780428E-03
 -3.73788471E-03 -4.07889182E-03 -5.16232083E-05 -1.48193687E-06 -1.07340110E-04