21018619                                                                
Freq      RMP2-FC                                                     6-31G(d)            
Number of atoms                            I               25
Info1-9                                    I   N=           9
          37          35        1002           0           0         100
           6           2           1
Charge                                     I                0
Multiplicity                               I                1
Number of electrons                        I               82
Number of alpha electrons                  I               41
Number of beta electrons                   I               41
Number of basis functions                  I              171
Number of independent functions            I              171
Number of point charges in /Mol/           I                0
Number of translation vectors              I                0
Atomic numbers                             I   N=          25
          16           8           6           6           6           6
           6           6           6           1           1           1
           1           1           1           1           1           1
           1           1           1           1           1           1
           1
Nuclear charges                            R   N=          25
  1.60000000E+01  8.00000000E+00  6.00000000E+00  6.00000000E+00  6.00000000E+00
  6.00000000E+00  6.00000000E+00  6.00000000E+00  6.00000000E+00  1.00000000E+00
  1.00000000E+00  1.00000000E+00  1.00000000E+00  1.00000000E+00  1.00000000E+00
  1.00000000E+00  1.00000000E+00  1.00000000E+00  1.00000000E+00  1.00000000E+00
  1.00000000E+00  1.00000000E+00  1.00000000E+00  1.00000000E+00  1.00000000E+00
Current cartesian coordinates              R   N=          75
 -4.93902731E-01 -1.12064308E+00 -2.69245955E-01 -5.42483816E-01 -2.36201431E+00
  2.31722467E+00  4.53104118E+00  1.35489583E-01  3.48523976E-01  1.93914726E+00
  1.30501626E+00 -1.47803485E-01 -3.16400670E+00  1.03295974E+00 -4.03730384E-01
  5.41463855E+00 -1.50650503E+00 -1.85524927E+00  6.44477325E+00  2.22265184E+00
  9.11161594E-01 -5.62601707E+00 -4.51607494E-01 -2.46940290E-01 -7.92502065E+00
  1.28908189E+00 -2.11774319E-01  4.33638664E+00 -1.05598448E+00  2.03430664E+00
  1.42712652E+00  2.59761588E+00  1.38965002E+00  1.91070895E+00  2.33971305E+00
 -1.94672330E+00 -2.99777343E+00  2.33488627E+00  1.20015243E+00 -3.02706610E+00
  2.10988300E+00 -2.17003581E+00  5.58061679E+00 -3.73836293E-01 -3.58160217E+00
  7.27115936E+00 -2.32128546E+00 -1.44955087E+00  4.11257737E+00 -3.06648224E+00
 -2.23309864E+00  6.65745362E+00  3.48035501E+00 -7.19931511E-01  8.30049926E+00
  1.41463664E+00  1.33630159E+00  5.85773786E+00  3.36414672E+00  2.53271747E+00
 -5.75098871E+00 -1.75475144E+00 -1.85283838E+00 -5.57556299E+00 -1.60928810E+00
  1.46644876E+00 -7.85839181E+00  2.56531546E+00  1.41344735E+00 -8.01495212E+00
  2.44282501E+00 -1.92563500E+00 -9.67455181E+00  1.96134072E-01 -8.85975721E-02
Force Field                                I                0
Int Atom Types                             I   N=          25
           0           0           0           0           0           0
           0           0           0           0           0           0
           0           0           0           0           0           0
           0           0           0           0           0           0
           0
MM charges                                 R   N=          25
  0.00000000E+00  0.00000000E+00  0.00000000E+00  0.00000000E+00  0.00000000E+00
  0.00000000E+00  0.00000000E+00  0.00000000E+00  0.00000000E+00  0.00000000E+00
  0.00000000E+00  0.00000000E+00  0.00000000E+00  0.00000000E+00  0.00000000E+00
  0.00000000E+00  0.00000000E+00  0.00000000E+00  0.00000000E+00  0.00000000E+00
  0.00000000E+00  0.00000000E+00  0.00000000E+00  0.00000000E+00  0.00000000E+00
Integer atomic weights                     I   N=          25
          32          16          12          12          12          12
          12          12          12           1           1           1
           1           1           1           1           1           1
           1           1           1           1           1           1
           1
Real atomic weights                        R   N=          25
  3.19720718E+01  1.59949146E+01  1.20000000E+01  1.20000000E+01  1.20000000E+01
  1.20000000E+01  1.20000000E+01  1.20000000E+01  1.20000000E+01  1.00782504E+00
  1.00782504E+00  1.00782504E+00  1.00782504E+00  1.00782504E+00  1.00782504E+00
  1.00782504E+00  1.00782504E+00  1.00782504E+00  1.00782504E+00  1.00782504E+00
  1.00782504E+00  1.00782504E+00  1.00782504E+00  1.00782504E+00  1.00782504E+00
Atom fragment info                         I   N=          25
           0           0           0           0           0           0
           0           0           0           0           0           0
           0           0           0           0           0           0
           0           0           0           0           0           0
           0
Atom residue num                           I   N=          25
           0           0           0           0           0           0
           0           0           0           0           0           0
           0           0           0           0           0           0
           0           0           0           0           0           0
           0
Nuclear spins                              I   N=          25
           0           0           0           0           0           0
           0           0           0           1           1           1
           1           1           1           1           1           1
           1           1           1           1           1           1
           1
Nuclear ZEff                               R   N=          25
 -1.36000000E+01 -5.60000000E+00 -3.60000000E+00 -3.60000000E+00 -3.60000000E+00
 -3.60000000E+00 -3.60000000E+00 -3.60000000E+00 -3.60000000E+00 -1.00000000E+00
 -1.00000000E+00 -1.00000000E+00 -1.00000000E+00 -1.00000000E+00 -1.00000000E+00
 -1.00000000E+00 -1.00000000E+00 -1.00000000E+00 -1.00000000E+00 -1.00000000E+00
 -1.00000000E+00 -1.00000000E+00 -1.00000000E+00 -1.00000000E+00 -1.00000000E+00
Nuclear QMom                               R   N=          25
  0.00000000E+00  0.00000000E+00  0.00000000E+00  0.00000000E+00  0.00000000E+00
  0.00000000E+00  0.00000000E+00  0.00000000E+00  0.00000000E+00  0.00000000E+00
  0.00000000E+00  0.00000000E+00  0.00000000E+00  0.00000000E+00  0.00000000E+00
  0.00000000E+00  0.00000000E+00  0.00000000E+00  0.00000000E+00  0.00000000E+00
  0.00000000E+00  0.00000000E+00  0.00000000E+00  0.00000000E+00  0.00000000E+00
Nuclear GFac                               R   N=          25
  0.00000000E+00  0.00000000E+00  0.00000000E+00  0.00000000E+00  0.00000000E+00
  0.00000000E+00  0.00000000E+00  0.00000000E+00  0.00000000E+00  2.79284600E+00
  2.79284600E+00  2.79284600E+00  2.79284600E+00  2.79284600E+00  2.79284600E+00
  2.79284600E+00  2.79284600E+00  2.79284600E+00  2.79284600E+00  2.79284600E+00
  2.79284600E+00  2.79284600E+00  2.79284600E+00  2.79284600E+00  2.79284600E+00
MicOpt                                     I   N=          25
          -1          -1          -1          -1          -1          -1
          -1          -1          -1          -1          -1          -1
          -1          -1          -1          -1          -1          -1
          -1          -1          -1          -1          -1          -1
          -1
Number of contracted shells                I               69
Number of primitive shells                 I              169
Pure/Cartesian d shells                    I                1
Pure/Cartesian f shells                    I                0
Highest angular momentum                   I                2
Largest degree of contraction              I                6
Shell types                                I   N=          69
           0          -1          -1          -1           2           0
          -1          -1           2           0          -1          -1
           2           0          -1          -1           2           0
          -1          -1           2           0          -1          -1
           2           0          -1          -1           2           0
          -1          -1           2           0          -1          -1
           2           0           0           0           0           0
           0           0           0           0           0           0
           0           0           0           0           0           0
           0           0           0           0           0           0
           0           0           0           0           0           0
           0           0           0
Number of primitives per shell             I   N=          69
           6           6           3           1           1           6
           3           1           1           6           3           1
           1           6           3           1           1           6
           3           1           1           6           3           1
           1           6           3           1           1           6
           3           1           1           6           3           1
           1           3           1           3           1           3
           1           3           1           3           1           3
           1           3           1           3           1           3
           1           3           1           3           1           3
           1           3           1           3           1           3
           1           3           1
Shell to atom map                          I   N=          69
           1           1           1           1           1           2
           2           2           2           3           3           3
           3           4           4           4           4           5
           5           5           5           6           6           6
           6           7           7           7           7           8
           8           8           8           9           9           9
           9          10          10          11          11          12
          12          13          13          14          14          15
          15          16          16          17          17          18
          18          19          19          20          20          21
          21          22          22          23          23          24
          24          25          25
Primitive exponents                        R   N=         169
  2.19171000E+04  3.30149000E+03  7.54146000E+02  2.12711000E+02  6.79896000E+01
  2.30515000E+01  4.23735000E+02  1.00710000E+02  3.21599000E+01  1.18079000E+01
  4.63110000E+00  1.87025000E+00  2.61584000E+00  9.22167000E-01  3.41287000E-01
  1.17167000E-01  6.50000000E-01  5.48467166E+03  8.25234946E+02  1.88046958E+02
  5.29645000E+01  1.68975704E+01  5.79963534E+00  1.55396162E+01  3.59993359E+00
  1.01376175E+00  2.70005823E-01  8.00000000E-01  3.04752488E+03  4.57369518E+02
  1.03948685E+02  2.92101553E+01  9.28666296E+00  3.16392696E+00  7.86827235E+00
  1.88128854E+00  5.44249258E-01  1.68714478E-01  8.00000000E-01  3.04752488E+03
  4.57369518E+02  1.03948685E+02  2.92101553E+01  9.28666296E+00  3.16392696E+00
  7.86827235E+00  1.88128854E+00  5.44249258E-01  1.68714478E-01  8.00000000E-01
  3.04752488E+03  4.57369518E+02  1.03948685E+02  2.92101553E+01  9.28666296E+00
  3.16392696E+00  7.86827235E+00  1.88128854E+00  5.44249258E-01  1.68714478E-01
  8.00000000E-01  3.04752488E+03  4.57369518E+02  1.03948685E+02  2.92101553E+01
  9.28666296E+00  3.16392696E+00  7.86827235E+00  1.88128854E+00  5.44249258E-01
  1.68714478E-01  8.00000000E-01  3.04752488E+03  4.57369518E+02  1.03948685E+02
  2.92101553E+01  9.28666296E+00  3.16392696E+00  7.86827235E+00  1.88128854E+00
  5.44249258E-01  1.68714478E-01  8.00000000E-01  3.04752488E+03  4.57369518E+02
  1.03948685E+02  2.92101553E+01  9.28666296E+00  3.16392696E+00  7.86827235E+00
  1.88128854E+00  5.44249258E-01  1.68714478E-01  8.00000000E-01  3.04752488E+03
  4.57369518E+02  1.03948685E+02  2.92101553E+01  9.28666296E+00  3.16392696E+00
  7.86827235E+00  1.88128854E+00  5.44249258E-01  1.68714478E-01  8.00000000E-01
  1.87311370E+01  2.82539436E+00  6.40121692E-01  1.61277759E-01  1.87311370E+01
  2.82539436E+00  6.40121692E-01  1.61277759E-01  1.87311370E+01  2.82539436E+00
  6.40121692E-01  1.61277759E-01  1.87311370E+01  2.82539436E+00  6.40121692E-01
  1.61277759E-01  1.87311370E+01  2.82539436E+00  6.40121692E-01  1.61277759E-01
  1.87311370E+01  2.82539436E+00  6.40121692E-01  1.61277759E-01  1.87311370E+01
  2.82539436E+00  6.40121692E-01  1.61277759E-01  1.87311370E+01  2.82539436E+00
  6.40121692E-01  1.61277759E-01  1.87311370E+01  2.82539436E+00  6.40121692E-01
  1.61277759E-01  1.87311370E+01  2.82539436E+00  6.40121692E-01  1.61277759E-01
  1.87311370E+01  2.82539436E+00  6.40121692E-01  1.61277759E-01  1.87311370E+01
  2.82539436E+00  6.40121692E-01  1.61277759E-01  1.87311370E+01  2.82539436E+00
  6.40121692E-01  1.61277759E-01  1.87311370E+01  2.82539436E+00  6.40121692E-01
  1.61277759E-01  1.87311370E+01  2.82539436E+00  6.40121692E-01  1.61277759E-01
  1.87311370E+01  2.82539436E+00  6.40121692E-01  1.61277759E-01
Contraction coefficients                   R   N=         169
  1.86924085E-03  1.42303065E-02  6.96962317E-02  2.38487108E-01  4.83307220E-01
  3.38074154E-01 -2.37677050E-03 -3.16930067E-02 -1.13317024E-01  5.60900118E-02
  5.92255124E-01  4.55006095E-01 -2.50373114E-01  6.69567631E-02  1.05450627E+00
  1.00000000E+00  1.00000000E+00  1.83107443E-03  1.39501722E-02  6.84450781E-02
  2.32714336E-01  4.70192898E-01  3.58520853E-01 -1.10777550E-01 -1.48026263E-01
  1.13076702E+00  1.00000000E+00  1.00000000E+00  1.83473713E-03  1.40373228E-02
  6.88426223E-02  2.32184443E-01  4.67941348E-01  3.62311985E-01 -1.19332420E-01
 -1.60854152E-01  1.14345644E+00  1.00000000E+00  1.00000000E+00  1.83473713E-03
  1.40373228E-02  6.88426223E-02  2.32184443E-01  4.67941348E-01  3.62311985E-01
 -1.19332420E-01 -1.60854152E-01  1.14345644E+00  1.00000000E+00  1.00000000E+00
  1.83473713E-03  1.40373228E-02  6.88426223E-02  2.32184443E-01  4.67941348E-01
  3.62311985E-01 -1.19332420E-01 -1.60854152E-01  1.14345644E+00  1.00000000E+00
  1.00000000E+00  1.83473713E-03  1.40373228E-02  6.88426223E-02  2.32184443E-01
  4.67941348E-01  3.62311985E-01 -1.19332420E-01 -1.60854152E-01  1.14345644E+00
  1.00000000E+00  1.00000000E+00  1.83473713E-03  1.40373228E-02  6.88426223E-02
  2.32184443E-01  4.67941348E-01  3.62311985E-01 -1.19332420E-01 -1.60854152E-01
  1.14345644E+00  1.00000000E+00  1.00000000E+00  1.83473713E-03  1.40373228E-02
  6.88426223E-02  2.32184443E-01  4.67941348E-01  3.62311985E-01 -1.19332420E-01
 -1.60854152E-01  1.14345644E+00  1.00000000E+00  1.00000000E+00  1.83473713E-03
  1.40373228E-02  6.88426223E-02  2.32184443E-01  4.67941348E-01  3.62311985E-01
 -1.19332420E-01 -1.60854152E-01  1.14345644E+00  1.00000000E+00  1.00000000E+00
  3.34946043E-02  2.34726953E-01  8.13757326E-01  1.00000000E+00  3.34946043E-02
  2.34726953E-01  8.13757326E-01  1.00000000E+00  3.34946043E-02  2.34726953E-01
  8.13757326E-01  1.00000000E+00  3.34946043E-02  2.34726953E-01  8.13757326E-01
  1.00000000E+00  3.34946043E-02  2.34726953E-01  8.13757326E-01  1.00000000E+00
  3.34946043E-02  2.34726953E-01  8.13757326E-01  1.00000000E+00  3.34946043E-02
  2.34726953E-01  8.13757326E-01  1.00000000E+00  3.34946043E-02  2.34726953E-01
  8.13757326E-01  1.00000000E+00  3.34946043E-02  2.34726953E-01  8.13757326E-01
  1.00000000E+00  3.34946043E-02  2.34726953E-01  8.13757326E-01  1.00000000E+00
  3.34946043E-02  2.34726953E-01  8.13757326E-01  1.00000000E+00  3.34946043E-02
  2.34726953E-01  8.13757326E-01  1.00000000E+00  3.34946043E-02  2.34726953E-01
  8.13757326E-01  1.00000000E+00  3.34946043E-02  2.34726953E-01  8.13757326E-01
  1.00000000E+00  3.34946043E-02  2.34726953E-01  8.13757326E-01  1.00000000E+00
  3.34946043E-02  2.34726953E-01  8.13757326E-01  1.00000000E+00
P(S=P) Contraction coefficients            R   N=         169
  0.00000000E+00  0.00000000E+00  0.00000000E+00  0.00000000E+00  0.00000000E+00
  0.00000000E+00  4.06100998E-03  3.06812999E-02  1.30451999E-01  3.27204999E-01
  4.52850998E-01  2.56041999E-01 -1.45104895E-02  3.10262776E-01  7.54482456E-01
  1.00000000E+00  0.00000000E+00  0.00000000E+00  0.00000000E+00  0.00000000E+00
  0.00000000E+00  0.00000000E+00  0.00000000E+00  7.08742682E-02  3.39752839E-01
  7.27158577E-01  1.00000000E+00  0.00000000E+00  0.00000000E+00  0.00000000E+00
  0.00000000E+00  0.00000000E+00  0.00000000E+00  0.00000000E+00  6.89990666E-02
  3.16423961E-01  7.44308291E-01  1.00000000E+00  0.00000000E+00  0.00000000E+00
  0.00000000E+00  0.00000000E+00  0.00000000E+00  0.00000000E+00  0.00000000E+00
  6.89990666E-02  3.16423961E-01  7.44308291E-01  1.00000000E+00  0.00000000E+00
  0.00000000E+00  0.00000000E+00  0.00000000E+00  0.00000000E+00  0.00000000E+00
  0.00000000E+00  6.89990666E-02  3.16423961E-01  7.44308291E-01  1.00000000E+00
  0.00000000E+00  0.00000000E+00  0.00000000E+00  0.00000000E+00  0.00000000E+00
  0.00000000E+00  0.00000000E+00  6.89990666E-02  3.16423961E-01  7.44308291E-01
  1.00000000E+00  0.00000000E+00  0.00000000E+00  0.00000000E+00  0.00000000E+00
  0.00000000E+00  0.00000000E+00  0.00000000E+00  6.89990666E-02  3.16423961E-01
  7.44308291E-01  1.00000000E+00  0.00000000E+00  0.00000000E+00  0.00000000E+00
  0.00000000E+00  0.00000000E+00  0.00000000E+00  0.00000000E+00  6.89990666E-02
  3.16423961E-01  7.44308291E-01  1.00000000E+00  0.00000000E+00  0.00000000E+00
  0.00000000E+00  0.00000000E+00  0.00000000E+00  0.00000000E+00  0.00000000E+00
  6.89990666E-02  3.16423961E-01  7.44308291E-01  1.00000000E+00  0.00000000E+00
  0.00000000E+00  0.00000000E+00  0.00000000E+00  0.00000000E+00  0.00000000E+00
  0.00000000E+00  0.00000000E+00  0.00000000E+00  0.00000000E+00  0.00000000E+00
  0.00000000E+00  0.00000000E+00  0.00000000E+00  0.00000000E+00  0.00000000E+00
  0.00000000E+00  0.00000000E+00  0.00000000E+00  0.00000000E+00  0.00000000E+00
  0.00000000E+00  0.00000000E+00  0.00000000E+00  0.00000000E+00  0.00000000E+00
  0.00000000E+00  0.00000000E+00  0.00000000E+00  0.00000000E+00  0.00000000E+00
  0.00000000E+00  0.00000000E+00  0.00000000E+00  0.00000000E+00  0.00000000E+00
  0.00000000E+00  0.00000000E+00  0.00000000E+00  0.00000000E+00  0.00000000E+00
  0.00000000E+00  0.00000000E+00  0.00000000E+00  0.00000000E+00  0.00000000E+00
  0.00000000E+00  0.00000000E+00  0.00000000E+00  0.00000000E+00  0.00000000E+00
  0.00000000E+00  0.00000000E+00  0.00000000E+00  0.00000000E+00  0.00000000E+00
  0.00000000E+00  0.00000000E+00  0.00000000E+00  0.00000000E+00  0.00000000E+00
  0.00000000E+00  0.00000000E+00  0.00000000E+00  0.00000000E+00
Coordinates of each shell                  R   N=         207
 -4.93902731E-01 -1.12064308E+00 -2.69245955E-01 -4.93902731E-01 -1.12064308E+00
 -2.69245955E-01 -4.93902731E-01 -1.12064308E+00 -2.69245955E-01 -4.93902731E-01
 -1.12064308E+00 -2.69245955E-01 -4.93902731E-01 -1.12064308E+00 -2.69245955E-01
 -5.42483816E-01 -2.36201431E+00  2.31722467E+00 -5.42483816E-01 -2.36201431E+00
  2.31722467E+00 -5.42483816E-01 -2.36201431E+00  2.31722467E+00 -5.42483816E-01
 -2.36201431E+00  2.31722467E+00  4.53104118E+00  1.35489583E-01  3.48523976E-01
  4.53104118E+00  1.35489583E-01  3.48523976E-01  4.53104118E+00  1.35489583E-01
  3.48523976E-01  4.53104118E+00  1.35489583E-01  3.48523976E-01  1.93914726E+00
  1.30501626E+00 -1.47803485E-01  1.93914726E+00  1.30501626E+00 -1.47803485E-01
  1.93914726E+00  1.30501626E+00 -1.47803485E-01  1.93914726E+00  1.30501626E+00
 -1.47803485E-01 -3.16400670E+00  1.03295974E+00 -4.03730384E-01 -3.16400670E+00
  1.03295974E+00 -4.03730384E-01 -3.16400670E+00  1.03295974E+00 -4.03730384E-01
 -3.16400670E+00  1.03295974E+00 -4.03730384E-01  5.41463855E+00 -1.50650503E+00
 -1.85524927E+00  5.41463855E+00 -1.50650503E+00 -1.85524927E+00  5.41463855E+00
 -1.50650503E+00 -1.85524927E+00  5.41463855E+00 -1.50650503E+00 -1.85524927E+00
  6.44477325E+00  2.22265184E+00  9.11161594E-01  6.44477325E+00  2.22265184E+00
  9.11161594E-01  6.44477325E+00  2.22265184E+00  9.11161594E-01  6.44477325E+00
  2.22265184E+00  9.11161594E-01 -5.62601707E+00 -4.51607494E-01 -2.46940290E-01
 -5.62601707E+00 -4.51607494E-01 -2.46940290E-01 -5.62601707E+00 -4.51607494E-01
 -2.46940290E-01 -5.62601707E+00 -4.51607494E-01 -2.46940290E-01 -7.92502065E+00
  1.28908189E+00 -2.11774319E-01 -7.92502065E+00  1.28908189E+00 -2.11774319E-01
 -7.92502065E+00  1.28908189E+00 -2.11774319E-01 -7.92502065E+00  1.28908189E+00
 -2.11774319E-01  4.33638664E+00 -1.05598448E+00  2.03430664E+00  4.33638664E+00
 -1.05598448E+00  2.03430664E+00  1.42712652E+00  2.59761588E+00  1.38965002E+00
  1.42712652E+00  2.59761588E+00  1.38965002E+00  1.91070895E+00  2.33971305E+00
 -1.94672330E+00  1.91070895E+00  2.33971305E+00 -1.94672330E+00 -2.99777343E+00
  2.33488627E+00  1.20015243E+00 -2.99777343E+00  2.33488627E+00  1.20015243E+00
 -3.02706610E+00  2.10988300E+00 -2.17003581E+00 -3.02706610E+00  2.10988300E+00
 -2.17003581E+00  5.58061679E+00 -3.73836293E-01 -3.58160217E+00  5.58061679E+00
 -3.73836293E-01 -3.58160217E+00  7.27115936E+00 -2.32128546E+00 -1.44955087E+00
  7.27115936E+00 -2.32128546E+00 -1.44955087E+00  4.11257737E+00 -3.06648224E+00
 -2.23309864E+00  4.11257737E+00 -3.06648224E+00 -2.23309864E+00  6.65745362E+00
  3.48035501E+00 -7.19931511E-01  6.65745362E+00  3.48035501E+00 -7.19931511E-01
  8.30049926E+00  1.41463664E+00  1.33630159E+00  8.30049926E+00  1.41463664E+00
  1.33630159E+00  5.85773786E+00  3.36414672E+00  2.53271747E+00  5.85773786E+00
  3.36414672E+00  2.53271747E+00 -5.75098871E+00 -1.75475144E+00 -1.85283838E+00
 -5.75098871E+00 -1.75475144E+00 -1.85283838E+00 -5.57556299E+00 -1.60928810E+00
  1.46644876E+00 -5.57556299E+00 -1.60928810E+00  1.46644876E+00 -7.85839181E+00
  2.56531546E+00  1.41344735E+00 -7.85839181E+00  2.56531546E+00  1.41344735E+00
 -8.01495212E+00  2.44282501E+00 -1.92563500E+00 -8.01495212E+00  2.44282501E+00
 -1.92563500E+00 -9.67455181E+00  1.96134072E-01 -8.85975721E-02 -9.67455181E+00
  1.96134072E-01 -8.85975721E-02
Constraint Structure                       R   N=          75
 -4.93902731E-01 -1.12064308E+00 -2.69245955E-01 -5.42483816E-01 -2.36201431E+00
  2.31722467E+00  4.53104118E+00  1.35489583E-01  3.48523976E-01  1.93914726E+00
  1.30501626E+00 -1.47803485E-01 -3.16400670E+00  1.03295974E+00 -4.03730384E-01
  5.41463855E+00 -1.50650503E+00 -1.85524927E+00  6.44477325E+00  2.22265184E+00
  9.11161594E-01 -5.62601707E+00 -4.51607494E-01 -2.46940290E-01 -7.92502065E+00
  1.28908189E+00 -2.11774319E-01  4.33638664E+00 -1.05598448E+00  2.03430664E+00
  1.42712652E+00  2.59761588E+00  1.38965002E+00  1.91070895E+00  2.33971305E+00
 -1.94672330E+00 -2.99777343E+00  2.33488627E+00  1.20015243E+00 -3.02706610E+00
  2.10988300E+00 -2.17003581E+00  5.58061679E+00 -3.73836293E-01 -3.58160217E+00
  7.27115936E+00 -2.32128546E+00 -1.44955087E+00  4.11257737E+00 -3.06648224E+00
 -2.23309864E+00  6.65745362E+00  3.48035501E+00 -7.19931511E-01  8.30049926E+00
  1.41463664E+00  1.33630159E+00  5.85773786E+00  3.36414672E+00  2.53271747E+00
 -5.75098871E+00 -1.75475144E+00 -1.85283838E+00 -5.57556299E+00 -1.60928810E+00
  1.46644876E+00 -7.85839181E+00  2.56531546E+00  1.41344735E+00 -8.01495212E+00
  2.44282501E+00 -1.92563500E+00 -9.67455181E+00  1.96134072E-01 -8.85975721E-02
Num ILSW                                   I              100
ILSW                                       I   N=         100
           0           1           0           0           2           0
           0           0           0           0           0          -1
           0           0           0           0           0           0
           0           0           0           0           1           0
           1           0           0           0           0           0
           0           0      100000           0          -1           0
           0           0           0           0           0           0
           0           0           0           1           1           0
           0           0           1           0           0           0
           0           0           4          40           0           0
           0           0           0           0           0           0
           0           0           0           0           0           0
           0           0           0           0           0           0
           0           0           0           0           0           0
           0           0           0           0           0           0
           0           0           0           0           0           0
           0           0           0           0
Num RLSW                                   I               40
RLSW                                       R   N=          40
  1.00000000E+00  1.00000000E+00  1.00000000E+00  1.00000000E+00  1.00000000E+00
  0.00000000E+00  0.00000000E+00  1.00000000E+00  0.00000000E+00  0.00000000E+00
  0.00000000E+00  0.00000000E+00  1.00000000E+00  0.00000000E+00  0.00000000E+00
  0.00000000E+00  0.00000000E+00  1.00000000E+00  0.00000000E+00  0.00000000E+00
  0.00000000E+00  0.00000000E+00  1.00000000E+00  0.00000000E+00  0.00000000E+00
  0.00000000E+00  0.00000000E+00  1.00000000E+00  0.00000000E+00  0.00000000E+00
  0.00000000E+00  0.00000000E+00  0.00000000E+00  0.00000000E+00  0.00000000E+00
  0.00000000E+00  0.00000000E+00  0.00000000E+00  1.00000000E+00  1.00000000E+00
MxBond                                     I                4
NBond                                      I   N=          25
           3           1           4           4           4           4
           4           4           4           1           1           1
           1           1           1           1           1           1
           1           1           1           1           1           1
           1
IBond                                      I   N=         100
           2           4           5           0           1           0
           0           0           4           6           7          10
           1           3          11          12           1           8
          13          14           3          15          16          17
           3          18          19          20           5           9
          21          22           8          23          24          25
           3           0           0           0           4           0
           0           0           4           0           0           0
           5           0           0           0           5           0
           0           0           6           0           0           0
           6           0           0           0           6           0
           0           0           7           0           0           0
           7           0           0           0           7           0
           0           0           8           0           0           0
           8           0           0           0           9           0
           0           0           9           0           0           0
           9           0           0           0
RBond                                      R   N=         100
  2.00000000E+00  1.00000000E+00  1.00000000E+00  0.00000000E+00  2.00000000E+00
  0.00000000E+00  0.00000000E+00  0.00000000E+00  1.00000000E+00  1.00000000E+00
  1.00000000E+00  1.00000000E+00  1.00000000E+00  1.00000000E+00  1.00000000E+00
  1.00000000E+00  1.00000000E+00  1.00000000E+00  1.00000000E+00  1.00000000E+00
  1.00000000E+00  1.00000000E+00  1.00000000E+00  1.00000000E+00  1.00000000E+00
  1.00000000E+00  1.00000000E+00  1.00000000E+00  1.00000000E+00  1.00000000E+00
  1.00000000E+00  1.00000000E+00  1.00000000E+00  1.00000000E+00  1.00000000E+00
  1.00000000E+00  1.00000000E+00  0.00000000E+00  0.00000000E+00  0.00000000E+00
  1.00000000E+00  0.00000000E+00  0.00000000E+00  0.00000000E+00  1.00000000E+00
  0.00000000E+00  0.00000000E+00  0.00000000E+00  1.00000000E+00  0.00000000E+00
  0.00000000E+00  0.00000000E+00  1.00000000E+00  0.00000000E+00  0.00000000E+00
  0.00000000E+00  1.00000000E+00  0.00000000E+00  0.00000000E+00  0.00000000E+00
  1.00000000E+00  0.00000000E+00  0.00000000E+00  0.00000000E+00  1.00000000E+00
  0.00000000E+00  0.00000000E+00  0.00000000E+00  1.00000000E+00  0.00000000E+00
  0.00000000E+00  0.00000000E+00  1.00000000E+00  0.00000000E+00  0.00000000E+00
  0.00000000E+00  1.00000000E+00  0.00000000E+00  0.00000000E+00  0.00000000E+00
  1.00000000E+00  0.00000000E+00  0.00000000E+00  0.00000000E+00  1.00000000E+00
  0.00000000E+00  0.00000000E+00  0.00000000E+00  1.00000000E+00  0.00000000E+00
  0.00000000E+00  0.00000000E+00  1.00000000E+00  0.00000000E+00  0.00000000E+00
  0.00000000E+00  1.00000000E+00  0.00000000E+00  0.00000000E+00  0.00000000E+00
Virial Ratio                               R      2.001001750417068E+00
SCF Energy                                 R     -7.467111852798482E+02
MP2 Energy                                 R     -7.479500025773007E+02
Total Energy                               R     -7.479500025773007E+02
Post-SCF wavefunction norm                 R      1.684681376498625E+00
RMS Force                                  R      2.984219325653535E-07
RMS Density                                R      1.295127921949477E-09
External E-field                           R   N=          35
  0.00000000E+00  0.00000000E+00  0.00000000E+00  0.00000000E+00  0.00000000E+00