V008_13-Propanedithiol Gaussian SP Calculation on node58.bme.utexas.edu 
Freq      RMP2-FC                                                     6-31G(d)            
Number of atoms                            I               13
Info1-9                                    I   N=           9
          24          23        1002           0           0         100
           6           2           1
Charge                                     I                0
Multiplicity                               I                1
Number of electrons                        I               58
Number of alpha electrons                  I               29
Number of beta electrons                   I               29
Number of basis functions                  I               99
Number of independent functions            I               99
Number of point charges in /Mol/           I                0
Number of translation vectors              I                0
Atomic numbers                             I   N=          13
          16          16           6           6           6           1
           1           1           1           1           1           1
           1
Nuclear charges                            R   N=          13
  1.60000000E+01  1.60000000E+01  6.00000000E+00  6.00000000E+00  6.00000000E+00
  1.00000000E+00  1.00000000E+00  1.00000000E+00  1.00000000E+00  1.00000000E+00
  1.00000000E+00  1.00000000E+00  1.00000000E+00
Current cartesian coordinates              R   N=          39
 -5.15597881E+00 -7.33970436E-01 -3.98916586E-02  5.28711472E+00 -5.13218180E-01
 -1.49342173E-01 -8.80945431E-03 -3.19718927E-01 -2.80062346E-02 -2.38341702E+00
  1.31210800E+00  6.01605194E-02  2.37169099E+00  1.29836910E+00  8.03912138E-02
 -2.33938763E-02 -1.64411929E+00  1.56483626E+00  9.26751739E-03 -1.45286479E+00
 -1.75850562E+00 -2.40814212E+00  2.43364550E+00  1.79589404E+00 -2.40988142E+00
  2.60240892E+00 -1.55393621E+00  2.40126194E+00  2.44541733E+00  1.79997850E+00
  2.42439070E+00  2.60008352E+00 -1.52575346E+00 -6.89071362E+00  1.11078631E+00
  7.82923924E-02  4.92224920E+00 -1.88488873E+00  1.95166243E+00
Force Field                                I                0
Int Atom Types                             I   N=          13
           0           0           0           0           0           0
           0           0           0           0           0           0
           0
MM charges                                 R   N=          13
  0.00000000E+00  0.00000000E+00  0.00000000E+00  0.00000000E+00  0.00000000E+00
  0.00000000E+00  0.00000000E+00  0.00000000E+00  0.00000000E+00  0.00000000E+00
  0.00000000E+00  0.00000000E+00  0.00000000E+00
Integer atomic weights                     I   N=          13
          32          32          12          12          12           1
           1           1           1           1           1           1
           1
Real atomic weights                        R   N=          13
  3.19720718E+01  3.19720718E+01  1.20000000E+01  1.20000000E+01  1.20000000E+01
  1.00782504E+00  1.00782504E+00  1.00782504E+00  1.00782504E+00  1.00782504E+00
  1.00782504E+00  1.00782504E+00  1.00782504E+00
Atom fragment info                         I   N=          13
           0           0           0           0           0           0
           0           0           0           0           0           0
           0
Atom residue num                           I   N=          13
           0           0           0           0           0           0
           0           0           0           0           0           0
           0
Nuclear spins                              I   N=          13
           0           0           0           0           0           1
           1           1           1           1           1           1
           1
Nuclear ZEff                               R   N=          13
 -1.36000000E+01 -1.36000000E+01 -3.60000000E+00 -3.60000000E+00 -3.60000000E+00
 -1.00000000E+00 -1.00000000E+00 -1.00000000E+00 -1.00000000E+00 -1.00000000E+00
 -1.00000000E+00 -1.00000000E+00 -1.00000000E+00
Nuclear QMom                               R   N=          13
  0.00000000E+00  0.00000000E+00  0.00000000E+00  0.00000000E+00  0.00000000E+00
  0.00000000E+00  0.00000000E+00  0.00000000E+00  0.00000000E+00  0.00000000E+00
  0.00000000E+00  0.00000000E+00  0.00000000E+00
Nuclear GFac                               R   N=          13
  0.00000000E+00  0.00000000E+00  0.00000000E+00  0.00000000E+00  0.00000000E+00
  2.79284600E+00  2.79284600E+00  2.79284600E+00  2.79284600E+00  2.79284600E+00
  2.79284600E+00  2.79284600E+00  2.79284600E+00
MicOpt                                     I   N=          13
          -1          -1          -1          -1          -1          -1
          -1          -1          -1          -1          -1          -1
          -1
Number of contracted shells                I               38
Number of primitive shells                 I               99
Pure/Cartesian d shells                    I                1
Pure/Cartesian f shells                    I                0
Highest angular momentum                   I                2
Largest degree of contraction              I                6
Shell types                                I   N=          38
           0          -1          -1          -1           2           0
          -1          -1          -1           2           0          -1
          -1           2           0          -1          -1           2
           0          -1          -1           2           0           0
           0           0           0           0           0           0
           0           0           0           0           0           0
           0           0
Number of primitives per shell             I   N=          38
           6           6           3           1           1           6
           6           3           1           1           6           3
           1           1           6           3           1           1
           6           3           1           1           3           1
           3           1           3           1           3           1
           3           1           3           1           3           1
           3           1
Shell to atom map                          I   N=          38
           1           1           1           1           1           2
           2           2           2           2           3           3
           3           3           4           4           4           4
           5           5           5           5           6           6
           7           7           8           8           9           9
          10          10          11          11          12          12
          13          13
Primitive exponents                        R   N=          99
  2.19171000E+04  3.30149000E+03  7.54146000E+02  2.12711000E+02  6.79896000E+01
  2.30515000E+01  4.23735000E+02  1.00710000E+02  3.21599000E+01  1.18079000E+01
  4.63110000E+00  1.87025000E+00  2.61584000E+00  9.22167000E-01  3.41287000E-01
  1.17167000E-01  6.50000000E-01  2.19171000E+04  3.30149000E+03  7.54146000E+02
  2.12711000E+02  6.79896000E+01  2.30515000E+01  4.23735000E+02  1.00710000E+02
  3.21599000E+01  1.18079000E+01  4.63110000E+00  1.87025000E+00  2.61584000E+00
  9.22167000E-01  3.41287000E-01  1.17167000E-01  6.50000000E-01  3.04752488E+03
  4.57369518E+02  1.03948685E+02  2.92101553E+01  9.28666296E+00  3.16392696E+00
  7.86827235E+00  1.88128854E+00  5.44249258E-01  1.68714478E-01  8.00000000E-01
  3.04752488E+03  4.57369518E+02  1.03948685E+02  2.92101553E+01  9.28666296E+00
  3.16392696E+00  7.86827235E+00  1.88128854E+00  5.44249258E-01  1.68714478E-01
  8.00000000E-01  3.04752488E+03  4.57369518E+02  1.03948685E+02  2.92101553E+01
  9.28666296E+00  3.16392696E+00  7.86827235E+00  1.88128854E+00  5.44249258E-01
  1.68714478E-01  8.00000000E-01  1.87311370E+01  2.82539436E+00  6.40121692E-01
  1.61277759E-01  1.87311370E+01  2.82539436E+00  6.40121692E-01  1.61277759E-01
  1.87311370E+01  2.82539436E+00  6.40121692E-01  1.61277759E-01  1.87311370E+01
  2.82539436E+00  6.40121692E-01  1.61277759E-01  1.87311370E+01  2.82539436E+00
  6.40121692E-01  1.61277759E-01  1.87311370E+01  2.82539436E+00  6.40121692E-01
  1.61277759E-01  1.87311370E+01  2.82539436E+00  6.40121692E-01  1.61277759E-01
  1.87311370E+01  2.82539436E+00  6.40121692E-01  1.61277759E-01
Contraction coefficients                   R   N=          99
  1.86924085E-03  1.42303065E-02  6.96962317E-02  2.38487108E-01  4.83307220E-01
  3.38074154E-01 -2.37677050E-03 -3.16930067E-02 -1.13317024E-01  5.60900118E-02
  5.92255124E-01  4.55006095E-01 -2.50373114E-01  6.69567631E-02  1.05450627E+00
  1.00000000E+00  1.00000000E+00  1.86924085E-03  1.42303065E-02  6.96962317E-02
  2.38487108E-01  4.83307220E-01  3.38074154E-01 -2.37677050E-03 -3.16930067E-02
 -1.13317024E-01  5.60900118E-02  5.92255124E-01  4.55006095E-01 -2.50373114E-01
  6.69567631E-02  1.05450627E+00  1.00000000E+00  1.00000000E+00  1.83473713E-03
  1.40373228E-02  6.88426223E-02  2.32184443E-01  4.67941348E-01  3.62311985E-01
 -1.19332420E-01 -1.60854152E-01  1.14345644E+00  1.00000000E+00  1.00000000E+00
  1.83473713E-03  1.40373228E-02  6.88426223E-02  2.32184443E-01  4.67941348E-01
  3.62311985E-01 -1.19332420E-01 -1.60854152E-01  1.14345644E+00  1.00000000E+00
  1.00000000E+00  1.83473713E-03  1.40373228E-02  6.88426223E-02  2.32184443E-01
  4.67941348E-01  3.62311985E-01 -1.19332420E-01 -1.60854152E-01  1.14345644E+00
  1.00000000E+00  1.00000000E+00  3.34946043E-02  2.34726953E-01  8.13757326E-01
  1.00000000E+00  3.34946043E-02  2.34726953E-01  8.13757326E-01  1.00000000E+00
  3.34946043E-02  2.34726953E-01  8.13757326E-01  1.00000000E+00  3.34946043E-02
  2.34726953E-01  8.13757326E-01  1.00000000E+00  3.34946043E-02  2.34726953E-01
  8.13757326E-01  1.00000000E+00  3.34946043E-02  2.34726953E-01  8.13757326E-01
  1.00000000E+00  3.34946043E-02  2.34726953E-01  8.13757326E-01  1.00000000E+00
  3.34946043E-02  2.34726953E-01  8.13757326E-01  1.00000000E+00
P(S=P) Contraction coefficients            R   N=          99
  0.00000000E+00  0.00000000E+00  0.00000000E+00  0.00000000E+00  0.00000000E+00
  0.00000000E+00  4.06100998E-03  3.06812999E-02  1.30451999E-01  3.27204999E-01
  4.52850998E-01  2.56041999E-01 -1.45104895E-02  3.10262776E-01  7.54482456E-01
  1.00000000E+00  0.00000000E+00  0.00000000E+00  0.00000000E+00  0.00000000E+00
  0.00000000E+00  0.00000000E+00  0.00000000E+00  4.06100998E-03  3.06812999E-02
  1.30451999E-01  3.27204999E-01  4.52850998E-01  2.56041999E-01 -1.45104895E-02
  3.10262776E-01  7.54482456E-01  1.00000000E+00  0.00000000E+00  0.00000000E+00
  0.00000000E+00  0.00000000E+00  0.00000000E+00  0.00000000E+00  0.00000000E+00
  6.89990666E-02  3.16423961E-01  7.44308291E-01  1.00000000E+00  0.00000000E+00
  0.00000000E+00  0.00000000E+00  0.00000000E+00  0.00000000E+00  0.00000000E+00
  0.00000000E+00  6.89990666E-02  3.16423961E-01  7.44308291E-01  1.00000000E+00
  0.00000000E+00  0.00000000E+00  0.00000000E+00  0.00000000E+00  0.00000000E+00
  0.00000000E+00  0.00000000E+00  6.89990666E-02  3.16423961E-01  7.44308291E-01
  1.00000000E+00  0.00000000E+00  0.00000000E+00  0.00000000E+00  0.00000000E+00
  0.00000000E+00  0.00000000E+00  0.00000000E+00  0.00000000E+00  0.00000000E+00
  0.00000000E+00  0.00000000E+00  0.00000000E+00  0.00000000E+00  0.00000000E+00
  0.00000000E+00  0.00000000E+00  0.00000000E+00  0.00000000E+00  0.00000000E+00
  0.00000000E+00  0.00000000E+00  0.00000000E+00  0.00000000E+00  0.00000000E+00
  0.00000000E+00  0.00000000E+00  0.00000000E+00  0.00000000E+00  0.00000000E+00
  0.00000000E+00  0.00000000E+00  0.00000000E+00  0.00000000E+00
Coordinates of each shell                  R   N=         114
 -5.15597881E+00 -7.33970436E-01 -3.98916586E-02 -5.15597881E+00 -7.33970436E-01
 -3.98916586E-02 -5.15597881E+00 -7.33970436E-01 -3.98916586E-02 -5.15597881E+00
 -7.33970436E-01 -3.98916586E-02 -5.15597881E+00 -7.33970436E-01 -3.98916586E-02
  5.28711472E+00 -5.13218180E-01 -1.49342173E-01  5.28711472E+00 -5.13218180E-01
 -1.49342173E-01  5.28711472E+00 -5.13218180E-01 -1.49342173E-01  5.28711472E+00
 -5.13218180E-01 -1.49342173E-01  5.28711472E+00 -5.13218180E-01 -1.49342173E-01
 -8.80945431E-03 -3.19718927E-01 -2.80062346E-02 -8.80945431E-03 -3.19718927E-01
 -2.80062346E-02 -8.80945431E-03 -3.19718927E-01 -2.80062346E-02 -8.80945431E-03
 -3.19718927E-01 -2.80062346E-02 -2.38341702E+00  1.31210800E+00  6.01605194E-02
 -2.38341702E+00  1.31210800E+00  6.01605194E-02 -2.38341702E+00  1.31210800E+00
  6.01605194E-02 -2.38341702E+00  1.31210800E+00  6.01605194E-02  2.37169099E+00
  1.29836910E+00  8.03912138E-02  2.37169099E+00  1.29836910E+00  8.03912138E-02
  2.37169099E+00  1.29836910E+00  8.03912138E-02  2.37169099E+00  1.29836910E+00
  8.03912138E-02 -2.33938763E-02 -1.64411929E+00  1.56483626E+00 -2.33938763E-02
 -1.64411929E+00  1.56483626E+00  9.26751739E-03 -1.45286479E+00 -1.75850562E+00
  9.26751739E-03 -1.45286479E+00 -1.75850562E+00 -2.40814212E+00  2.43364550E+00
  1.79589404E+00 -2.40814212E+00  2.43364550E+00  1.79589404E+00 -2.40988142E+00
  2.60240892E+00 -1.55393621E+00 -2.40988142E+00  2.60240892E+00 -1.55393621E+00
  2.40126194E+00  2.44541733E+00  1.79997850E+00  2.40126194E+00  2.44541733E+00
  1.79997850E+00  2.42439070E+00  2.60008352E+00 -1.52575346E+00  2.42439070E+00
  2.60008352E+00 -1.52575346E+00 -6.89071362E+00  1.11078631E+00  7.82923924E-02
 -6.89071362E+00  1.11078631E+00  7.82923924E-02  4.92224920E+00 -1.88488873E+00
  1.95166243E+00  4.92224920E+00 -1.88488873E+00  1.95166243E+00
Constraint Structure                       R   N=          39
 -5.15597881E+00 -7.33970436E-01 -3.98916586E-02  5.28711472E+00 -5.13218180E-01
 -1.49342173E-01 -8.80945431E-03 -3.19718927E-01 -2.80062346E-02 -2.38341702E+00
  1.31210800E+00  6.01605194E-02  2.37169099E+00  1.29836910E+00  8.03912138E-02
 -2.33938763E-02 -1.64411929E+00  1.56483626E+00  9.26751739E-03 -1.45286479E+00
 -1.75850562E+00 -2.40814212E+00  2.43364550E+00  1.79589404E+00 -2.40988142E+00
  2.60240892E+00 -1.55393621E+00  2.40126194E+00  2.44541733E+00  1.79997850E+00
  2.42439070E+00  2.60008352E+00 -1.52575346E+00 -6.89071362E+00  1.11078631E+00
  7.82923924E-02  4.92224920E+00 -1.88488873E+00  1.95166243E+00
Num ILSW                                   I              100
ILSW                                       I   N=         100
           0           1           0           0           2           0
           0           0           0           0           0          -1
           0           0           0           0           0           0
           0           0           0           0           1           0
           1           0           0           0           0           0
           0           0      100000           0          -1           0
           0           0           0           0           0           0
           0           0           0           1           1           0
           0           0           1           0           0           0
           0           0           4          40           0           0
           0           0           0           0           0           0
           0           0           0           0           0           0
           0           0           0           0           0           0
           0           0           0           0           0           0
           0           0           0           0           0           0
           0           0           0           0           0           0
           0           0           0           0
Num RLSW                                   I               40
RLSW                                       R   N=          40
  1.00000000E+00  1.00000000E+00  1.00000000E+00  1.00000000E+00  1.00000000E+00
  0.00000000E+00  0.00000000E+00  1.00000000E+00  0.00000000E+00  0.00000000E+00
  0.00000000E+00  0.00000000E+00  1.00000000E+00  0.00000000E+00  0.00000000E+00
  0.00000000E+00  0.00000000E+00  1.00000000E+00  0.00000000E+00  0.00000000E+00
  0.00000000E+00  0.00000000E+00  1.00000000E+00  0.00000000E+00  0.00000000E+00
  0.00000000E+00  0.00000000E+00  1.00000000E+00  0.00000000E+00  0.00000000E+00
  0.00000000E+00  0.00000000E+00  0.00000000E+00  0.00000000E+00  0.00000000E+00
  0.00000000E+00  0.00000000E+00  0.00000000E+00  1.00000000E+00  1.00000000E+00
MxBond                                     I                4
NBond                                      I   N=          13
           2           2           4           4           4           1
           1           1           1           1           1           1
           1
IBond                                      I   N=          52
           4          12           0           0           5          13
           0           0           4           5           6           7
           1           3           8           9           2           3
          10          11           3           0           0           0
           3           0           0           0           4           0
           0           0           4           0           0           0
           5           0           0           0           5           0
           0           0           1           0           0           0
           2           0           0           0
RBond                                      R   N=          52
  1.00000000E+00  1.00000000E+00  0.00000000E+00  0.00000000E+00  1.00000000E+00
  1.00000000E+00  0.00000000E+00  0.00000000E+00  1.00000000E+00  1.00000000E+00
  1.00000000E+00  1.00000000E+00  1.00000000E+00  1.00000000E+00  1.00000000E+00
  1.00000000E+00  1.00000000E+00  1.00000000E+00  1.00000000E+00  1.00000000E+00
  1.00000000E+00  0.00000000E+00  0.00000000E+00  0.00000000E+00  1.00000000E+00
  0.00000000E+00  0.00000000E+00  0.00000000E+00  1.00000000E+00  0.00000000E+00
  0.00000000E+00  0.00000000E+00  1.00000000E+00  0.00000000E+00  0.00000000E+00
  0.00000000E+00  1.00000000E+00  0.00000000E+00  0.00000000E+00  0.00000000E+00
  1.00000000E+00  0.00000000E+00  0.00000000E+00  0.00000000E+00  1.00000000E+00
  0.00000000E+00  0.00000000E+00  0.00000000E+00  1.00000000E+00  0.00000000E+00
  0.00000000E+00  0.00000000E+00
Virial Ratio                               R      2.000448040763649E+00
SCF Energy                                 R     -9.132760834734460E+02
MP2 Energy                                 R     -9.139109816900456E+02
Total Energy                               R     -9.139109816900456E+02
Post-SCF wavefunction norm                 R      1.572677785715987E+00
RMS Force                                  R      3.961510707652629E-07
RMS Density                                R      1.377108461246390E-09
External E-field                           R   N=          35
  0.00000000E+00  0.00000000E+00  0.00000000E+00  0.00000000E+00  0.00000000E+00
  0.00000000E+00  0.00000000E+00  0.00000000E+00  0.00000000E+00  0.00000000E+00
  0.00000000E+00  0.00000000E+00  0.00000000E+00  0.00000000E+00  0.00000000E+00
  0.00000000E+00  0.00000000E+00  0.00000000E+00  0.00000000E+00  0.00000000E+00
  0.00000000E+00  0.00000000E+00  0.00000000E+00  0.00000000E+00  0.00000000E+00
  0.00000000E+00  0.00000000E+00  0.00000000E+00  0.00000000E+00  0.00000000E+00
  0.00000000E+00  0.00000000E+00  0.00000000E+00  0.00000000E+00  0.00000000E+00
IOpCl                                      I                0
IROHF                                      I                0
Alpha Orbital Energies                     R   N=          99
 -9.19430313E+01 -9.19429077E+01 -1.12718896E+01 -1.12712340E+01 -1.12462874E+01
 -8.95493899E+00 -8.95480834E+00 -6.63804120E+00 -6.63791381E+00 -6.63642531E+00
 -6.63628268E+00 -6.63410499E+00 -6.63401242E+00 -1.11199154E+00 -1.03964629E+00
 -9.48448071E-01 -8.52533531E-01 -8.15274398E-01 -6.71739496E-01 -6.13535040E-01
 -5.97721639E-01 -5.67913990E-01 -5.28269416E-01 -5.18693642E-01 -5.00071523E-01
 -4.61088369E-01 -4.47145370E-01 -3.61218750E-01 -3.58781729E-01  1.60693836E-01
  1.76571665E-01  2.15438364E-01  2.38627696E-01  2.46372102E-01  2.58671572E-01
  2.88520043E-01  2.96979588E-01  3.11498298E-01  3.29124943E-01  3.74229223E-01
  3.91870159E-01  5.16370162E-01  5.26177052E-01  5.30859039E-01  5.40585344E-01
  5.48032704E-01  5.62192354E-01  5.69497399E-01  6.16209146E-01  7.18867952E-01
  7.21959121E-01  7.30421317E-01  7.66974324E-01  8.40300318E-01  8.94642440E-01
  9.02805773E-01  9.14999629E-01  9.68054641E-01  9.72218727E-01  1.03520752E+00
  1.05122904E+00  1.10225453E+00  1.10808700E+00  1.14296421E+00  1.15058318E+00
  1.15975933E+00  1.16662322E+00  1.17354558E+00  1.18139625E+00  1.20388881E+00
  1.21522763E+00  1.22657697E+00  1.32128376E+00  1.37943916E+00  1.45043246E+00
  1.46518315E+00  1.46983060E+00  1.64830895E+00  1.75038859E+00  1.80152182E+00
  1.89272732E+00  2.04303005E+00  2.17949916E+00  2.23625743E+00  2.25829895E+00
  2.33891473E+00  2.37477237E+00  2.47862238E+00  2.54886314E+00  2.65128560E+00
  2.69340462E+00  2.70818708E+00  2.91684250E+00  3.03627897E+00  4.31160040E+00
  4.33007270E+00  4.55822302E+00  4.68305206E+00  4.87633184E+00
Alpha MO coefficients                      R   N=        9801
  9.96251044E-01  1.42552171E-02  1.75753837E-05  8.46983226E-05  4.94796249E-06
 -1.99677317E-02 -7.57801254E-05 -1.04011437E-04 -6.02230384E-06  2.81856802E-03
  5.87170124E-05  2.52397816E-04  1.51056307E-05  6.88935806E-03  6.89412978E-03
  6.88348008E-03 -3.09288694E-06 -1.33135990E-07  6.43229096E-07  2.77763879E-03
  4.21622212E-05 -9.17139841E-07 -1.57065828E-06 -2.16215000E-07 -5.89817493E-05
  9.11785547E-07  8.40180365E-06  1.90960274E-06  3.87562997E-06 -3.03091990E-08
  1.07362046E-05 -7.55238455E-06  2.00974623E-05  2.84022821E-05  2.42291311E-05
 -5.69569247E-06  1.04895940E-07  1.48614357E-06 -3.92238728E-06  2.27119989E-05
  1.63235961E-05  2.07681234E-06  2.88676057E-07 -1.07896650E-04  1.91745081E-04
 -1.58912372E-04 -9.05833548E-06 -4.12783110E-05 -2.71619109E-05 -1.81577777E-05
  1.07492990E-05  4.66077687E-07 -9.08320907E-07 -1.50402541E-05 -4.42118986E-06
 -7.72408738E-05 -5.91807314E-05 -2.96935395E-06  4.42769297E-04  1.79412127E-04
  6.29870505E-06  4.37857944E-07 -2.97434257E-05 -2.34473916E-05 -4.07550049E-05
 -2.22642685E-05 -1.24980819E-06  1.03637830E-06  2.33461116E-07  1.06297699E-06
  1.00498237E-05  8.12224717E-06  3.14473595E-07 -5.73741947E-05 -4.85209882E-05
 -1.08169233E-05  1.51632956E-06  5.98399487E-06 -7.22958054E-06  2.41346499E-06
  6.69786661E-06  6.60408805E-07 -4.96247671E-07  2.11540572E-05 -1.56745427E-04
  2.09508630E-05 -1.53621291E-04 -2.11133938E-05 -2.27855464E-04 -2.12401448E-05
 -2.26559584E-04 -7.43097868E-06  4.06546334E-05 -6.33733256E-06  3.96880909E-05
  1.48937431E-04 -3.49688954E-04 -1.60182380E-06  1.37395645E-05 -2.77792773E-03
 -3.71685551E-05  4.09750745E-07 -1.89886474E-06 -6.85398280E-07  5.31879898E-05
  2.60461184E-06  9.38638104E-06  3.53373703E-06  2.54122336E-06 -1.17500573E-05
  1.46596593E-05 -8.34913782E-07 -2.05602243E-05 -8.70912891E-06 -1.28194299E-05
  6.09104034E-06  1.11435861E-06  1.28929669E-06  9.96250429E-01  1.42500044E-02
 -7.42870476E-05  2.12834588E-06  5.57272893E-05 -1.99898077E-02  1.46436720E-04
 -2.17825867E-05 -5.77116915E-05  2.91556378E-03 -2.62637288E-04 -3.46694174E-05
  2.27575968E-04  6.87372707E-03  6.88308678E-03  6.88091393E-03  9.09634604E-07
 -6.00890080E-06 -8.22865193E-06  4.20444985E-06  5.93310513E-05  3.26980900E-07
 -7.59959301E-06 -3.16457171E-06 -2.73071502E-04 -3.67612189E-04 -9.25359856E-05
  1.42971691E-05 -3.91791156E-05 -6.63830235E-06 -7.07277556E-06 -1.75329446E-05
  5.91192272E-07 -7.12896282E-07  2.53860041E-06  1.12470205E-05 -1.10227180E-05
  6.50524213E-06  3.74904103E-06 -1.60530149E-04  1.06777495E-05  3.32404649E-05
 -2.25797830E-05  6.47757637E-06 -5.37693654E-06  7.92521707E-06 -2.71362614E-06
 -1.28159720E-06 -7.28817480E-07 -1.76235114E-05 -1.62660291E-05  7.40525032E-05
 -4.74991525E-05 -3.44524468E-06  5.44441077E-04 -2.06195243E-04 -5.52928325E-05
 -4.73513077E-05 -3.66541122E-05 -2.19183017E-05 -4.54311134E-05  2.96910254E-05
 -1.14222305E-06 -2.15979352E-06  2.43315210E-05 -8.43032505E-05  4.73694913E-05
 -1.25892983E-04 -3.58111448E-06  5.06139046E-05 -4.86926277E-06  2.14772150E-05
 -1.53909205E-05 -2.17182753E-04 -3.73991467E-05 -2.06116357E-04 -3.79056367E-07
 -1.14022107E-05  1.48956165E-04 -4.37289951E-04 -4.90859407E-07 -1.57243566E-05
 -6.44978317E-06 -2.80400997E-06 -3.89576271E-07 -4.78285789E-05  2.85875111E-05
  1.80114560E-05  2.33338772E-06  3.80855177E-04  2.52447254E-04  6.25226080E-05
 -2.26787078E-06  2.99523897E-05 -3.03457997E-05 -3.84207589E-05  1.05010830E-05
 -3.24712645E-07  7.79244143E-09  3.05972176E-06 -1.67916532E-05  5.41484245E-05
 -3.06224628E-05 -2.33801121E-06  4.27909095E-04 -5.00912107E-04  2.93856570E-04
  2.21890248E-05  2.34714588E-03 -1.24923876E-03  5.33392293E-04  2.88926056E-04
 -8.41854841E-05 -1.59623518E-04 -8.65257930E-05 -2.00192286E-06 -1.71544323E-05
 -3.56781167E-05  1.16190998E-02  3.84640924E-04  4.12551315E-05 -2.18141756E-05
  2.55749725E-06  3.52344566E-03  1.55145155E-03  9.03406020E-04 -3.09513693E-06
 -3.66909171E-04 -2.86196684E-04 -1.31329038E-04 -1.74125246E-04 -1.64818330E-05
 -1.36174200E-05 -2.04992652E-03 -2.33734862E-04 -1.03338110E-04 -3.70188536E-05
 -1.15478239E-06  4.69221742E-04  3.29579659E-04  3.46206114E-04  2.74891349E-05
 -9.59935180E-06 -3.43542928E-05 -6.87491304E-05  1.65629305E-05  3.42030216E-06
  2.03096100E-06  9.95790310E-01  2.81157302E-02  3.23336617E-04 -2.36118646E-04
 -7.16960052E-05 -1.52724292E-02  2.19960899E-04  6.02733013E-04  2.03269953E-04
 -1.77523124E-03 -1.67079826E-03 -1.53647845E-03  1.26823103E-04 -3.66735616E-09
 -7.63026527E-06 -1.13935806E-04 -1.75321296E-05 -1.08535011E-04 -1.01488565E-04
 -4.01762899E-05 -2.95561428E-04 -3.65946727E-05 -2.98166154E-04  1.81780722E-04
  2.34696196E-03  1.93686952E-04  2.49743237E-03 -1.44866392E-05  2.48707218E-05
 -1.08604033E-04 -2.52934773E-04  2.51518193E-06 -1.99810696E-05 -5.91747090E-05
 -3.26218213E-05 -1.61951365E-06  3.93944357E-04  5.32241626E-04  3.11217227E-04
  1.53612214E-05  2.57817134E-03  9.11576954E-04  1.10521988E-03  5.82708016E-05
 -6.14606689E-05 -1.13802620E-04 -1.42458185E-04 -6.27734977E-06 -7.13156466E-07
  2.58519584E-06 -1.39387024E-06 -2.28221761E-05  5.76798000E-06 -2.07400030E-06
  2.28936313E-07 -8.27859784E-05 -2.05643431E-05  1.69715027E-05 -3.78412254E-06
  5.64009835E-04 -3.15169975E-04  2.79869692E-05  9.28664487E-05  1.74314123E-05
 -4.52991225E-05 -4.27709678E-05 -9.06827050E-06 -9.13328181E-06 -1.22379598E-05
  1.19596424E-02  3.59017285E-04 -4.17481838E-05 -1.31768362E-05 -1.65004688E-06
  3.83379448E-03 -1.71926835E-03  9.29854021E-04  5.79690210E-05 -3.72212521E-04
 -3.02573592E-04 -1.40855746E-04  1.67991660E-04  8.14871005E-06 -1.02470436E-05
  9.95795261E-01  2.81692287E-02 -2.98144212E-04 -3.13590585E-04 -1.07426952E-05
 -1.55530009E-02 -3.33712995E-04  9.03988495E-04  3.73295585E-05 -1.77745807E-03
 -1.66169065E-03 -1.51800750E-03 -1.26413581E-04 -7.13690516E-06 -8.00376340E-06
  1.84340661E-03 -1.19403386E-04  1.07952432E-04 -3.60282539E-05 -1.67861339E-06
  3.73653541E-04 -3.66745043E-04  3.32320959E-04  1.35821449E-05 -1.86631004E-05
 -3.37885261E-05 -7.89594928E-05 -1.43278704E-05 -1.35164581E-06  3.36795744E-06
 -1.34470847E-04 -6.82781737E-05 -1.27792863E-04 -7.62350079E-05  1.92390584E-04
  2.36473804E-03  1.93471006E-04  2.35368128E-03 -3.23551378E-05 -2.91232955E-04
 -3.64225562E-05 -2.76733065E-04 -7.54383208E-05 -4.71724304E-04 -2.26531073E-05
 -1.14174984E-04  4.64750014E-07 -1.48024788E-05  1.15271755E-05  1.28277789E-05
  1.50090420E-07  7.05770076E-06 -1.32337030E-04 -8.02848883E-05 -9.72217242E-07
 -3.18964257E-04  2.84781261E-05 -8.77407316E-05 -1.16283383E-05 -3.20865978E-05
 -2.79746793E-05 -6.68980668E-05 -6.24120613E-05 -3.67481717E-06  2.78610158E-06
 -6.48636404E-07 -3.13717216E-05 -1.69438721E-05  6.43149506E-06  2.42090673E-06
 -4.09713521E-05  1.45395113E-04 -4.29866770E-05 -2.02677324E-05  2.57237308E-04
 -4.19422899E-05  3.17220614E-05  1.73103575E-04 -1.00763364E-04 -2.75701770E-05
 -9.44764958E-05  3.83295701E-05 -7.16714583E-06 -8.54629026E-06  9.95720544E-01
  2.85654845E-02 -4.48380711E-05  2.28575551E-04  4.92773041E-05 -1.76720896E-02
  2.04364612E-05 -1.20270578E-03 -1.01039632E-04 -1.63845113E-03 -1.61851582E-03
 -1.54699937E-03 -7.40481480E-08 -6.11153529E-07 -3.43234987E-07 -1.22531821E-02
 -2.87751004E-04  9.42189616E-05  2.56600422E-05  3.06207623E-06  4.55433278E-03
  1.61917775E-03 -1.23039384E-03 -7.31561427E-05 -3.70462654E-04 -2.67153331E-04
 -8.98835831E-05  2.10252604E-04  1.05833536E-05 -1.05792019E-05 -1.19481975E-02
 -2.70341100E-04 -8.01104302E-05  1.29203731E-05  1.44451135E-06  4.39837854E-03
 -1.77108556E-03 -1.13289270E-03 -9.55463698E-05 -3.56781743E-04 -2.56169024E-04
 -8.47558696E-05 -1.93079909E-04 -1.80200916E-05 -1.32425145E-05  2.42538264E-04
  2.66377183E-03  2.59828703E-04  2.61353498E-03 -1.55646063E-04  3.54656256E-05
 -1.54688149E-04  1.95322669E-05 -1.46231630E-04 -1.65834170E-05 -1.59579195E-04
  1.33028939E-05 -2.29699968E-05  2.51597170E-04  1.55213518E-05 -2.69472423E-04
 -2.81771752E-01  1.03021342E+00  3.16376506E-04  6.05661453E-03  3.55971326E-04
  2.45345104E-02  4.51686410E-04  1.45110343E-03  8.42474021E-05 -7.71959318E-03
 -1.93535720E-04 -1.54584672E-03 -9.15521385E-05 -1.05479245E-03 -1.28892095E-03
 -1.69034358E-03  1.39342028E-05 -4.24144236E-06  2.68223710E-05  1.09124055E-03
 -4.00223186E-03  1.40238083E-05  6.48163251E-06 -1.51880270E-05 -1.14495867E-04
  3.73152373E-05 -3.60170265E-05 -1.02894469E-05  4.06186792E-05 -2.83988755E-05