819115                                                                  
Freq      RMP2-FC                                                     6-31G(d)            
Number of atoms                            I               16
Info1-9                                    I   N=           9
          28          26        1002           0           0         100
           6           2           1
Charge                                     I                0
Multiplicity                               I                1
Number of electrons                        I               66
Number of alpha electrons                  I               33
Number of beta electrons                   I               33
Number of basis functions                  I              149
Number of independent functions            I              149
Number of point charges in /Mol/           I                0
Number of translation vectors              I                0
Atomic numbers                             I   N=          16
           8           8           7           6           6           6
           6           6           6           1           1           1
           1           1           1           1
Nuclear charges                            R   N=          16
  8.00000000E+00  8.00000000E+00  7.00000000E+00  6.00000000E+00  6.00000000E+00
  6.00000000E+00  6.00000000E+00  6.00000000E+00  6.00000000E+00  1.00000000E+00
  1.00000000E+00  1.00000000E+00  1.00000000E+00  1.00000000E+00  1.00000000E+00
  1.00000000E+00
Current cartesian coordinates              R   N=          48
 -2.81389960E+00 -2.21088611E+00 -1.97746036E-02  3.37073995E+00  2.62485385E+00
 -4.05566691E-02  1.42233193E+00 -1.22809192E+00 -4.05438901E-02 -1.04940071E+00
 -3.29349900E-01 -1.13502295E-02 -2.15574524E+00  2.00654128E+00  1.98282095E-02
  3.52476296E+00  3.05749729E-01 -3.83112064E-02 -4.81818040E+00  1.52605226E+00
  3.31826993E-02 -5.13337615E+00 -1.02972676E+00  9.03727818E-03  6.01156800E+00
 -1.10209044E+00  5.69699145E-02  1.62193771E+00 -3.13200164E+00 -4.02830708E-02
 -1.17655081E+00  3.79197101E+00  2.90269481E-02 -6.31174371E+00  2.92091785E+00
  5.76067588E-02 -6.74634632E+00 -2.27688964E+00  8.54621747E-03  6.50788146E+00
 -1.50176717E+00  2.02416522E+00  7.46998967E+00  1.08017856E-01 -7.50003631E-01
  5.94601491E+00 -2.88840375E+00 -9.78741023E-01
Force Field                                I                0
Int Atom Types                             I   N=          16
           0           0           0           0           0           0
           0           0           0           0           0           0
           0           0           0           0
MM charges                                 R   N=          16
  0.00000000E+00  0.00000000E+00  0.00000000E+00  0.00000000E+00  0.00000000E+00
  0.00000000E+00  0.00000000E+00  0.00000000E+00  0.00000000E+00  0.00000000E+00
  0.00000000E+00  0.00000000E+00  0.00000000E+00  0.00000000E+00  0.00000000E+00
  0.00000000E+00
Integer atomic weights                     I   N=          16
          16          16          14          12          12          12
          12          12          12           1           1           1
           1           1           1           1
Real atomic weights                        R   N=          16
  1.59949146E+01  1.59949146E+01  1.40030740E+01  1.20000000E+01  1.20000000E+01
  1.20000000E+01  1.20000000E+01  1.20000000E+01  1.20000000E+01  1.00782504E+00
  1.00782504E+00  1.00782504E+00  1.00782504E+00  1.00782504E+00  1.00782504E+00
  1.00782504E+00
Atom fragment info                         I   N=          16
           0           0           0           0           0           0
           0           0           0           0           0           0
           0           0           0           0
Atom residue num                           I   N=          16
           0           0           0           0           0           0
           0           0           0           0           0           0
           0           0           0           0
Nuclear spins                              I   N=          16
           0           0           2           0           0           0
           0           0           0           1           1           1
           1           1           1           1
Nuclear ZEff                               R   N=          16
 -5.60000000E+00 -5.60000000E+00 -4.55000000E+00 -3.60000000E+00 -3.60000000E+00
 -3.60000000E+00 -3.60000000E+00 -3.60000000E+00 -3.60000000E+00 -1.00000000E+00
 -1.00000000E+00 -1.00000000E+00 -1.00000000E+00 -1.00000000E+00 -1.00000000E+00
 -1.00000000E+00
Nuclear QMom                               R   N=          16
  0.00000000E+00  0.00000000E+00  2.04400000E+00  0.00000000E+00  0.00000000E+00
  0.00000000E+00  0.00000000E+00  0.00000000E+00  0.00000000E+00  0.00000000E+00
  0.00000000E+00  0.00000000E+00  0.00000000E+00  0.00000000E+00  0.00000000E+00
  0.00000000E+00
Nuclear GFac                               R   N=          16
  0.00000000E+00  0.00000000E+00  4.03761000E-01  0.00000000E+00  0.00000000E+00
  0.00000000E+00  0.00000000E+00  0.00000000E+00  0.00000000E+00  2.79284600E+00
  2.79284600E+00  2.79284600E+00  2.79284600E+00  2.79284600E+00  2.79284600E+00
  2.79284600E+00
MicOpt                                     I   N=          16
          -1          -1          -1          -1          -1          -1
          -1          -1          -1          -1          -1          -1
          -1          -1          -1          -1
Number of contracted shells                I               50
Number of primitive shells                 I              127
Pure/Cartesian d shells                    I                1
Pure/Cartesian f shells                    I                0
Highest angular momentum                   I                2
Largest degree of contraction              I                6
Shell types                                I   N=          50
           0          -1          -1           2           0          -1
          -1           2           0          -1          -1           2
           0          -1          -1           2           0          -1
          -1           2           0          -1          -1           2
           0          -1          -1           2           0          -1
          -1           2           0          -1          -1           2
           0           0           0           0           0           0
           0           0           0           0           0           0
           0           0
Number of primitives per shell             I   N=          50
           6           3           1           1           6           3
           1           1           6           3           1           1
           6           3           1           1           6           3
           1           1           6           3           1           1
           6           3           1           1           6           3
           1           1           6           3           1           1
           3           1           3           1           3           1
           3           1           3           1           3           1
           3           1
Shell to atom map                          I   N=          50
           1           1           1           1           2           2
           2           2           3           3           3           3
           4           4           4           4           5           5
           5           5           6           6           6           6
           7           7           7           7           8           8
           8           8           9           9           9           9
          10          10          11          11          12          12
          13          13          14          14          15          15
          16          16
Primitive exponents                        R   N=         127
  5.48467166E+03  8.25234946E+02  1.88046958E+02  5.29645000E+01  1.68975704E+01
  5.79963534E+00  1.55396162E+01  3.59993359E+00  1.01376175E+00  2.70005823E-01
  8.00000000E-01  5.48467166E+03  8.25234946E+02  1.88046958E+02  5.29645000E+01
  1.68975704E+01  5.79963534E+00  1.55396162E+01  3.59993359E+00  1.01376175E+00
  2.70005823E-01  8.00000000E-01  4.17351146E+03  6.27457911E+02  1.42902093E+02
  4.02343293E+01  1.28202129E+01  4.39043701E+00  1.16263619E+01  2.71627981E+00
  7.72218397E-01  2.12031498E-01  8.00000000E-01  3.04752488E+03  4.57369518E+02
  1.03948685E+02  2.92101553E+01  9.28666296E+00  3.16392696E+00  7.86827235E+00
  1.88128854E+00  5.44249258E-01  1.68714478E-01  8.00000000E-01  3.04752488E+03
  4.57369518E+02  1.03948685E+02  2.92101553E+01  9.28666296E+00  3.16392696E+00
  7.86827235E+00  1.88128854E+00  5.44249258E-01  1.68714478E-01  8.00000000E-01
  3.04752488E+03  4.57369518E+02  1.03948685E+02  2.92101553E+01  9.28666296E+00
  3.16392696E+00  7.86827235E+00  1.88128854E+00  5.44249258E-01  1.68714478E-01
  8.00000000E-01  3.04752488E+03  4.57369518E+02  1.03948685E+02  2.92101553E+01
  9.28666296E+00  3.16392696E+00  7.86827235E+00  1.88128854E+00  5.44249258E-01
  1.68714478E-01  8.00000000E-01  3.04752488E+03  4.57369518E+02  1.03948685E+02
  2.92101553E+01  9.28666296E+00  3.16392696E+00  7.86827235E+00  1.88128854E+00
  5.44249258E-01  1.68714478E-01  8.00000000E-01  3.04752488E+03  4.57369518E+02
  1.03948685E+02  2.92101553E+01  9.28666296E+00  3.16392696E+00  7.86827235E+00
  1.88128854E+00  5.44249258E-01  1.68714478E-01  8.00000000E-01  1.87311370E+01
  2.82539436E+00  6.40121692E-01  1.61277759E-01  1.87311370E+01  2.82539436E+00
  6.40121692E-01  1.61277759E-01  1.87311370E+01  2.82539436E+00  6.40121692E-01
  1.61277759E-01  1.87311370E+01  2.82539436E+00  6.40121692E-01  1.61277759E-01
  1.87311370E+01  2.82539436E+00  6.40121692E-01  1.61277759E-01  1.87311370E+01
  2.82539436E+00  6.40121692E-01  1.61277759E-01  1.87311370E+01  2.82539436E+00
  6.40121692E-01  1.61277759E-01
Contraction coefficients                   R   N=         127
  1.83107443E-03  1.39501722E-02  6.84450781E-02  2.32714336E-01  4.70192898E-01
  3.58520853E-01 -1.10777550E-01 -1.48026263E-01  1.13076702E+00  1.00000000E+00
  1.00000000E+00  1.83107443E-03  1.39501722E-02  6.84450781E-02  2.32714336E-01
  4.70192898E-01  3.58520853E-01 -1.10777550E-01 -1.48026263E-01  1.13076702E+00
  1.00000000E+00  1.00000000E+00  1.83477216E-03  1.39946270E-02  6.85865518E-02
  2.32240873E-01  4.69069948E-01  3.60455199E-01 -1.14961182E-01 -1.69117479E-01
  1.14585195E+00  1.00000000E+00  1.00000000E+00  1.83473713E-03  1.40373228E-02
  6.88426223E-02  2.32184443E-01  4.67941348E-01  3.62311985E-01 -1.19332420E-01
 -1.60854152E-01  1.14345644E+00  1.00000000E+00  1.00000000E+00  1.83473713E-03
  1.40373228E-02  6.88426223E-02  2.32184443E-01  4.67941348E-01  3.62311985E-01
 -1.19332420E-01 -1.60854152E-01  1.14345644E+00  1.00000000E+00  1.00000000E+00
  1.83473713E-03  1.40373228E-02  6.88426223E-02  2.32184443E-01  4.67941348E-01
  3.62311985E-01 -1.19332420E-01 -1.60854152E-01  1.14345644E+00  1.00000000E+00
  1.00000000E+00  1.83473713E-03  1.40373228E-02  6.88426223E-02  2.32184443E-01
  4.67941348E-01  3.62311985E-01 -1.19332420E-01 -1.60854152E-01  1.14345644E+00
  1.00000000E+00  1.00000000E+00  1.83473713E-03  1.40373228E-02  6.88426223E-02
  2.32184443E-01  4.67941348E-01  3.62311985E-01 -1.19332420E-01 -1.60854152E-01
  1.14345644E+00  1.00000000E+00  1.00000000E+00  1.83473713E-03  1.40373228E-02
  6.88426223E-02  2.32184443E-01  4.67941348E-01  3.62311985E-01 -1.19332420E-01
 -1.60854152E-01  1.14345644E+00  1.00000000E+00  1.00000000E+00  3.34946043E-02
  2.34726953E-01  8.13757326E-01  1.00000000E+00  3.34946043E-02  2.34726953E-01
  8.13757326E-01  1.00000000E+00  3.34946043E-02  2.34726953E-01  8.13757326E-01
  1.00000000E+00  3.34946043E-02  2.34726953E-01  8.13757326E-01  1.00000000E+00
  3.34946043E-02  2.34726953E-01  8.13757326E-01  1.00000000E+00  3.34946043E-02
  2.34726953E-01  8.13757326E-01  1.00000000E+00  3.34946043E-02  2.34726953E-01
  8.13757326E-01  1.00000000E+00
P(S=P) Contraction coefficients            R   N=         127
  0.00000000E+00  0.00000000E+00  0.00000000E+00  0.00000000E+00  0.00000000E+00
  0.00000000E+00  7.08742682E-02  3.39752839E-01  7.27158577E-01  1.00000000E+00
  0.00000000E+00  0.00000000E+00  0.00000000E+00  0.00000000E+00  0.00000000E+00
  0.00000000E+00  0.00000000E+00  7.08742682E-02  3.39752839E-01  7.27158577E-01
  1.00000000E+00  0.00000000E+00  0.00000000E+00  0.00000000E+00  0.00000000E+00
  0.00000000E+00  0.00000000E+00  0.00000000E+00  6.75797439E-02  3.23907296E-01
  7.40895140E-01  1.00000000E+00  0.00000000E+00  0.00000000E+00  0.00000000E+00
  0.00000000E+00  0.00000000E+00  0.00000000E+00  0.00000000E+00  6.89990666E-02
  3.16423961E-01  7.44308291E-01  1.00000000E+00  0.00000000E+00  0.00000000E+00
  0.00000000E+00  0.00000000E+00  0.00000000E+00  0.00000000E+00  0.00000000E+00
  6.89990666E-02  3.16423961E-01  7.44308291E-01  1.00000000E+00  0.00000000E+00
  0.00000000E+00  0.00000000E+00  0.00000000E+00  0.00000000E+00  0.00000000E+00
  0.00000000E+00  6.89990666E-02  3.16423961E-01  7.44308291E-01  1.00000000E+00
  0.00000000E+00  0.00000000E+00  0.00000000E+00  0.00000000E+00  0.00000000E+00
  0.00000000E+00  0.00000000E+00  6.89990666E-02  3.16423961E-01  7.44308291E-01
  1.00000000E+00  0.00000000E+00  0.00000000E+00  0.00000000E+00  0.00000000E+00
  0.00000000E+00  0.00000000E+00  0.00000000E+00  6.89990666E-02  3.16423961E-01
  7.44308291E-01  1.00000000E+00  0.00000000E+00  0.00000000E+00  0.00000000E+00
  0.00000000E+00  0.00000000E+00  0.00000000E+00  0.00000000E+00  6.89990666E-02
  3.16423961E-01  7.44308291E-01  1.00000000E+00  0.00000000E+00  0.00000000E+00
  0.00000000E+00  0.00000000E+00  0.00000000E+00  0.00000000E+00  0.00000000E+00
  0.00000000E+00  0.00000000E+00  0.00000000E+00  0.00000000E+00  0.00000000E+00
  0.00000000E+00  0.00000000E+00  0.00000000E+00  0.00000000E+00  0.00000000E+00
  0.00000000E+00  0.00000000E+00  0.00000000E+00  0.00000000E+00  0.00000000E+00
  0.00000000E+00  0.00000000E+00  0.00000000E+00  0.00000000E+00  0.00000000E+00
  0.00000000E+00  0.00000000E+00
Coordinates of each shell                  R   N=         150
 -2.81389960E+00 -2.21088611E+00 -1.97746036E-02 -2.81389960E+00 -2.21088611E+00
 -1.97746036E-02 -2.81389960E+00 -2.21088611E+00 -1.97746036E-02 -2.81389960E+00
 -2.21088611E+00 -1.97746036E-02  3.37073995E+00  2.62485385E+00 -4.05566691E-02
  3.37073995E+00  2.62485385E+00 -4.05566691E-02  3.37073995E+00  2.62485385E+00
 -4.05566691E-02  3.37073995E+00  2.62485385E+00 -4.05566691E-02  1.42233193E+00
 -1.22809192E+00 -4.05438901E-02  1.42233193E+00 -1.22809192E+00 -4.05438901E-02
  1.42233193E+00 -1.22809192E+00 -4.05438901E-02  1.42233193E+00 -1.22809192E+00
 -4.05438901E-02 -1.04940071E+00 -3.29349900E-01 -1.13502295E-02 -1.04940071E+00
 -3.29349900E-01 -1.13502295E-02 -1.04940071E+00 -3.29349900E-01 -1.13502295E-02
 -1.04940071E+00 -3.29349900E-01 -1.13502295E-02 -2.15574524E+00  2.00654128E+00
  1.98282095E-02 -2.15574524E+00  2.00654128E+00  1.98282095E-02 -2.15574524E+00
  2.00654128E+00  1.98282095E-02 -2.15574524E+00  2.00654128E+00  1.98282095E-02
  3.52476296E+00  3.05749729E-01 -3.83112064E-02  3.52476296E+00  3.05749729E-01
 -3.83112064E-02  3.52476296E+00  3.05749729E-01 -3.83112064E-02  3.52476296E+00
  3.05749729E-01 -3.83112064E-02 -4.81818040E+00  1.52605226E+00  3.31826993E-02
 -4.81818040E+00  1.52605226E+00  3.31826993E-02 -4.81818040E+00  1.52605226E+00
  3.31826993E-02 -4.81818040E+00  1.52605226E+00  3.31826993E-02 -5.13337615E+00
 -1.02972676E+00  9.03727818E-03 -5.13337615E+00 -1.02972676E+00  9.03727818E-03
 -5.13337615E+00 -1.02972676E+00  9.03727818E-03 -5.13337615E+00 -1.02972676E+00
  9.03727818E-03  6.01156800E+00 -1.10209044E+00  5.69699145E-02  6.01156800E+00
 -1.10209044E+00  5.69699145E-02  6.01156800E+00 -1.10209044E+00  5.69699145E-02
  6.01156800E+00 -1.10209044E+00  5.69699145E-02  1.62193771E+00 -3.13200164E+00
 -4.02830708E-02  1.62193771E+00 -3.13200164E+00 -4.02830708E-02 -1.17655081E+00
  3.79197101E+00  2.90269481E-02 -1.17655081E+00  3.79197101E+00  2.90269481E-02
 -6.31174371E+00  2.92091785E+00  5.76067588E-02 -6.31174371E+00  2.92091785E+00
  5.76067588E-02 -6.74634632E+00 -2.27688964E+00  8.54621747E-03 -6.74634632E+00
 -2.27688964E+00  8.54621747E-03  6.50788146E+00 -1.50176717E+00  2.02416522E+00
  6.50788146E+00 -1.50176717E+00  2.02416522E+00  7.46998967E+00  1.08017856E-01
 -7.50003631E-01  7.46998967E+00  1.08017856E-01 -7.50003631E-01  5.94601491E+00
 -2.88840375E+00 -9.78741023E-01  5.94601491E+00 -2.88840375E+00 -9.78741023E-01
Constraint Structure                       R   N=          48
 -2.81389960E+00 -2.21088611E+00 -1.97746036E-02  3.37073995E+00  2.62485385E+00
 -4.05566691E-02  1.42233193E+00 -1.22809192E+00 -4.05438901E-02 -1.04940071E+00
 -3.29349900E-01 -1.13502295E-02 -2.15574524E+00  2.00654128E+00  1.98282095E-02
  3.52476296E+00  3.05749729E-01 -3.83112064E-02 -4.81818040E+00  1.52605226E+00
  3.31826993E-02 -5.13337615E+00 -1.02972676E+00  9.03727818E-03  6.01156800E+00
 -1.10209044E+00  5.69699145E-02  1.62193771E+00 -3.13200164E+00 -4.02830708E-02
 -1.17655081E+00  3.79197101E+00  2.90269481E-02 -6.31174371E+00  2.92091785E+00
  5.76067588E-02 -6.74634632E+00 -2.27688964E+00  8.54621747E-03  6.50788146E+00
 -1.50176717E+00  2.02416522E+00  7.46998967E+00  1.08017856E-01 -7.50003631E-01
  5.94601491E+00 -2.88840375E+00 -9.78741023E-01
Num ILSW                                   I              100
ILSW                                       I   N=         100
           0           1           0           0           2           0
           0           0           0           0           0          -1
           0           0           0           0           0           0
           0           0           0           0           1           0
           1           0           0           0           0           0
           0           0      100000           0          -1           0
           0           0           0           0           0           0
           0           0           0           1           1           0
           0           0           1           0           0           0
           0           0           4          40           0           0
           0           0           0           0           0           0
           0           0           0           0           0           0
           0           0           0           0           0           0
           0           0           0           0           0           0
           0           0           0           0           0           0
           0           0           0           0           0           0
           0           0           0           0
Num RLSW                                   I               40
RLSW                                       R   N=          40
  1.00000000E+00  1.00000000E+00  1.00000000E+00  1.00000000E+00  1.00000000E+00
  0.00000000E+00  0.00000000E+00  1.00000000E+00  0.00000000E+00  0.00000000E+00
  0.00000000E+00  0.00000000E+00  1.00000000E+00  0.00000000E+00  0.00000000E+00
  0.00000000E+00  0.00000000E+00  1.00000000E+00  0.00000000E+00  0.00000000E+00
  0.00000000E+00  0.00000000E+00  1.00000000E+00  0.00000000E+00  0.00000000E+00
  0.00000000E+00  0.00000000E+00  1.00000000E+00  0.00000000E+00  0.00000000E+00
  0.00000000E+00  0.00000000E+00  0.00000000E+00  0.00000000E+00  0.00000000E+00
  0.00000000E+00  0.00000000E+00  0.00000000E+00  1.00000000E+00  1.00000000E+00
MxBond                                     I                4
NBond                                      I   N=          16
           2           1           3           3           3           3
           3           3           4           1           1           1
           1           1           1           1
IBond                                      I   N=          64
           4           8           0           0           6           0
           0           0           4           6          10           0
           1           3           5           0           4           7
          11           0           2           3           9           0
           5           8          12           0           1           7
          13           0           6          14          15          16
           3           0           0           0           5           0
           0           0           7           0           0           0
           8           0           0           0           9           0
           0           0           9           0           0           0
           9           0           0           0
RBond                                      R   N=          64
  1.50000000E+00  1.50000000E+00  0.00000000E+00  0.00000000E+00  2.00000000E+00
  0.00000000E+00  0.00000000E+00  0.00000000E+00  1.50000000E+00  1.00000000E+00
  1.00000000E+00  0.00000000E+00  1.50000000E+00  1.50000000E+00  1.50000000E+00
  0.00000000E+00  1.50000000E+00  1.50000000E+00  1.00000000E+00  0.00000000E+00
  2.00000000E+00  1.00000000E+00  1.00000000E+00  0.00000000E+00  1.50000000E+00
  1.50000000E+00  1.00000000E+00  0.00000000E+00  1.50000000E+00  1.50000000E+00
  1.00000000E+00  0.00000000E+00  1.00000000E+00  1.00000000E+00  1.00000000E+00
  1.00000000E+00  1.00000000E+00  0.00000000E+00  0.00000000E+00  0.00000000E+00
  1.00000000E+00  0.00000000E+00  0.00000000E+00  0.00000000E+00  1.00000000E+00
  0.00000000E+00  0.00000000E+00  0.00000000E+00  1.00000000E+00  0.00000000E+00
  0.00000000E+00  0.00000000E+00  1.00000000E+00  0.00000000E+00  0.00000000E+00
  0.00000000E+00  1.00000000E+00  0.00000000E+00  0.00000000E+00  0.00000000E+00
  1.00000000E+00  0.00000000E+00  0.00000000E+00  0.00000000E+00
Virial Ratio                               R      2.002831202958423E+00
SCF Energy                                 R     -4.354410709142136E+02
MP2 Energy                                 R     -4.367206752605954E+02
Total Energy                               R     -4.367206752605954E+02
Post-SCF wavefunction norm                 R      1.683475072044022E+00
RMS Force                                  R      1.125225458499638E-07
RMS Density                                R      1.366542055921720E-09
External E-field                           R   N=          35
  0.00000000E+00  0.00000000E+00  0.00000000E+00  0.00000000E+00  0.00000000E+00
  0.00000000E+00  0.00000000E+00  0.00000000E+00  0.00000000E+00  0.00000000E+00
  0.00000000E+00  0.00000000E+00  0.00000000E+00  0.00000000E+00  0.00000000E+00
  0.00000000E+00  0.00000000E+00  0.00000000E+00  0.00000000E+00  0.00000000E+00
  0.00000000E+00  0.00000000E+00  0.00000000E+00  0.00000000E+00  0.00000000E+00
  0.00000000E+00  0.00000000E+00  0.00000000E+00  0.00000000E+00  0.00000000E+00
  0.00000000E+00  0.00000000E+00  0.00000000E+00  0.00000000E+00  0.00000000E+00
IOpCl                                      I                0
IROHF                                      I                0
Alpha Orbital Energies                     R   N=         149
 -2.06317723E+01 -2.05396591E+01 -1.56204960E+01 -1.13720497E+01 -1.13349041E+01
 -1.12814977E+01 -1.12497830E+01 -1.12307006E+01 -1.12168504E+01 -1.46131022E+00
 -1.38573382E+00 -1.25147973E+00 -1.07783102E+00 -1.03424121E+00 -9.74031100E-01
 -8.45681240E-01 -8.00929440E-01 -7.65882306E-01 -7.36552936E-01 -6.80442933E-01
 -6.51966217E-01 -6.44743102E-01 -6.17590545E-01 -5.97068874E-01 -5.72687494E-01
 -5.66187780E-01 -5.59438812E-01 -5.41852949E-01 -5.39521486E-01 -4.48289265E-01
 -4.32470141E-01 -3.90375257E-01 -2.86319614E-01  1.51128728E-01  2.02679129E-01
  2.10854599E-01  2.64183253E-01  2.72649921E-01  2.77355464E-01  2.93931368E-01
  3.00144277E-01  3.30133531E-01  3.31147130E-01  3.57860474E-01  3.91975303E-01
  4.12000436E-01  4.38021654E-01  4.88142987E-01  5.21318501E-01  5.63476900E-01
  6.02736856E-01  6.57558419E-01  7.14375314E-01  7.33202601E-01  7.56280111E-01
  7.59667901E-01  7.79224504E-01  7.93865110E-01  8.09835968E-01  8.19101254E-01
  8.41832228E-01  8.54775313E-01  8.65716552E-01  8.80801516E-01  8.93445844E-01
  9.35679519E-01  9.36953208E-01  9.72084936E-01  1.05574652E+00  1.07354776E+00
  1.08962609E+00  1.09919426E+00  1.11019224E+00  1.11914628E+00  1.13625041E+00
  1.15635651E+00  1.17036237E+00  1.18377763E+00  1.20702076E+00  1.22126428E+00
  1.24465105E+00  1.27596066E+00  1.31251964E+00  1.33828525E+00  1.34873497E+00
  1.36687361E+00  1.47600387E+00  1.52350207E+00  1.54205184E+00  1.56732988E+00
  1.60282210E+00  1.64704305E+00  1.64928406E+00  1.66696381E+00  1.70428644E+00
  1.72508226E+00  1.74237153E+00  1.77131970E+00  1.84050287E+00  1.84401610E+00
  1.90620510E+00  1.93349636E+00  2.01582597E+00  2.09134715E+00  2.10135690E+00
  2.12495821E+00  2.13134160E+00  2.19074735E+00  2.20871927E+00  2.28060140E+00
  2.29108110E+00  2.31118009E+00  2.36236965E+00  2.39457452E+00  2.42013590E+00
  2.47922010E+00  2.51416202E+00  2.52226008E+00  2.52811586E+00  2.59168942E+00
  2.60464952E+00  2.64510600E+00  2.66582515E+00  2.71305972E+00  2.74336768E+00
  2.79602886E+00  2.83093144E+00  2.90431376E+00  2.91068919E+00  3.00489967E+00
  3.02845830E+00  3.04049075E+00  3.10081340E+00  3.15893662E+00  3.20531843E+00
  3.31047570E+00  3.33059051E+00  3.38687175E+00  3.50919329E+00  3.72658004E+00
  4.41366316E+00  4.44018586E+00  4.52508883E+00  4.58701145E+00  4.63264146E+00
  4.68069425E+00  4.80686885E+00  4.87793559E+00  5.05519296E+00
Alpha MO coefficients                      R   N=       22201
  9.94658958E-01  2.11997577E-02 -1.58573859E-04  1.26504782E-03  1.60487436E-05
  3.87395260E-03  1.45276892E-04 -7.93210844E-04 -1.00210202E-05 -4.11389554E-03
 -4.05223540E-03 -3.91629970E-03 -1.08267387E-05  1.27153977E-06 -1.84653530E-06
  2.59436794E-06  1.94246221E-06 -3.17517786E-07 -6.75527707E-07 -3.16043396E-07
  3.22566884E-06 -1.53042446E-05  5.40397113E-06  1.83316100E-06 -2.26376942E-06
 -3.97295252E-06  5.06164536E-06  5.20880173E-06 -2.88173387E-08 -2.71691531E-07
 -2.19211968E-05 -4.59002259E-05  1.63869127E-05  3.16300461E-06 -5.83102756E-07
  7.41603882E-04 -8.59930219E-05  3.25924947E-05  4.19272020E-06 -1.19760163E-04
 -4.24122778E-05 -5.12625073E-05 -2.49913674E-05  3.77218630E-07  5.19771655E-07
 -4.20549931E-06  3.42562183E-04 -2.31462340E-04 -2.88620358E-04 -1.70405645E-06
  1.81038084E-04 -5.43931112E-04  6.56064739E-04  1.06000182E-05 -2.82067833E-05
 -1.95220655E-06 -5.58968166E-05 -4.93749457E-05 -8.92667453E-07  9.97965252E-07
  3.28538152E-06  3.94289771E-05 -1.36174861E-05  7.71885101E-05  8.25601591E-07
 -7.30554225E-04  1.27652242E-05  3.23693330E-04  3.16101431E-06  1.63142934E-06
 -7.91756408E-05 -1.24636643E-05  6.33948048E-06 -4.67091092E-08 -7.90721715E-07
  1.02860846E-06  6.99289404E-06 -3.71087407E-06 -1.94464730E-06  3.13491816E-08
 -1.18496573E-04  7.00850620E-05  3.36569235E-05 -5.62514107E-06  1.26231593E-06
  1.52380758E-05  4.62921962E-08  1.95794403E-05 -4.12132343E-07  3.80486717E-07
  3.58625098E-06  2.67406934E-05 -1.25867443E-05  6.43897103E-05  7.76381580E-07
 -4.03604167E-04  1.25936351E-04  2.31942503E-04  1.43432379E-06  7.17739810E-06
 -6.18034294E-05 -1.10405901E-05  9.99395187E-06 -4.19825012E-08 -6.57261021E-07
 -2.99738347E-06  3.29158678E-04  3.41360590E-04 -1.86872870E-04 -4.39724442E-06
  1.62191190E-04  1.74466382E-05  5.88874869E-04  6.09001314E-06 -1.68460478E-05
  9.88655702E-06 -4.83106375E-05 -1.28721296E-05 -3.62255860E-07  8.09296349E-07
  5.43976604E-07 -1.14973101E-07  2.49633222E-06  2.49201317E-06 -2.32267142E-06
 -2.45942642E-05 -3.02923014E-05 -1.26909474E-05  1.52045790E-05  5.06336956E-06
 -5.45571661E-07  2.00977642E-06 -2.98013537E-06  1.25368340E-06  1.63145381E-06
  1.65519452E-05 -1.55861310E-04  1.55843689E-05 -6.73598956E-05  2.10681547E-05
 -1.52164549E-07  2.76447058E-05  1.24073118E-04 -2.47744390E-06  1.51089985E-06
  4.39952675E-06  1.82804991E-05 -8.32836287E-06  2.94739814E-05 -8.32186034E-07
  7.24219211E-06 -5.73376872E-06  1.47535711E-06 -1.80200727E-08 -6.05870344E-05
  4.30926967E-05 -3.01282919E-05 -3.97782022E-07  6.10379125E-06  2.22266157E-06
  2.67874239E-06  2.61142690E-06  5.19750505E-08 -9.73190264E-09  9.94688804E-01
  2.09623040E-02  8.42442249E-05 -1.54609204E-03  2.47962003E-06  4.50714751E-03
 -6.57444961E-05  9.62975274E-05 -3.37150643E-06 -3.90299824E-03 -3.66999833E-03
 -4.13503225E-03 -2.15999187E-05  4.57439459E-07  3.40178832E-07 -6.00184163E-06
 -3.26683763E-05 -3.53550982E-06 -3.47892843E-05  4.38184997E-07  1.15257894E-04
 -1.18043979E-04  6.63659302E-05 -1.67069570E-06  8.80979489E-05 -8.48250583E-05
 -4.24176244E-05 -2.50642507E-05 -3.40374790E-07 -2.46101099E-07 -6.62347410E-06
 -1.38213739E-05 -2.74175142E-05  2.01086947E-05  7.09234125E-07  2.27908471E-04
 -1.75138007E-04  1.87882076E-04  3.18646321E-06 -3.93431425E-05 -1.46017977E-05
 -1.07829775E-05  1.93745776E-05  8.96624283E-07 -4.90862483E-07  5.41114055E-07
 -2.89231935E-06  1.49294486E-05 -2.51653682E-05 -4.83012723E-07 -1.66395252E-06
 -1.51283845E-04  3.16370560E-04  4.86850557E-06  9.11722139E-06 -7.91279019E-06
  5.62611731E-06  6.99732521E-06  1.47238442E-07 -2.86420844E-07 -2.12655699E-06
  5.07288252E-04 -1.09851683E-06 -1.42548485E-05 -1.18320071E-06 -2.07573409E-04
  1.60070723E-04 -5.43850502E-04  1.15237799E-05 -5.05228978E-05 -7.54575280E-04
 -4.44083787E-05  4.86300166E-05  9.73528923E-07  5.67850954E-07  3.64618176E-06
  2.02818964E-05  2.25452713E-07  4.73876026E-06  1.25611895E-07 -1.25343332E-04
 -8.74343221E-05 -1.11171740E-04 -9.03715613E-07 -5.64975584E-06  3.22370643E-06
  9.41236239E-06 -5.08223520E-06  1.71743278E-08 -3.02473928E-08  1.39674770E-06