23432825                                                                
Freq      RMP2-FC                                                     6-31G(d)            
Number of atoms                            I               14
Info1-9                                    I   N=           9
          26          24        1002           0           0         100
           6           2           1
Charge                                     I               -1
Multiplicity                               I                1
Number of electrons                        I               50
Number of alpha electrons                  I               25
Number of beta electrons                   I               25
Number of basis functions                  I               97
Number of independent functions            I               97
Number of point charges in /Mol/           I                0
Number of translation vectors              I                0
Atomic numbers                             I   N=          14
          16           6           6           6           6           1
           1           1           1           1           1           1
           1           1
Nuclear charges                            R   N=          14
  1.60000000E+01  6.00000000E+00  6.00000000E+00  6.00000000E+00  6.00000000E+00
  1.00000000E+00  1.00000000E+00  1.00000000E+00  1.00000000E+00  1.00000000E+00
  1.00000000E+00  1.00000000E+00  1.00000000E+00  1.00000000E+00
Current cartesian coordinates              R   N=          42
 -3.76219156E+00 -2.18611962E-02 -1.72790141E-01  1.57820125E+00  4.95940192E-03
 -6.09255288E-01 -6.78521201E-01 -1.32917047E+00  6.39796838E-01  1.78307974E+00
  2.74431542E+00  2.54391579E-01  4.04887753E+00 -1.41204471E+00 -1.10358795E-01
  1.21175596E+00  1.85446738E-03 -2.65255178E+00 -3.47024401E-01 -1.27398540E+00
  2.69951847E+00 -5.69185863E-01 -3.33821587E+00  1.02129889E-01  2.22066500E+00
  2.82035391E+00  2.28216833E+00  3.27855727E+00  3.76510779E+00 -7.60670830E-01
 -3.71959005E-02  3.66803490E+00 -5.15641221E-02  4.44373462E+00 -1.47338977E+00
  1.92464531E+00  5.66628529E+00 -5.01315449E-01 -1.03852560E+00  3.93764918E+00
 -3.36702324E+00 -7.87953402E-01
Force Field                                I                0
Int Atom Types                             I   N=          14
           0           0           0           0           0           0
           0           0           0           0           0           0
           0           0
MM charges                                 R   N=          14
  0.00000000E+00  0.00000000E+00  0.00000000E+00  0.00000000E+00  0.00000000E+00
  0.00000000E+00  0.00000000E+00  0.00000000E+00  0.00000000E+00  0.00000000E+00
  0.00000000E+00  0.00000000E+00  0.00000000E+00  0.00000000E+00
Integer atomic weights                     I   N=          14
          32          12          12          12          12           1
           1           1           1           1           1           1
           1           1
Real atomic weights                        R   N=          14
  3.19720718E+01  1.20000000E+01  1.20000000E+01  1.20000000E+01  1.20000000E+01
  1.00782504E+00  1.00782504E+00  1.00782504E+00  1.00782504E+00  1.00782504E+00
  1.00782504E+00  1.00782504E+00  1.00782504E+00  1.00782504E+00
Atom fragment info                         I   N=          14
           0           0           0           0           0           0
           0           0           0           0           0           0
           0           0
Atom residue num                           I   N=          14
           0           0           0           0           0           0
           0           0           0           0           0           0
           0           0
Nuclear spins                              I   N=          14
           0           0           0           0           0           1
           1           1           1           1           1           1
           1           1
Nuclear ZEff                               R   N=          14
 -1.36000000E+01 -3.60000000E+00 -3.60000000E+00 -3.60000000E+00 -3.60000000E+00
 -1.00000000E+00 -1.00000000E+00 -1.00000000E+00 -1.00000000E+00 -1.00000000E+00
 -1.00000000E+00 -1.00000000E+00 -1.00000000E+00 -1.00000000E+00
Nuclear QMom                               R   N=          14
  0.00000000E+00  0.00000000E+00  0.00000000E+00  0.00000000E+00  0.00000000E+00
  0.00000000E+00  0.00000000E+00  0.00000000E+00  0.00000000E+00  0.00000000E+00
  0.00000000E+00  0.00000000E+00  0.00000000E+00  0.00000000E+00
Nuclear GFac                               R   N=          14
  0.00000000E+00  0.00000000E+00  0.00000000E+00  0.00000000E+00  0.00000000E+00
  2.79284600E+00  2.79284600E+00  2.79284600E+00  2.79284600E+00  2.79284600E+00
  2.79284600E+00  2.79284600E+00  2.79284600E+00  2.79284600E+00
MicOpt                                     I   N=          14
          -1          -1          -1          -1          -1          -1
          -1          -1          -1          -1          -1          -1
          -1          -1
Number of contracted shells                I               39
Number of primitive shells                 I               97
Pure/Cartesian d shells                    I                1
Pure/Cartesian f shells                    I                0
Highest angular momentum                   I                2
Largest degree of contraction              I                6
Shell types                                I   N=          39
           0          -1          -1          -1           2           0
          -1          -1           2           0          -1          -1
           2           0          -1          -1           2           0
          -1          -1           2           0           0           0
           0           0           0           0           0           0
           0           0           0           0           0           0
           0           0           0
Number of primitives per shell             I   N=          39
           6           6           3           1           1           6
           3           1           1           6           3           1
           1           6           3           1           1           6
           3           1           1           3           1           3
           1           3           1           3           1           3
           1           3           1           3           1           3
           1           3           1
Shell to atom map                          I   N=          39
           1           1           1           1           1           2
           2           2           2           3           3           3
           3           4           4           4           4           5
           5           5           5           6           6           7
           7           8           8           9           9          10
          10          11          11          12          12          13
          13          14          14
Primitive exponents                        R   N=          97
  2.19171000E+04  3.30149000E+03  7.54146000E+02  2.12711000E+02  6.79896000E+01
  2.30515000E+01  4.23735000E+02  1.00710000E+02  3.21599000E+01  1.18079000E+01
  4.63110000E+00  1.87025000E+00  2.61584000E+00  9.22167000E-01  3.41287000E-01
  1.17167000E-01  6.50000000E-01  3.04752488E+03  4.57369518E+02  1.03948685E+02
  2.92101553E+01  9.28666296E+00  3.16392696E+00  7.86827235E+00  1.88128854E+00
  5.44249258E-01  1.68714478E-01  8.00000000E-01  3.04752488E+03  4.57369518E+02
  1.03948685E+02  2.92101553E+01  9.28666296E+00  3.16392696E+00  7.86827235E+00
  1.88128854E+00  5.44249258E-01  1.68714478E-01  8.00000000E-01  3.04752488E+03
  4.57369518E+02  1.03948685E+02  2.92101553E+01  9.28666296E+00  3.16392696E+00
  7.86827235E+00  1.88128854E+00  5.44249258E-01  1.68714478E-01  8.00000000E-01
  3.04752488E+03  4.57369518E+02  1.03948685E+02  2.92101553E+01  9.28666296E+00
  3.16392696E+00  7.86827235E+00  1.88128854E+00  5.44249258E-01  1.68714478E-01
  8.00000000E-01  1.87311370E+01  2.82539436E+00  6.40121692E-01  1.61277759E-01
  1.87311370E+01  2.82539436E+00  6.40121692E-01  1.61277759E-01  1.87311370E+01
  2.82539436E+00  6.40121692E-01  1.61277759E-01  1.87311370E+01  2.82539436E+00
  6.40121692E-01  1.61277759E-01  1.87311370E+01  2.82539436E+00  6.40121692E-01
  1.61277759E-01  1.87311370E+01  2.82539436E+00  6.40121692E-01  1.61277759E-01
  1.87311370E+01  2.82539436E+00  6.40121692E-01  1.61277759E-01  1.87311370E+01
  2.82539436E+00  6.40121692E-01  1.61277759E-01  1.87311370E+01  2.82539436E+00
  6.40121692E-01  1.61277759E-01
Contraction coefficients                   R   N=          97
  1.86924085E-03  1.42303065E-02  6.96962317E-02  2.38487108E-01  4.83307220E-01
  3.38074154E-01 -2.37677050E-03 -3.16930067E-02 -1.13317024E-01  5.60900118E-02
  5.92255124E-01  4.55006095E-01 -2.50373114E-01  6.69567631E-02  1.05450627E+00
  1.00000000E+00  1.00000000E+00  1.83473713E-03  1.40373228E-02  6.88426223E-02
  2.32184443E-01  4.67941348E-01  3.62311985E-01 -1.19332420E-01 -1.60854152E-01
  1.14345644E+00  1.00000000E+00  1.00000000E+00  1.83473713E-03  1.40373228E-02
  6.88426223E-02  2.32184443E-01  4.67941348E-01  3.62311985E-01 -1.19332420E-01
 -1.60854152E-01  1.14345644E+00  1.00000000E+00  1.00000000E+00  1.83473713E-03
  1.40373228E-02  6.88426223E-02  2.32184443E-01  4.67941348E-01  3.62311985E-01
 -1.19332420E-01 -1.60854152E-01  1.14345644E+00  1.00000000E+00  1.00000000E+00
  1.83473713E-03  1.40373228E-02  6.88426223E-02  2.32184443E-01  4.67941348E-01
  3.62311985E-01 -1.19332420E-01 -1.60854152E-01  1.14345644E+00  1.00000000E+00
  1.00000000E+00  3.34946043E-02  2.34726953E-01  8.13757326E-01  1.00000000E+00
  3.34946043E-02  2.34726953E-01  8.13757326E-01  1.00000000E+00  3.34946043E-02
  2.34726953E-01  8.13757326E-01  1.00000000E+00  3.34946043E-02  2.34726953E-01
  8.13757326E-01  1.00000000E+00  3.34946043E-02  2.34726953E-01  8.13757326E-01
  1.00000000E+00  3.34946043E-02  2.34726953E-01  8.13757326E-01  1.00000000E+00
  3.34946043E-02  2.34726953E-01  8.13757326E-01  1.00000000E+00  3.34946043E-02
  2.34726953E-01  8.13757326E-01  1.00000000E+00  3.34946043E-02  2.34726953E-01
  8.13757326E-01  1.00000000E+00
P(S=P) Contraction coefficients            R   N=          97
  0.00000000E+00  0.00000000E+00  0.00000000E+00  0.00000000E+00  0.00000000E+00
  0.00000000E+00  4.06100998E-03  3.06812999E-02  1.30451999E-01  3.27204999E-01
  4.52850998E-01  2.56041999E-01 -1.45104895E-02  3.10262776E-01  7.54482456E-01
  1.00000000E+00  0.00000000E+00  0.00000000E+00  0.00000000E+00  0.00000000E+00
  0.00000000E+00  0.00000000E+00  0.00000000E+00  6.89990666E-02  3.16423961E-01
  7.44308291E-01  1.00000000E+00  0.00000000E+00  0.00000000E+00  0.00000000E+00
  0.00000000E+00  0.00000000E+00  0.00000000E+00  0.00000000E+00  6.89990666E-02
  3.16423961E-01  7.44308291E-01  1.00000000E+00  0.00000000E+00  0.00000000E+00
  0.00000000E+00  0.00000000E+00  0.00000000E+00  0.00000000E+00  0.00000000E+00
  6.89990666E-02  3.16423961E-01  7.44308291E-01  1.00000000E+00  0.00000000E+00
  0.00000000E+00  0.00000000E+00  0.00000000E+00  0.00000000E+00  0.00000000E+00
  0.00000000E+00  6.89990666E-02  3.16423961E-01  7.44308291E-01  1.00000000E+00
  0.00000000E+00  0.00000000E+00  0.00000000E+00  0.00000000E+00  0.00000000E+00
  0.00000000E+00  0.00000000E+00  0.00000000E+00  0.00000000E+00  0.00000000E+00
  0.00000000E+00  0.00000000E+00  0.00000000E+00  0.00000000E+00  0.00000000E+00
  0.00000000E+00  0.00000000E+00  0.00000000E+00  0.00000000E+00  0.00000000E+00
  0.00000000E+00  0.00000000E+00  0.00000000E+00  0.00000000E+00  0.00000000E+00
  0.00000000E+00  0.00000000E+00  0.00000000E+00  0.00000000E+00  0.00000000E+00
  0.00000000E+00  0.00000000E+00  0.00000000E+00  0.00000000E+00  0.00000000E+00
  0.00000000E+00  0.00000000E+00
Coordinates of each shell                  R   N=         117
 -3.76219156E+00 -2.18611962E-02 -1.72790141E-01 -3.76219156E+00 -2.18611962E-02
 -1.72790141E-01 -3.76219156E+00 -2.18611962E-02 -1.72790141E-01 -3.76219156E+00
 -2.18611962E-02 -1.72790141E-01 -3.76219156E+00 -2.18611962E-02 -1.72790141E-01
  1.57820125E+00  4.95940192E-03 -6.09255288E-01  1.57820125E+00  4.95940192E-03
 -6.09255288E-01  1.57820125E+00  4.95940192E-03 -6.09255288E-01  1.57820125E+00
  4.95940192E-03 -6.09255288E-01 -6.78521201E-01 -1.32917047E+00  6.39796838E-01
 -6.78521201E-01 -1.32917047E+00  6.39796838E-01 -6.78521201E-01 -1.32917047E+00
  6.39796838E-01 -6.78521201E-01 -1.32917047E+00  6.39796838E-01  1.78307974E+00
  2.74431542E+00  2.54391579E-01  1.78307974E+00  2.74431542E+00  2.54391579E-01
  1.78307974E+00  2.74431542E+00  2.54391579E-01  1.78307974E+00  2.74431542E+00
  2.54391579E-01  4.04887753E+00 -1.41204471E+00 -1.10358795E-01  4.04887753E+00
 -1.41204471E+00 -1.10358795E-01  4.04887753E+00 -1.41204471E+00 -1.10358795E-01
  4.04887753E+00 -1.41204471E+00 -1.10358795E-01  1.21175596E+00  1.85446738E-03
 -2.65255178E+00  1.21175596E+00  1.85446738E-03 -2.65255178E+00 -3.47024401E-01
 -1.27398540E+00  2.69951847E+00 -3.47024401E-01 -1.27398540E+00  2.69951847E+00
 -5.69185863E-01 -3.33821587E+00  1.02129889E-01 -5.69185863E-01 -3.33821587E+00
  1.02129889E-01  2.22066500E+00  2.82035391E+00  2.28216833E+00  2.22066500E+00
  2.82035391E+00  2.28216833E+00  3.27855727E+00  3.76510779E+00 -7.60670830E-01
  3.27855727E+00  3.76510779E+00 -7.60670830E-01 -3.71959005E-02  3.66803490E+00
 -5.15641221E-02 -3.71959005E-02  3.66803490E+00 -5.15641221E-02  4.44373462E+00
 -1.47338977E+00  1.92464531E+00  4.44373462E+00 -1.47338977E+00  1.92464531E+00
  5.66628529E+00 -5.01315449E-01 -1.03852560E+00  5.66628529E+00 -5.01315449E-01
 -1.03852560E+00  3.93764918E+00 -3.36702324E+00 -7.87953402E-01  3.93764918E+00
 -3.36702324E+00 -7.87953402E-01
Constraint Structure                       R   N=          42
 -3.76219156E+00 -2.18611962E-02 -1.72790141E-01  1.57820125E+00  4.95940192E-03
 -6.09255288E-01 -6.78521201E-01 -1.32917047E+00  6.39796838E-01  1.78307974E+00
  2.74431542E+00  2.54391579E-01  4.04887753E+00 -1.41204471E+00 -1.10358795E-01
  1.21175596E+00  1.85446738E-03 -2.65255178E+00 -3.47024401E-01 -1.27398540E+00
  2.69951847E+00 -5.69185863E-01 -3.33821587E+00  1.02129889E-01  2.22066500E+00
  2.82035391E+00  2.28216833E+00  3.27855727E+00  3.76510779E+00 -7.60670830E-01
 -3.71959005E-02  3.66803490E+00 -5.15641221E-02  4.44373462E+00 -1.47338977E+00
  1.92464531E+00  5.66628529E+00 -5.01315449E-01 -1.03852560E+00  3.93764918E+00
 -3.36702324E+00 -7.87953402E-01
Num ILSW                                   I              100
ILSW                                       I   N=         100
           0           1           0           0           2           0
           0           0           0           0           0          -1
           0           0           0           0           0           0
           0           0           0           0           1           0
           1           0           0           0           0           0
           0           0      100000           0          -1           0
           0           0           0           0           0           0
           0           0           0           1           1           0
           0           0           1           0           0           0
           0           0           4          40           0           0
           0           0           0           0           0           0
           0           0           0           0           0           0
           0           0           0           0           0           0
           0           0           0           0           0           0
           0           0           0           0           0           0
           0           0           0           0           0           0
           0           0           0           0
Num RLSW                                   I               40
RLSW                                       R   N=          40
  1.00000000E+00  1.00000000E+00  1.00000000E+00  1.00000000E+00  1.00000000E+00
  0.00000000E+00  0.00000000E+00  1.00000000E+00  0.00000000E+00  0.00000000E+00
  0.00000000E+00  0.00000000E+00  1.00000000E+00  0.00000000E+00  0.00000000E+00
  0.00000000E+00  0.00000000E+00  1.00000000E+00  0.00000000E+00  0.00000000E+00
  0.00000000E+00  0.00000000E+00  1.00000000E+00  0.00000000E+00  0.00000000E+00
  0.00000000E+00  0.00000000E+00  1.00000000E+00  0.00000000E+00  0.00000000E+00
  0.00000000E+00  0.00000000E+00  0.00000000E+00  0.00000000E+00  0.00000000E+00
  0.00000000E+00  0.00000000E+00  0.00000000E+00  1.00000000E+00  1.00000000E+00
MxBond                                     I                4
NBond                                      I   N=          14
           1           4           4           4           4           1
           1           1           1           1           1           1
           1           1
IBond                                      I   N=          56
           3           0           0           0           3           4
           5           6           1           2           7           8
           2           9          10          11           2          12
          13          14           2           0           0           0
           3           0           0           0           3           0
           0           0           4           0           0           0
           4           0           0           0           4           0
           0           0           5           0           0           0
           5           0           0           0           5           0
           0           0
RBond                                      R   N=          56
  1.00000000E+00  0.00000000E+00  0.00000000E+00  0.00000000E+00  1.00000000E+00
  1.00000000E+00  1.00000000E+00  1.00000000E+00  1.00000000E+00  1.00000000E+00
  1.00000000E+00  1.00000000E+00  1.00000000E+00  1.00000000E+00  1.00000000E+00
  1.00000000E+00  1.00000000E+00  1.00000000E+00  1.00000000E+00  1.00000000E+00
  1.00000000E+00  0.00000000E+00  0.00000000E+00  0.00000000E+00  1.00000000E+00
  0.00000000E+00  0.00000000E+00  0.00000000E+00  1.00000000E+00  0.00000000E+00
  0.00000000E+00  0.00000000E+00  1.00000000E+00  0.00000000E+00  0.00000000E+00
  0.00000000E+00  1.00000000E+00  0.00000000E+00  0.00000000E+00  0.00000000E+00
  1.00000000E+00  0.00000000E+00  0.00000000E+00  0.00000000E+00  1.00000000E+00
  0.00000000E+00  0.00000000E+00  0.00000000E+00  1.00000000E+00  0.00000000E+00
  0.00000000E+00  0.00000000E+00  1.00000000E+00  0.00000000E+00  0.00000000E+00
  0.00000000E+00
Virial Ratio                               R      2.000553865355336E+00
SCF Energy                                 R     -5.542227923814070E+02
MP2 Energy                                 R     -5.548747901435351E+02
Total Energy                               R     -5.548747901435351E+02
Post-SCF wavefunction norm                 R      1.570747875867740E+00
RMS Force                                  R      1.514683084357502E-06
RMS Density                                R      2.997606534878834E-09
External E-field                           R   N=          35
  0.00000000E+00  0.00000000E+00  0.00000000E+00  0.00000000E+00  0.00000000E+00
  0.00000000E+00  0.00000000E+00  0.00000000E+00  0.00000000E+00  0.00000000E+00
  0.00000000E+00  0.00000000E+00  0.00000000E+00  0.00000000E+00  0.00000000E+00
  0.00000000E+00  0.00000000E+00  0.00000000E+00  0.00000000E+00  0.00000000E+00
  0.00000000E+00  0.00000000E+00  0.00000000E+00  0.00000000E+00  0.00000000E+00
  0.00000000E+00  0.00000000E+00  0.00000000E+00  0.00000000E+00  0.00000000E+00
  0.00000000E+00  0.00000000E+00  0.00000000E+00  0.00000000E+00  0.00000000E+00
IOpCl                                      I                0
IROHF                                      I                0
Alpha Orbital Energies                     R   N=          97
 -9.16356105E+01 -1.10806639E+01 -1.10640276E+01 -1.10580893E+01 -1.10495136E+01
 -8.64282792E+00 -6.32672769E+00 -6.32354660E+00 -6.32345492E+00 -9.27101232E-01
 -7.86079227E-01 -7.69482656E-01 -6.27770810E-01 -5.63247611E-01 -4.69972722E-01
 -4.42034837E-01 -4.17288044E-01 -3.93528173E-01 -3.67637280E-01 -3.32119905E-01
 -3.06122478E-01 -2.97879056E-01 -2.16241590E-01 -7.50809020E-02 -7.27593093E-02
  3.62957009E-01  4.18052319E-01  4.28089517E-01  4.37907755E-01  4.46461794E-01
  4.68507354E-01  4.71263090E-01  4.95996212E-01  5.00252406E-01  5.25557081E-01
  5.52018678E-01  5.83056020E-01  5.90012984E-01  7.55042360E-01  7.96218300E-01
  8.17972162E-01  8.35928724E-01  8.74381959E-01  8.95810765E-01  9.09155350E-01
  9.25832379E-01  9.70979308E-01  1.05257122E+00  1.09347673E+00  1.10948520E+00
  1.13598510E+00  1.15848932E+00  1.19682337E+00  1.26383865E+00  1.30051143E+00
  1.30809519E+00  1.31322698E+00  1.32328924E+00  1.34152713E+00  1.35701496E+00
  1.36564209E+00  1.37598635E+00  1.38540779E+00  1.39433485E+00  1.41199620E+00
  1.44831796E+00  1.49329973E+00  1.54998583E+00  1.58832244E+00  1.84003516E+00
  1.89079434E+00  1.90159953E+00  1.94222076E+00  2.08017484E+00  2.20545122E+00
  2.25097140E+00  2.26277307E+00  2.42260192E+00  2.44787336E+00  2.49323434E+00
  2.55210937E+00  2.58948097E+00  2.62443364E+00  2.71167429E+00  2.72244605E+00
  2.74082241E+00  2.77307832E+00  2.99520445E+00  3.00384695E+00  3.00553137E+00
  3.22298925E+00  3.23459854E+00  4.61848821E+00  4.75028037E+00  4.86156821E+00
  4.91289835E+00  5.15365929E+00
Alpha MO coefficients                      R   N=        9409
  9.96257559E-01  1.42498706E-02  7.30778452E-05 -2.13977237E-05  1.56170197E-05
 -1.99408944E-02 -1.45613963E-04  1.35863628E-05 -1.96763752E-05  2.60510219E-03
  2.21438243E-04 -1.32610196E-05  3.25203898E-05  6.88822224E-03  6.89896376E-03
  6.89200725E-03  5.20341201E-06 -1.06985925E-06 -3.95250760E-06 -1.50728687E-06
  3.52118327E-05  1.12804773E-05  9.50275490E-06 -6.72457980E-06 -1.09861595E-04
  2.35949352E-04  1.25348337E-04 -4.04879391E-05 -4.86878451E-05 -7.91999526E-06
 -1.72718944E-05 -9.88753289E-06  8.67191163E-06  9.79183120E-06 -1.58071399E-05
 -9.20484771E-06 -8.88077652E-05  2.53218369E-05 -2.32621656E-05  4.51274936E-04
  1.67522889E-04  5.56854715E-05 -3.72085344E-05 -3.17888257E-05 -3.13165730E-05
 -3.24761984E-05  1.62147730E-05 -1.34579316E-05 -1.53187950E-05  3.94459659E-06
  2.53801575E-05 -8.44423395E-06 -1.81454925E-05  1.43862954E-05 -1.12422035E-05
 -1.70232292E-05  1.80510006E-04 -6.83405039E-05 -5.54090485E-07  1.79600667E-08
  6.09774964E-06 -7.81344932E-06  6.13884336E-07 -7.91373431E-06 -1.15378842E-06
 -2.85968004E-06  1.16632262E-05 -6.26676201E-06  2.59536732E-06 -7.55476601E-05
 -3.94081740E-05 -9.72923156E-06 -3.53216187E-06  2.42752109E-06 -5.61673284E-06
 -4.81651906E-06 -4.42599146E-06  6.21897075E-06  6.76730335E-06  3.89930552E-05
 -1.32271472E-04 -2.09303214E-05 -2.05664697E-04 -1.80676074E-05 -1.81630105E-04
  1.59186345E-05  3.89902313E-05 -9.54160094E-06 -6.58565781E-05  2.24734475E-05
 -2.46586631E-04 -7.60194455E-06  4.06730977E-05  5.72559052E-06  1.46230127E-05
 -1.02176089E-05  3.71676643E-05  4.09650179E-09 -1.03102405E-05 -9.84309029E-06
  1.39718948E-06  9.53661007E-07 -2.20669975E-05  5.19724034E-05 -1.20186931E-05
 -8.58737876E-08  3.95285603E-04  2.28424027E-04 -1.01153647E-04  3.54392393E-05
  2.80044156E-05 -1.90537133E-05 -2.97771576E-05 -1.56141079E-05 -2.50087006E-06
 -6.74948621E-06  1.76994261E-02  6.95768845E-04  8.69609086E-05 -3.97772394E-05
  2.14327190E-05  2.11298860E-03  1.43125765E-03 -8.76627336E-04 -2.18000261E-04
 -3.39019438E-04 -2.35840472E-04 -1.16222513E-04  1.05020088E-04 -3.53135474E-05
  3.47727289E-05 -1.12418287E-04 -2.70186008E-04 -1.33837793E-04  4.10054829E-05
 -3.35853555E-05  1.06546562E-03  8.04132131E-04 -1.62004362E-04  2.62765252E-04
 -1.26641329E-05 -6.66602495E-05 -8.93303193E-05 -1.15504802E-06 -4.20699519E-06
 -1.37726220E-05 -1.40216395E-04 -2.89651538E-04 -9.79151518E-05  6.38506934E-05
 -9.83313746E-06  1.09387220E-03  5.28249563E-04 -4.35211278E-04  1.28329574E-04
 -5.75270490E-05 -1.87907739E-05 -9.86138617E-05 -4.06821170E-05  2.18530315E-05
 -6.20659896E-06  9.95618527E-01  2.83570269E-02  1.59442401E-04 -5.85429393E-05
  7.99731051E-05 -1.49250357E-02  4.41385619E-04 -2.57873722E-04 -1.23538072E-04
 -1.79809992E-03 -1.76870964E-03 -1.77247818E-03  1.80436263E-05 -2.11891265E-05
  1.60145914E-05 -1.32819671E-04 -2.04252942E-05 -9.94455983E-05 -4.11525306E-04
 -8.02189674E-05 -2.95585007E-04 -9.61713325E-05 -2.90376660E-04 -6.79464788E-05
 -3.22831998E-04  3.58906091E-06  3.23491409E-04  1.48527323E-04  2.72609193E-03
  1.04976480E-04  2.50232573E-03  1.13454039E-04  2.52232416E-03  1.00962465E-06
 -2.01907219E-05  1.31400930E-05 -4.74578940E-06  1.21270719E-06  4.68997576E-05
 -1.13119547E-04  2.87723731E-05 -5.74094803E-06  4.93105294E-05 -6.59720717E-06
 -1.33010881E-04  7.30191803E-05 -1.05439317E-04 -3.53198108E-05 -6.28710698E-05
  2.18845048E-05 -2.00544319E-05 -5.03443893E-05  9.94315925E-01  2.85589731E-02
  3.48865546E-04  6.83149831E-05  1.01960919E-04 -1.99389631E-02 -3.88241218E-04
  1.05451613E-04 -1.16432980E-03 -1.37067393E-03 -1.35783859E-03 -1.29221577E-03
 -5.11319335E-06  2.47163419E-05  7.04974782E-06  1.97882343E-02  5.35787516E-04
  1.40789969E-04  8.01058370E-05 -4.61724943E-05  4.45009157E-03  1.84217032E-03
  9.71095966E-04 -7.92814564E-04 -3.15326196E-04 -2.22170004E-04 -2.19065409E-04
 -8.12338459E-05  1.40618114E-04  8.54144073E-05  5.12803931E-02  1.52508918E-03
  2.09043671E-05 -1.33097684E-04 -3.10668910E-06  3.91621495E-03 -1.61118655E-04
 -1.98065507E-03 -5.13929346E-04 -2.09189020E-04 -5.30855863E-04 -2.23441889E-04
 -3.37840492E-05 -6.55328991E-06 -1.79474800E-04 -1.79330219E-02 -4.48246258E-04
 -1.14862465E-04  6.25905775E-05  1.56528838E-05  5.09884247E-03 -1.78319480E-03
  1.07508701E-03 -2.92584839E-04 -3.82094395E-04 -1.85629287E-04 -7.28325432E-05
  1.91616530E-04 -1.12538905E-04  6.85941425E-05  3.06782240E-04  2.69628239E-03
 -1.71706921E-04 -9.36742231E-06 -1.32354991E-04 -1.28732258E-04 -1.67969408E-04
  1.24226445E-04 -1.49628334E-04  7.33182507E-05 -1.41547787E-04  1.38844287E-05
 -1.84245523E-04 -6.39696867E-05 -1.68926833E-04 -1.79859071E-04 -1.60517344E-04
 -1.45883027E-04  7.79141343E-07  1.17614572E-05  1.71951677E-05 -1.26701308E-06
  7.05274902E-06  6.93224598E-05 -9.74255654E-05  2.18906306E-05 -4.36426087E-05
 -3.60927504E-04 -1.88479104E-04 -1.59868905E-04 -1.85570023E-07 -6.75326927E-05
  2.68186696E-05  1.12938990E-05 -3.83081034E-05 -1.69870078E-05  1.42744337E-06
 -5.15054602E-02 -1.23394318E-03  5.07278220E-06  7.99685820E-05  2.27870337E-05
  3.35758481E-03  7.35163791E-05  1.72351246E-03  9.08799317E-05 -9.01350336E-05
 -3.10333509E-04 -3.25377249E-05 -1.87049701E-05  5.64983092E-06 -1.04686281E-04
 -2.57206190E-03 -3.71824183E-04 -3.53092018E-05 -1.46955637E-04 -1.67803562E-05
  8.34975871E-04  1.68998587E-04  7.02275183E-04  2.10691344E-04 -4.70016314E-05
 -2.65144119E-05 -8.05789892E-05  5.71033925E-05 -2.25266331E-05  1.10639138E-05
  9.94452122E-01  2.84224893E-02  2.14129612E-04 -3.90292554E-05  8.06234246E-05
 -1.53962013E-02 -5.31445223E-05  8.28709920E-04  3.95536193E-06 -1.73449813E-03
 -1.76661157E-03 -1.78436164E-03 -2.46915411E-05  2.98952184E-06 -1.91053625E-05
  9.58103809E-04 -2.89918540E-04  9.35796137E-06 -1.24692468E-04 -4.04889389E-05
  8.70158219E-04  2.40134859E-06  6.54473070E-04  3.34735558E-04 -3.93178090E-05
 -6.55896178E-06 -9.76284831E-05 -5.17823602E-05  5.92205661E-06  2.44643212E-05
 -1.60266794E-04 -1.27799716E-04 -9.87525631E-05 -2.62918623E-04  2.53212164E-05
  3.79565676E-04  1.67815649E-04  2.73341045E-03  1.07868196E-04  2.53718118E-03
  1.41112263E-04  2.58357846E-03 -8.27555047E-05 -3.71965294E-04 -7.43592877E-05
 -2.81728617E-04  1.28185011E-05  3.81564969E-04  3.15618264E-06 -1.32975283E-05
 -5.74140522E-05  2.06662406E-05 -1.48056252E-05  4.07442674E-04  4.90809282E-04
 -1.85524828E-04  1.24630784E-04  1.84970848E-03  1.11639563E-03 -3.61520525E-04
  2.23544485E-04 -4.35335339E-05 -1.34922027E-04 -1.19455886E-04  6.95232206E-06
  1.83171886E-06  2.14375075E-05 -2.01703809E-02 -3.58336646E-04 -8.06305118E-05
 -3.49301281E-05  4.14820347E-05  3.24584575E-03 -1.40179001E-03 -8.71702689E-04
  2.83395445E-04 -3.04532481E-04 -2.10873354E-04 -1.43207489E-04 -1.38436691E-04
  1.55216771E-04  8.35698604E-05  9.95720980E-01  2.77814914E-02  2.49219025E-04
  2.95960750E-05  1.86731080E-05 -1.50414075E-02 -8.55866100E-04 -3.96502763E-04
  2.10687864E-04 -1.60149838E-03 -1.51265650E-03 -1.51102071E-03  4.29799746E-05
 -1.08286306E-05  4.22549425E-05  1.43474561E-03 -2.71566604E-04  8.24062620E-05
  8.13833550E-05 -5.52139613E-05  1.03932758E-03 -4.57490899E-04 -3.57681306E-04
  4.06813995E-04 -6.61441235E-05 -2.89496043E-05 -1.04785955E-04  3.74951686E-05
 -2.77979451E-05 -4.49866139E-06  3.74812914E-04 -2.58478232E-04  1.04772762E-04
  2.84633739E-05 -3.84167524E-05  7.85223551E-04 -4.13606783E-04 -2.21906918E-04
  3.29942279E-04 -8.45075385E-06 -7.41694669E-05 -8.35329916E-05 -3.90850057E-06
 -3.84706222E-05 -2.22183389E-05 -1.41606682E-04 -2.18391244E-04  1.88413795E-04
  2.56063217E-03  1.61854230E-04  2.38297579E-03 -7.85817256E-05 -4.02586341E-04
 -3.42273612E-06  3.65394982E-04 -6.86221389E-05 -4.26567437E-04 -7.71481348E-05
 -2.95882070E-04 -4.02799869E-06  3.20363054E-04 -4.40786146E-05 -3.44201375E-04
 -2.81806166E-01  1.03032204E+00  4.27943104E-03 -1.77766919E-03  1.12222575E-03
  2.36558104E-02  1.42403895E-03 -3.75605295E-04  2.79658230E-04 -6.03157486E-03
 -9.79994406E-04  4.04898824E-05 -1.21927508E-04 -8.37096415E-04 -1.35973411E-03
 -1.39930397E-03 -3.10113147E-04  1.90958977E-04 -6.06922266E-05 -2.86868945E-05