107689                                                                  
Freq      RMP2-FC                                                     6-31G(d)            
Number of atoms                            I               12
Info1-9                                    I   N=           9
          24          22        1002           0           0         100
           6           2           1
Charge                                     I                0
Multiplicity                               I                1
Number of electrons                        I               48
Number of alpha electrons                  I               24
Number of beta electrons                   I               24
Number of basis functions                  I              102
Number of independent functions            I              102
Number of point charges in /Mol/           I                0
Number of translation vectors              I                0
Atomic numbers                             I   N=          12
           8           8           8           6           6           6
           1           1           1           1           1           1
Nuclear charges                            R   N=          12
  8.00000000E+00  8.00000000E+00  8.00000000E+00  6.00000000E+00  6.00000000E+00
  6.00000000E+00  1.00000000E+00  1.00000000E+00  1.00000000E+00  1.00000000E+00
  1.00000000E+00  1.00000000E+00
Current cartesian coordinates              R   N=          36
 -2.63799759E+00 -2.11027508E+00 -5.35412235E-01  2.93334141E+00  1.76339100E+00
 -6.06639878E-01  2.22389062E+00 -2.17362088E+00  9.37225452E-01 -1.28808366E+00
  1.86580874E-01 -7.80484563E-01 -2.44279537E+00  2.24555024E+00  8.78526954E-01
  1.45036620E+00 -2.44400588E-01 -6.90049187E-02 -1.34355967E+00  7.80292452E-01
 -2.76652135E+00 -2.31343627E+00  1.69195743E+00  2.86501591E+00 -4.43634276E+00
  2.44989270E+00  3.88416953E-01 -1.48238702E+00  4.05314152E+00  6.06831408E-01
 -1.53078007E+00 -3.25274840E+00  4.01741110E-01  4.63570738E+00  1.31512079E+00
 -3.10955722E-02
Force Field                                I                0
Int Atom Types                             I   N=          12
           0           0           0           0           0           0
           0           0           0           0           0           0
MM charges                                 R   N=          12
  0.00000000E+00  0.00000000E+00  0.00000000E+00  0.00000000E+00  0.00000000E+00
  0.00000000E+00  0.00000000E+00  0.00000000E+00  0.00000000E+00  0.00000000E+00
  0.00000000E+00  0.00000000E+00
Integer atomic weights                     I   N=          12
          16          16          16          12          12          12
           1           1           1           1           1           1
Real atomic weights                        R   N=          12
  1.59949146E+01  1.59949146E+01  1.59949146E+01  1.20000000E+01  1.20000000E+01
  1.20000000E+01  1.00782504E+00  1.00782504E+00  1.00782504E+00  1.00782504E+00
  1.00782504E+00  1.00782504E+00
Atom fragment info                         I   N=          12
           0           0           0           0           0           0
           0           0           0           0           0           0
Atom residue num                           I   N=          12
           0           0           0           0           0           0
           0           0           0           0           0           0
Nuclear spins                              I   N=          12
           0           0           0           0           0           0
           1           1           1           1           1           1
Nuclear ZEff                               R   N=          12
 -5.60000000E+00 -5.60000000E+00 -5.60000000E+00 -3.60000000E+00 -3.60000000E+00
 -3.60000000E+00 -1.00000000E+00 -1.00000000E+00 -1.00000000E+00 -1.00000000E+00
 -1.00000000E+00 -1.00000000E+00
Nuclear QMom                               R   N=          12
  0.00000000E+00  0.00000000E+00  0.00000000E+00  0.00000000E+00  0.00000000E+00
  0.00000000E+00  0.00000000E+00  0.00000000E+00  0.00000000E+00  0.00000000E+00
  0.00000000E+00  0.00000000E+00
Nuclear GFac                               R   N=          12
  0.00000000E+00  0.00000000E+00  0.00000000E+00  0.00000000E+00  0.00000000E+00
  0.00000000E+00  2.79284600E+00  2.79284600E+00  2.79284600E+00  2.79284600E+00
  2.79284600E+00  2.79284600E+00
MicOpt                                     I   N=          12
          -1          -1          -1          -1          -1          -1
          -1          -1          -1          -1          -1          -1
Number of contracted shells                I               36
Number of primitive shells                 I               90
Pure/Cartesian d shells                    I                1
Pure/Cartesian f shells                    I                0
Highest angular momentum                   I                2
Largest degree of contraction              I                6
Shell types                                I   N=          36
           0          -1          -1           2           0          -1
          -1           2           0          -1          -1           2
           0          -1          -1           2           0          -1
          -1           2           0          -1          -1           2
           0           0           0           0           0           0
           0           0           0           0           0           0
Number of primitives per shell             I   N=          36
           6           3           1           1           6           3
           1           1           6           3           1           1
           6           3           1           1           6           3
           1           1           6           3           1           1
           3           1           3           1           3           1
           3           1           3           1           3           1
Shell to atom map                          I   N=          36
           1           1           1           1           2           2
           2           2           3           3           3           3
           4           4           4           4           5           5
           5           5           6           6           6           6
           7           7           8           8           9           9
          10          10          11          11          12          12
Primitive exponents                        R   N=          90
  5.48467166E+03  8.25234946E+02  1.88046958E+02  5.29645000E+01  1.68975704E+01
  5.79963534E+00  1.55396162E+01  3.59993359E+00  1.01376175E+00  2.70005823E-01
  8.00000000E-01  5.48467166E+03  8.25234946E+02  1.88046958E+02  5.29645000E+01
  1.68975704E+01  5.79963534E+00  1.55396162E+01  3.59993359E+00  1.01376175E+00
  2.70005823E-01  8.00000000E-01  5.48467166E+03  8.25234946E+02  1.88046958E+02
  5.29645000E+01  1.68975704E+01  5.79963534E+00  1.55396162E+01  3.59993359E+00
  1.01376175E+00  2.70005823E-01  8.00000000E-01  3.04752488E+03  4.57369518E+02
  1.03948685E+02  2.92101553E+01  9.28666296E+00  3.16392696E+00  7.86827235E+00
  1.88128854E+00  5.44249258E-01  1.68714478E-01  8.00000000E-01  3.04752488E+03
  4.57369518E+02  1.03948685E+02  2.92101553E+01  9.28666296E+00  3.16392696E+00
  7.86827235E+00  1.88128854E+00  5.44249258E-01  1.68714478E-01  8.00000000E-01
  3.04752488E+03  4.57369518E+02  1.03948685E+02  2.92101553E+01  9.28666296E+00
  3.16392696E+00  7.86827235E+00  1.88128854E+00  5.44249258E-01  1.68714478E-01
  8.00000000E-01  1.87311370E+01  2.82539436E+00  6.40121692E-01  1.61277759E-01
  1.87311370E+01  2.82539436E+00  6.40121692E-01  1.61277759E-01  1.87311370E+01
  2.82539436E+00  6.40121692E-01  1.61277759E-01  1.87311370E+01  2.82539436E+00
  6.40121692E-01  1.61277759E-01  1.87311370E+01  2.82539436E+00  6.40121692E-01
  1.61277759E-01  1.87311370E+01  2.82539436E+00  6.40121692E-01  1.61277759E-01
Contraction coefficients                   R   N=          90
  1.83107443E-03  1.39501722E-02  6.84450781E-02  2.32714336E-01  4.70192898E-01
  3.58520853E-01 -1.10777550E-01 -1.48026263E-01  1.13076702E+00  1.00000000E+00
  1.00000000E+00  1.83107443E-03  1.39501722E-02  6.84450781E-02  2.32714336E-01
  4.70192898E-01  3.58520853E-01 -1.10777550E-01 -1.48026263E-01  1.13076702E+00
  1.00000000E+00  1.00000000E+00  1.83107443E-03  1.39501722E-02  6.84450781E-02
  2.32714336E-01  4.70192898E-01  3.58520853E-01 -1.10777550E-01 -1.48026263E-01
  1.13076702E+00  1.00000000E+00  1.00000000E+00  1.83473713E-03  1.40373228E-02
  6.88426223E-02  2.32184443E-01  4.67941348E-01  3.62311985E-01 -1.19332420E-01
 -1.60854152E-01  1.14345644E+00  1.00000000E+00  1.00000000E+00  1.83473713E-03
  1.40373228E-02  6.88426223E-02  2.32184443E-01  4.67941348E-01  3.62311985E-01
 -1.19332420E-01 -1.60854152E-01  1.14345644E+00  1.00000000E+00  1.00000000E+00
  1.83473713E-03  1.40373228E-02  6.88426223E-02  2.32184443E-01  4.67941348E-01
  3.62311985E-01 -1.19332420E-01 -1.60854152E-01  1.14345644E+00  1.00000000E+00
  1.00000000E+00  3.34946043E-02  2.34726953E-01  8.13757326E-01  1.00000000E+00
  3.34946043E-02  2.34726953E-01  8.13757326E-01  1.00000000E+00  3.34946043E-02
  2.34726953E-01  8.13757326E-01  1.00000000E+00  3.34946043E-02  2.34726953E-01
  8.13757326E-01  1.00000000E+00  3.34946043E-02  2.34726953E-01  8.13757326E-01
  1.00000000E+00  3.34946043E-02  2.34726953E-01  8.13757326E-01  1.00000000E+00
P(S=P) Contraction coefficients            R   N=          90
  0.00000000E+00  0.00000000E+00  0.00000000E+00  0.00000000E+00  0.00000000E+00
  0.00000000E+00  7.08742682E-02  3.39752839E-01  7.27158577E-01  1.00000000E+00
  0.00000000E+00  0.00000000E+00  0.00000000E+00  0.00000000E+00  0.00000000E+00
  0.00000000E+00  0.00000000E+00  7.08742682E-02  3.39752839E-01  7.27158577E-01
  1.00000000E+00  0.00000000E+00  0.00000000E+00  0.00000000E+00  0.00000000E+00
  0.00000000E+00  0.00000000E+00  0.00000000E+00  7.08742682E-02  3.39752839E-01
  7.27158577E-01  1.00000000E+00  0.00000000E+00  0.00000000E+00  0.00000000E+00
  0.00000000E+00  0.00000000E+00  0.00000000E+00  0.00000000E+00  6.89990666E-02
  3.16423961E-01  7.44308291E-01  1.00000000E+00  0.00000000E+00  0.00000000E+00
  0.00000000E+00  0.00000000E+00  0.00000000E+00  0.00000000E+00  0.00000000E+00
  6.89990666E-02  3.16423961E-01  7.44308291E-01  1.00000000E+00  0.00000000E+00
  0.00000000E+00  0.00000000E+00  0.00000000E+00  0.00000000E+00  0.00000000E+00
  0.00000000E+00  6.89990666E-02  3.16423961E-01  7.44308291E-01  1.00000000E+00
  0.00000000E+00  0.00000000E+00  0.00000000E+00  0.00000000E+00  0.00000000E+00
  0.00000000E+00  0.00000000E+00  0.00000000E+00  0.00000000E+00  0.00000000E+00
  0.00000000E+00  0.00000000E+00  0.00000000E+00  0.00000000E+00  0.00000000E+00
  0.00000000E+00  0.00000000E+00  0.00000000E+00  0.00000000E+00  0.00000000E+00
  0.00000000E+00  0.00000000E+00  0.00000000E+00  0.00000000E+00  0.00000000E+00
Coordinates of each shell                  R   N=         108
 -2.63799759E+00 -2.11027508E+00 -5.35412235E-01 -2.63799759E+00 -2.11027508E+00
 -5.35412235E-01 -2.63799759E+00 -2.11027508E+00 -5.35412235E-01 -2.63799759E+00
 -2.11027508E+00 -5.35412235E-01  2.93334141E+00  1.76339100E+00 -6.06639878E-01
  2.93334141E+00  1.76339100E+00 -6.06639878E-01  2.93334141E+00  1.76339100E+00
 -6.06639878E-01  2.93334141E+00  1.76339100E+00 -6.06639878E-01  2.22389062E+00
 -2.17362088E+00  9.37225452E-01  2.22389062E+00 -2.17362088E+00  9.37225452E-01
  2.22389062E+00 -2.17362088E+00  9.37225452E-01  2.22389062E+00 -2.17362088E+00
  9.37225452E-01 -1.28808366E+00  1.86580874E-01 -7.80484563E-01 -1.28808366E+00
  1.86580874E-01 -7.80484563E-01 -1.28808366E+00  1.86580874E-01 -7.80484563E-01
 -1.28808366E+00  1.86580874E-01 -7.80484563E-01 -2.44279537E+00  2.24555024E+00
  8.78526954E-01 -2.44279537E+00  2.24555024E+00  8.78526954E-01 -2.44279537E+00
  2.24555024E+00  8.78526954E-01 -2.44279537E+00  2.24555024E+00  8.78526954E-01
  1.45036620E+00 -2.44400588E-01 -6.90049187E-02  1.45036620E+00 -2.44400588E-01
 -6.90049187E-02  1.45036620E+00 -2.44400588E-01 -6.90049187E-02  1.45036620E+00
 -2.44400588E-01 -6.90049187E-02 -1.34355967E+00  7.80292452E-01 -2.76652135E+00
 -1.34355967E+00  7.80292452E-01 -2.76652135E+00 -2.31343627E+00  1.69195743E+00
  2.86501591E+00 -2.31343627E+00  1.69195743E+00  2.86501591E+00 -4.43634276E+00
  2.44989270E+00  3.88416953E-01 -4.43634276E+00  2.44989270E+00  3.88416953E-01
 -1.48238702E+00  4.05314152E+00  6.06831408E-01 -1.48238702E+00  4.05314152E+00
  6.06831408E-01 -1.53078007E+00 -3.25274840E+00  4.01741110E-01 -1.53078007E+00
 -3.25274840E+00  4.01741110E-01  4.63570738E+00  1.31512079E+00 -3.10955722E-02
  4.63570738E+00  1.31512079E+00 -3.10955722E-02
Constraint Structure                       R   N=          36
 -2.63799759E+00 -2.11027508E+00 -5.35412235E-01  2.93334141E+00  1.76339100E+00
 -6.06639878E-01  2.22389062E+00 -2.17362088E+00  9.37225452E-01 -1.28808366E+00
  1.86580874E-01 -7.80484563E-01 -2.44279537E+00  2.24555024E+00  8.78526954E-01
  1.45036620E+00 -2.44400588E-01 -6.90049187E-02 -1.34355967E+00  7.80292452E-01
 -2.76652135E+00 -2.31343627E+00  1.69195743E+00  2.86501591E+00 -4.43634276E+00
  2.44989270E+00  3.88416953E-01 -1.48238702E+00  4.05314152E+00  6.06831408E-01
 -1.53078007E+00 -3.25274840E+00  4.01741110E-01  4.63570738E+00  1.31512079E+00
 -3.10955722E-02
Num ILSW                                   I              100
ILSW                                       I   N=         100
           0           1           0           0           2           0
           0           0           0           0           0          -1
           0           0           0           0           0           0
           0           0           0           0           1           0
           1           0           0           0           0           0
           0           0      100000           0          -1           0
           0           0           0           0           0           0
           0           0           0           1           1           0
           0           0           1           0           0           0
           0           0           4          40           0           0
           0           0           0           0           0           0
           0           0           0           0           0           0
           0           0           0           0           0           0
           0           0           0           0           0           0
           0           0           0           0           0           0
           0           0           0           0           0           0
           0           0           0           0
Num RLSW                                   I               40
RLSW                                       R   N=          40
  1.00000000E+00  1.00000000E+00  1.00000000E+00  1.00000000E+00  1.00000000E+00
  0.00000000E+00  0.00000000E+00  1.00000000E+00  0.00000000E+00  0.00000000E+00
  0.00000000E+00  0.00000000E+00  1.00000000E+00  0.00000000E+00  0.00000000E+00
  0.00000000E+00  0.00000000E+00  1.00000000E+00  0.00000000E+00  0.00000000E+00
  0.00000000E+00  0.00000000E+00  1.00000000E+00  0.00000000E+00  0.00000000E+00
  0.00000000E+00  0.00000000E+00  1.00000000E+00  0.00000000E+00  0.00000000E+00
  0.00000000E+00  0.00000000E+00  0.00000000E+00  0.00000000E+00  0.00000000E+00
  0.00000000E+00  0.00000000E+00  0.00000000E+00  1.00000000E+00  1.00000000E+00
MxBond                                     I                4
NBond                                      I   N=          12
           2           2           1           4           4           3
           1           1           1           1           1           1
IBond                                      I   N=          48
           4          11           0           0           6          12
           0           0           6           0           0           0
           1           5           6           7           4           8
           9          10           2           3           4           0
           4           0           0           0           5           0
           0           0           5           0           0           0
           5           0           0           0           1           0
           0           0           2           0           0           0
RBond                                      R   N=          48
  1.00000000E+00  1.00000000E+00  0.00000000E+00  0.00000000E+00  1.50000000E+00
  1.00000000E+00  0.00000000E+00  0.00000000E+00  2.00000000E+00  0.00000000E+00
  0.00000000E+00  0.00000000E+00  1.00000000E+00  1.00000000E+00  1.00000000E+00
  1.00000000E+00  1.00000000E+00  1.00000000E+00  1.00000000E+00  1.00000000E+00
  1.50000000E+00  2.00000000E+00  1.00000000E+00  0.00000000E+00  1.00000000E+00
  0.00000000E+00  0.00000000E+00  0.00000000E+00  1.00000000E+00  0.00000000E+00
  0.00000000E+00  0.00000000E+00  1.00000000E+00  0.00000000E+00  0.00000000E+00
  0.00000000E+00  1.00000000E+00  0.00000000E+00  0.00000000E+00  0.00000000E+00
  1.00000000E+00  0.00000000E+00  0.00000000E+00  0.00000000E+00  1.00000000E+00
  0.00000000E+00  0.00000000E+00  0.00000000E+00
Virial Ratio                               R      2.002962693063472E+00
SCF Energy                                 R     -3.416913950062187E+02
MP2 Energy                                 R     -3.426130826955398E+02
Total Energy                               R     -3.426130826955398E+02
Post-SCF wavefunction norm                 R      1.595937124237874E+00
RMS Force                                  R      2.069740082513583E-07
RMS Density                                R      1.195568386603385E-09
External E-field                           R   N=          35
  0.00000000E+00  0.00000000E+00  0.00000000E+00  0.00000000E+00  0.00000000E+00
  0.00000000E+00  0.00000000E+00  0.00000000E+00  0.00000000E+00  0.00000000E+00
  0.00000000E+00  0.00000000E+00  0.00000000E+00  0.00000000E+00  0.00000000E+00
  0.00000000E+00  0.00000000E+00  0.00000000E+00  0.00000000E+00  0.00000000E+00
  0.00000000E+00  0.00000000E+00  0.00000000E+00  0.00000000E+00  0.00000000E+00
  0.00000000E+00  0.00000000E+00  0.00000000E+00  0.00000000E+00  0.00000000E+00
  0.00000000E+00  0.00000000E+00  0.00000000E+00  0.00000000E+00  0.00000000E+00
IOpCl                                      I                0
IROHF                                      I                0
Alpha Orbital Energies                     R   N=         102
 -2.06413614E+01 -2.05804414E+01 -2.05658035E+01 -1.14082799E+01 -1.13085433E+01
 -1.12330962E+01 -1.48045116E+00 -1.38441388E+00 -1.35674842E+00 -1.05123182E+00
 -9.17835242E-01 -8.11540290E-01 -7.40270447E-01 -7.22080084E-01 -6.66559263E-01
 -6.39356038E-01 -6.21407282E-01 -5.86345542E-01 -5.66162436E-01 -5.39477475E-01
 -5.27156277E-01 -4.97074987E-01 -4.64951168E-01 -4.50345176E-01  1.61025745E-01
  2.08405467E-01  2.51710646E-01  2.79399209E-01  2.87899364E-01  3.16886027E-01
  3.19572861E-01  3.89072868E-01  4.06572512E-01  4.36725659E-01  4.94634501E-01
  5.72515801E-01  7.14413802E-01  7.40004855E-01  7.68448036E-01  7.94403141E-01
  8.35617708E-01  8.65571720E-01  9.06278108E-01  9.38674679E-01  9.64479755E-01
  1.01681381E+00  1.03335947E+00  1.07909437E+00  1.09646713E+00  1.12945960E+00
  1.15661609E+00  1.16915557E+00  1.20029821E+00  1.20567141E+00  1.21450726E+00
  1.25266021E+00  1.29539316E+00  1.31991529E+00  1.34050916E+00  1.38738953E+00
  1.49795137E+00  1.50422318E+00  1.59340436E+00  1.61143032E+00  1.65991425E+00
  1.78248223E+00  1.80341088E+00  1.88860904E+00  1.93857154E+00  1.98764788E+00
  2.01146818E+00  2.06310597E+00  2.07911026E+00  2.09999373E+00  2.12255062E+00
  2.16372859E+00  2.23538542E+00  2.26149968E+00  2.32311061E+00  2.37422065E+00
  2.41887727E+00  2.49814150E+00  2.52850659E+00  2.60940919E+00  2.66414247E+00
  2.70016505E+00  2.79596440E+00  2.81448413E+00  2.83764376E+00  2.94996074E+00
  2.99646308E+00  3.08013849E+00  3.12795758E+00  3.24765496E+00  3.35487331E+00
  3.45459460E+00  4.15659657E+00  4.32299202E+00  4.48971868E+00  4.66053514E+00
  4.71226313E+00  4.99366034E+00
Alpha MO coefficients                      R   N=       10404
  2.66464448E-05  6.66253999E-05  2.34501144E-06  9.24841212E-06 -2.32052203E-06
 -4.19247243E-04 -8.93917114E-05 -1.45528397E-04  5.78921924E-06  2.84031229E-05
  3.15132100E-05  3.60926114E-05 -1.74558643E-05 -3.27324448E-06 -4.06482649E-06
  9.94637823E-01  2.11984708E-02  3.26095175E-04 -1.12060155E-03  5.57678640E-04
  3.96567030E-03 -2.96605998E-04  5.34761977E-04 -2.88173725E-04 -4.14496404E-03
 -4.05903729E-03 -3.97693625E-03 -2.65096664E-05 -4.12956820E-05  5.06878809E-05
 -2.76515257E-04  2.52888239E-05 -1.70325645E-05 -3.24341900E-05  1.31792435E-05
 -2.56049662E-04 -7.53277683E-05 -9.89895552E-05  1.60242438E-05  4.44327933E-05
 -5.32808480E-05 -6.13747900E-06 -3.96631854E-05  3.29895921E-05  1.25569350E-05
 -9.76248818E-06 -2.01085552E-05 -3.89339139E-06  6.23709504E-06 -5.26280051E-06
  7.30044096E-04 -2.27206025E-05 -3.24986859E-04  1.89404714E-04 -6.07307549E-05
  1.22281528E-05 -2.96407974E-05 -1.79285774E-05 -3.60369396E-06 -7.12726464E-06
  8.98036010E-07  1.04364258E-07  2.57478411E-05 -1.13332309E-05  9.18397890E-06
  3.17370793E-05 -5.41941586E-05  2.09041254E-04 -6.79170171E-05  2.05036823E-05
 -2.08610689E-05  4.15823769E-06  5.03473050E-06  1.37266118E-07 -5.93803627E-06
 -2.04788668E-06  4.08049520E-04  1.84174932E-04  2.44587206E-04 -6.98887863E-05
 -2.24757555E-04  4.68941575E-04 -1.82276125E-04  1.90476957E-04 -5.23350612E-05
 -8.36959843E-05 -5.20611177E-05 -5.86476908E-05  2.75846126E-05  3.84161116E-07
  3.22364722E-05 -2.50726024E-05  1.49040394E-05  5.37208642E-05 -1.42824171E-05
 -5.53807874E-05  4.19251499E-05 -2.16473527E-04  9.04284130E-06 -4.81999276E-05
  4.39847891E-04 -2.65614711E-04 -2.42044895E-04 -3.71238577E-06 -1.55194561E-06
  1.29064220E-05 -6.63241695E-06  1.47056046E-05  2.66181958E-06 -1.29856649E-04
  4.37477277E-05 -1.10379754E-05 -2.02263590E-05  6.66992472E-06 -1.40836510E-05
 -2.15032105E-07 -1.91200490E-06  2.73506908E-04 -4.86569777E-05 -4.92196055E-06
  3.22812857E-05 -1.58505807E-05  1.98721574E-04 -4.63248621E-05 -8.70276629E-05
  2.66238272E-05  4.73991228E-05 -7.89690239E-05 -8.01862688E-05  5.95223091E-05
  5.10032158E-06  1.67255305E-05  9.94689579E-01  2.09787827E-02 -5.23258985E-04
  1.30591868E-03 -6.76046479E-04  4.50272109E-03  1.71975664E-05 -4.04963709E-05
  9.79879132E-06 -3.88962956E-03 -3.74127632E-03 -4.03272051E-03 -8.29129463E-05
  9.85093036E-05 -2.13960089E-04 -2.97936910E-06 -1.36505599E-05 -1.63226888E-05
  1.32447876E-05 -1.22879319E-05  3.47375495E-05 -1.73832041E-04 -3.38289224E-05
  2.18581585E-05  1.69650187E-05 -1.02465403E-05 -2.62067412E-05  6.57804882E-05
 -1.78858516E-05  1.73909250E-05  5.38330004E-06  2.01075991E-05  1.32516757E-05
 -3.20388172E-06  4.07046407E-07 -1.26478873E-04 -6.86827064E-05  5.79537183E-05
  7.12188494E-06  6.83768273E-06  6.85335809E-06  1.26743772E-05  6.22683319E-08
  2.51148054E-06 -1.30192882E-06 -5.94647506E-06  4.84043927E-04 -8.69226365E-06
  3.20349832E-05 -2.09492659E-05 -3.50912881E-04 -3.30144613E-04  3.35580574E-04
 -2.00437065E-04 -1.31023638E-04 -5.98833948E-04 -1.85381657E-04  2.14843827E-04
 -1.15746396E-04  3.26784796E-04  8.07271124E-06 -3.71955871E-05  1.01073920E-05
  2.49300400E-05 -3.28256984E-07 -3.56009112E-05  1.32768575E-05 -4.36491626E-06
 -2.12888641E-05 -1.81424792E-04 -1.75714146E-05 -6.33093706E-06  9.94656282E-01
  2.11927784E-02  1.18818984E-03  2.86872074E-04  4.41065781E-04  3.85367444E-03
 -6.31276417E-04 -1.75583737E-04 -2.25757830E-04 -4.03953933E-03 -4.15912376E-03
 -3.90194592E-03 -8.39557871E-05 -7.93832428E-05  1.04468918E-04 -2.97747384E-05
 -7.01877899E-05  2.19642895E-06 -8.75787619E-07 -2.48122782E-06  4.35135093E-04
 -1.15695527E-04 -9.29112279E-05  3.08072402E-05 -3.85984358E-05 -3.26805408E-05
 -4.55616764E-05  2.42955738E-05 -7.89961714E-06 -4.27122319E-06  2.49352106E-04
  4.66881836E-05  1.09078402E-05  8.90656527E-06 -1.25906265E-06 -2.90726319E-04
  9.09515709E-06 -6.82768781E-05  4.34685247E-05  9.01248994E-06  2.29465424E-05
  1.56170063E-05  6.26443983E-06 -3.53836108E-06  2.31516257E-06 -3.41785509E-05
  1.82189535E-04 -2.04912780E-04 -3.16110149E-04  1.51257279E-05  6.57800215E-04
  4.19317191E-04  6.77608125E-05  3.10080690E-04 -1.72911232E-05  6.08579740E-06
 -8.35183693E-05  3.34513031E-05 -5.51893104E-06 -6.65425246E-06  8.97726224E-07
  5.00270724E-05 -1.48984514E-05  1.80758736E-05  1.67719325E-05 -1.58659817E-04
 -6.10682990E-05  1.88582315E-04 -2.45345033E-05 -1.33303529E-05 -6.21865344E-05
 -9.79370988E-06  1.65893055E-05 -7.30895653E-07 -9.34270029E-06  2.42656251E-08
  5.70936499E-05  4.96674643E-05  1.98409540E-06  9.81974922E-06 -4.77517861E-04
  1.77885186E-04 -4.37205755E-04  1.63074238E-04 -8.19551066E-05 -2.97142914E-05
 -1.55795231E-05 -3.15111126E-05  5.07819430E-06  8.12251995E-08 -8.70937985E-06
  1.84055894E-05  2.02164201E-05  3.32954104E-05  2.75089224E-05 -5.86040737E-05
 -7.80755836E-07 -6.19871344E-05  4.16720656E-04 -3.07216296E-04 -9.30806848E-06
 -1.07313143E-05 -1.75737479E-05 -1.36964678E-04 -2.79964488E-05 -4.06619430E-05
 -5.85864989E-06  3.54989434E-04  1.06716693E-05  3.28213214E-04  3.29803227E-05
  2.38651495E-05 -1.32018003E-05 -1.30188113E-04  3.65401644E-05  4.97913396E-05
  2.41958490E-06 -1.13734183E-04  5.42982940E-04  1.64622299E-05 -1.41011014E-04
  7.31044207E-05 -9.86443392E-04 -6.96063734E-05  1.53956248E-03 -6.60597355E-04
 -8.94298043E-05 -4.35320336E-04  3.57973446E-04 -4.61408676E-04  6.13603868E-05
  3.26031241E-04 -2.60819186E-04  6.89192485E-04 -4.28619472E-05  2.37725979E-04
 -1.37039716E-04 -3.56511169E-03 -4.92951265E-05 -1.73133339E-03  8.71000927E-04
  3.04816394E-04  3.79140934E-05  3.45399654E-04 -7.74195965E-05 -1.27481693E-05
  2.06506980E-04  3.07570015E-03  2.24280947E-04  2.41939244E-05  2.58304141E-05
  1.50317486E-05  3.18015811E-03  2.46192298E-03 -3.24089629E-04 -2.37513422E-04
 -3.90197927E-04 -2.41363070E-04 -1.34173951E-04  2.46810108E-05 -7.12067550E-05
 -2.73627464E-05 -9.49355138E-05 -3.82645170E-04 -1.74825205E-04  4.35347760E-05
 -2.12491267E-05  1.34743793E-03  1.06320119E-03 -5.85637138E-04 -1.96232765E-06
 -4.12728590E-05 -4.70247732E-05 -9.93926290E-05 -6.62125272E-05 -1.39543708E-05
  4.20133830E-05  9.95906175E-01  2.61250967E-02  8.99563568E-04  4.35510228E-04
  9.27264505E-05 -6.47473468E-03  4.01375607E-03 -2.10519249E-03  1.55179607E-03
 -1.21173883E-03 -7.06053845E-04 -1.94892945E-03  4.09477990E-05  2.23643099E-04
 -7.70749752E-04 -1.97664690E-04  9.93249698E-05 -1.78002013E-04 -1.36344252E-04
  1.30272382E-05  6.09371892E-04 -1.17864998E-04 -1.44746582E-04  1.43413987E-05
  2.45741934E-04  3.06931025E-04  8.53496383E-05 -2.02699307E-04 -1.40305335E-04
  9.51735498E-05  8.78151022E-05 -1.31292244E-05  3.31131939E-03  2.26905382E-04
  5.45241778E-04  1.69131588E-04 -3.56502886E-04 -6.66704093E-04 -7.56684687E-05
 -3.44910916E-04  7.61342621E-05  1.24033452E-04 -9.34011643E-05 -5.34355686E-04
  1.24303157E-04  7.31986494E-05  1.43157923E-05  2.40035949E-03 -7.14473595E-04
 -8.00143988E-04  1.28661639E-04 -1.60763990E-04 -1.87668299E-04 -3.83140365E-04
  9.32105355E-05  1.22403136E-05 -8.54006981E-05 -1.55186885E-05 -1.27735105E-04
  2.87401184E-05 -3.77138602E-05  6.40815541E-06 -1.22475320E-04  4.87309635E-04
  3.36199271E-04 -2.15963688E-05 -4.66085411E-05  4.93806099E-05 -1.58091786E-04
  3.11233897E-05 -2.57739670E-06 -1.23714436E-04  9.96028945E-01  2.82319604E-02
  1.11558171E-04 -5.92897875E-04  3.39298860E-04 -1.95405656E-02 -1.08856551E-03
  7.36431036E-05 -2.18094222E-03 -1.27342399E-03 -1.23028324E-03 -1.23017971E-03
  1.16818596E-04  3.04165757E-08 -3.95097957E-05  3.82891076E-03 -4.10338916E-05
  1.13857818E-04 -8.59476578E-05 -1.01272823E-04  5.34746310E-03  1.00167957E-03
 -2.15540479E-03 -9.58656554E-04 -1.82209421E-04 -2.35139365E-04 -2.64828004E-04
  3.36805405E-05  5.96134812E-05 -1.69510823E-04 -3.39385337E-03 -2.44995509E-05
 -1.83461559E-04  4.41290679E-05 -1.07115373E-05  4.25721129E-03 -3.89015865E-03
 -1.18504064E-03 -7.09642489E-05 -5.25021256E-04 -2.82018200E-04 -1.91233581E-04
 -3.68359079E-05 -1.39048722E-04  5.12816295E-05  2.48430538E-04  2.41333474E-03
 -2.64717289E-04 -1.96263475E-04 -1.84624612E-04 -6.47341219E-05 -1.47330744E-04
  1.52981533E-04 -5.71579408E-05  1.55645182E-04 -1.81002933E-05  4.40873116E-04
 -5.34118104E-05 -2.93866161E-04 -2.21140400E-05 -7.84304458E-05 -4.55257712E-05
  9.95137288E-04  2.39556489E-04  2.97604687E-04  1.19947865E-04 -1.97685835E-04
 -6.68861759E-05 -2.05970226E-04  2.17577288E-05 -5.33785030E-05  7.57933661E-05
  1.82348519E-05  9.51889539E-05  3.83758202E-06 -9.09758899E-07 -2.47319085E-05
 -6.29264994E-04  2.56575011E-04  4.68546458E-05  1.28989307E-05  5.92932321E-06
  8.65618469E-05  2.87247407E-05 -1.84023808E-05 -1.49591273E-05 -8.13601834E-06
  1.65813111E-05  7.34293627E-05 -4.32371509E-05  3.08837390E-05  1.63428966E-05
 -2.77427013E-04  2.34182334E-04 -1.62080505E-04 -7.55739704E-05  4.30255847E-05
  4.92810216E-05  6.86209050E-05  4.10709022E-05  1.05837524E-06 -5.96250573E-06
 -4.12193492E-03  2.20918132E-04 -3.61244361E-05  1.02323591E-04  1.93154115E-05
  1.89298631E-03 -1.13754501E-03  1.50594173E-03  5.65110824E-04 -2.55693804E-04
 -3.32375352E-04 -2.04068467E-04  8.83837688E-05  1.07016000E-04 -1.76771685E-04
  9.95728963E-01  2.85583686E-02  1.89438031E-04 -1.90984241E-04 -9.94959919E-05
 -1.48558290E-02 -4.89340568E-04  5.95411841E-04  3.52199738E-04 -1.82405893E-03
 -1.81599196E-03 -1.85356766E-03  2.34790585E-05  2.22330166E-05 -3.17027715E-05