
    -----------------------------------------------------------------------
          Psi4: An Open-Source Ab Initio Electronic Structure Package
                               Psi4 1.4a3.dev225 

                         Git: Rev {master} 7105e37 


    D. G. A. Smith, L. A. Burns, A. C. Simmonett, R. M. Parrish,
    M. C. Schieber, R. Galvelis, P. Kraus, H. Kruse, R. Di Remigio,
    A. Alenaizan, A. M. James, S. Lehtola, J. P. Misiewicz, M. Scheurer,
    R. A. Shaw, J. B. Schriber, Y. Xie, Z. L. Glick, D. A. Sirianni,
    J. S. O'Brien, J. M. Waldrop, A. Kumar, E. G. Hohenstein,
    B. P. Pritchard, B. R. Brooks, H. F. Schaefer III, A. Yu. Sokolov,
    K. Patkowski, A. E. DePrince III, U. Bozkaya, R. A. King,
    F. A. Evangelista, J. M. Turney, T. D. Crawford, C. D. Sherrill,
    J. Chem. Phys. 152(18) 184108 (2020). https://doi.org/10.1063/5.0006002

                            Additional Code Authors
    E. T. Seidl, C. L. Janssen, E. F. Valeev, M. L. Leininger,
    J. F. Gonthier, R. M. Richard, H. R. McAlexander, M. Saitow, X. Wang,
    P. Verma, and M. H. Lechner

             Previous Authors, Complete List of Code Contributors,
                       and Citations for Specific Modules
    https://github.com/psi4/psi4/blob/master/codemeta.json
    https://github.com/psi4/psi4/graphs/contributors
    http://psicode.org/psi4manual/master/introduction.html#citing-psifour

    -----------------------------------------------------------------------


    Psi4 started on: Saturday, 27 February 2021 04:53PM

    Process ID: 130141
    Host:       c402-053.stampede2.tacc.utexas.edu
    PSIDATADIR: /home1/07844/xy3866/miniconda3/envs/p4env/share/psi4
    Memory:     500.0 MiB
    Threads:    32
    
  ==> Input File <==

--------------------------------------------------------------------------
#psi4
#
memory 32 gb

molecule  {
0 1
  O        0.9636680    -1.0001680    -0.4301960
  N        0.7679840     1.1102310     0.3050190
  C       -1.3243600    -0.1423310    -0.3721570
  C        0.1381010     0.0595700    -0.1541750
  C       -2.0674230     1.1831610    -0.2295090
  C       -1.8648280    -1.2049810     0.5921130
  C        2.3124030    -0.5440085    -0.0970003
  C        2.1041050     0.7294570     0.3348460
  H       -1.4517930    -0.5154570    -1.3975200
  H       -1.9460070     1.5800180     0.7812150
  H       -3.1336970     1.0333660    -0.4232700
  H       -1.6836890     1.9287350    -0.9294360
  H       -1.7477770    -0.8676130     1.6266340
  H       -1.3321260    -2.1520890     0.4742110
  H       -2.9287500    -1.3798940     0.4051340
  H        3.0327410    -1.2424980    -0.2628180
  H        2.8799090     1.4020910     0.6717620
units angstrom
no_reorient  #important for SAPT in psi4, default
symmetry c1  #important for SAPT in psi4, default
}

set PROPERTIES_ORIGIN ["COM"]
properties('MP2/aug-cc-pvtz', properties = ['dipole'])
--------------------------------------------------------------------------

  Memory set to  29.802 GiB by Python driver.
    SCF Algorithm Type (re)set to DF.

*** tstart() called on c402-053.stampede2.tacc.utexas.edu
*** at Sat Feb 27 16:53:55 2021

   => Loading Basis Set <=

    Name: AUG-CC-PVTZ
    Role: ORBITAL
    Keyword: BASIS
    atoms 1    entry O          line   331 file /home1/07844/xy3866/miniconda3/envs/p4env/share/psi4/basis/aug-cc-pvtz.gbs 
    atoms 2    entry N          line   285 file /home1/07844/xy3866/miniconda3/envs/p4env/share/psi4/basis/aug-cc-pvtz.gbs 
    atoms 3-8  entry C          line   239 file /home1/07844/xy3866/miniconda3/envs/p4env/share/psi4/basis/aug-cc-pvtz.gbs 
    atoms 9-17 entry H          line    40 file /home1/07844/xy3866/miniconda3/envs/p4env/share/psi4/basis/aug-cc-pvtz.gbs 


         ---------------------------------------------------------
                                   SCF
               by Justin Turney, Rob Parrish, Andy Simmonett
                          and Daniel G. A. Smith
                              RHF Reference
                       32 Threads,  30517 MiB Core
         ---------------------------------------------------------

  ==> Geometry <==

    Molecular point group: c1
    Full point group: C1

    Geometry (in Angstrom), charge = 0, multiplicity = 1:

       Center              X                  Y                   Z               Mass       
    ------------   -----------------  -----------------  -----------------  -----------------
         O            0.879326507078    -1.002909055525    -0.423290180055    15.994914619570
         N            0.683642507078     1.107489944475     0.311924819945    14.003074004430
         C           -1.408701492922    -0.145072055525    -0.365251180055    12.000000000000
         C            0.053759507078     0.056828944475    -0.147269180055    12.000000000000
         C           -2.151764492922     1.180419944475    -0.222603180055    12.000000000000
         C           -1.949169492922    -1.207722055525     0.599018819945    12.000000000000
         C            2.228061507078    -0.546749555525    -0.090094480055    12.000000000000
         C            2.019763507078     0.726715944475     0.341751819945    12.000000000000
         H           -1.536134492922    -0.518198055525    -1.390614180055     1.007825032230
         H           -2.030348492922     1.577276944475     0.788120819945     1.007825032230
         H           -3.218038492922     1.030624944475    -0.416364180055     1.007825032230
         H           -1.768030492922     1.925993944475    -0.922530180055     1.007825032230
         H           -1.832118492922    -0.870354055525     1.633539819945     1.007825032230
         H           -1.416467492922    -2.154830055525     0.481116819945     1.007825032230
         H           -3.013091492922    -1.382635055525     0.412039819945     1.007825032230
         H            2.948399507078    -1.245239055525    -0.255912180055     1.007825032230
         H            2.795567507078     1.399349944475     0.678667819945     1.007825032230

  Running in c1 symmetry.

  Rotational constants: A =      0.14543  B =      0.05212  C =      0.04214 [cm^-1]
  Rotational constants: A =   4359.91290  B =   1562.59323  C =   1263.47335 [MHz]
  Nuclear repulsion =  370.393768515893157

  Charge       = 0
  Multiplicity = 1
  Electrons    = 60
  Nalpha       = 30
  Nbeta        = 30

  ==> Algorithm <==

  SCF Algorithm Type is DF.
  DIIS enabled.
  MOM disabled.
  Fractional occupation disabled.
  Guess Type is SAD.
  Energy threshold   = 1.00e-10
  Density threshold  = 1.00e-10
  Integral threshold = 1.00e-12

  ==> Primary Basis <==

  Basis Set: AUG-CC-PVTZ
    Blend: AUG-CC-PVTZ
    Number of shells: 193
    Number of basis functions: 575
    Number of Cartesian functions: 665
    Spherical Harmonics?: true
    Max angular momentum: 3

   => Loading Basis Set <=

    Name: (AUG-CC-PVTZ AUX)
    Role: JKFIT
    Keyword: DF_BASIS_SCF
    atoms 1    entry O          line   286 file /home1/07844/xy3866/miniconda3/envs/p4env/share/psi4/basis/aug-cc-pvtz-jkfit.gbs 
    atoms 2    entry N          line   224 file /home1/07844/xy3866/miniconda3/envs/p4env/share/psi4/basis/aug-cc-pvtz-jkfit.gbs 
    atoms 3-8  entry C          line   162 file /home1/07844/xy3866/miniconda3/envs/p4env/share/psi4/basis/aug-cc-pvtz-jkfit.gbs 
    atoms 9-17 entry H          line    70 file /home1/07844/xy3866/miniconda3/envs/p4env/share/psi4/basis/aug-cc-pvtz-jkfit.gbs 

  ==> Integral Setup <==

  DFHelper Memory: AOs need 3.028 GiB; user supplied 22.352 GiB. Using in-core AOs.

  ==> MemDFJK: Density-Fitted J/K Matrices <==

    J tasked:                   Yes
    K tasked:                   Yes
    wK tasked:                   No
    OpenMP threads:              32
    Memory [MiB]:             22888
    Algorithm:                 Core
    Schwarz Cutoff:           1E-12
    Mask sparsity (%):       6.4436
    Fitting Condition:        1E-10

   => Auxiliary Basis Set <=

  Basis Set: (AUG-CC-PVTZ AUX)
    Blend: AUG-CC-PVTZ-JKFIT
    Number of shells: 366
    Number of basis functions: 1246
    Number of Cartesian functions: 1543
    Spherical Harmonics?: true
    Max angular momentum: 4

  Minimum eigenvalue in the overlap matrix is 3.3248751115E-06.
  Reciprocal condition number of the overlap matrix is 1.7249029414E-07.
    Using symmetric orthogonalization.

  ==> Pre-Iterations <==

  SCF Guess: Superposition of Atomic Densities via on-the-fly atomic UHF (no occupation information).

   -------------------------
    Irrep   Nso     Nmo    
   -------------------------
     A        575     575 
   -------------------------
    Total     575     575
   -------------------------

  ==> Iterations <==

                           Total Energy        Delta E     RMS |[F,P]|

   @DF-RHF iter SAD:  -361.17484339942439   -3.61175e+02   0.00000e+00 
   @DF-RHF iter   1:  -361.61862133070883   -4.43778e-01   1.11658e-03 DIIS
   @DF-RHF iter   2:  -361.81578931079173   -1.97168e-01   5.33817e-04 DIIS
   @DF-RHF iter   3:  -361.85899651707075   -4.32072e-02   1.31028e-04 DIIS
   @DF-RHF iter   4:  -361.86263193288727   -3.63542e-03   6.45244e-05 DIIS
   @DF-RHF iter   5:  -361.86334357451841   -7.11642e-04   1.13396e-05 DIIS
   @DF-RHF iter   6:  -361.86338537403594   -4.17995e-05   5.10358e-06 DIIS
   @DF-RHF iter   7:  -361.86339328870810   -7.91467e-06   1.81215e-06 DIIS
   @DF-RHF iter   8:  -361.86339486203195   -1.57332e-06   7.25595e-07 DIIS
   @DF-RHF iter   9:  -361.86339514670254   -2.84671e-07   2.15313e-07 DIIS
   @DF-RHF iter  10:  -361.86339516963056   -2.29280e-08   6.49518e-08 DIIS
   @DF-RHF iter  11:  -361.86339517143989   -1.80933e-09   1.87001e-08 DIIS
   @DF-RHF iter  12:  -361.86339517161014   -1.70246e-10   9.80942e-09 DIIS
   @DF-RHF iter  13:  -361.86339517164328   -3.31397e-11   3.67637e-09 DIIS
   @DF-RHF iter  14:  -361.86339517165266   -9.37916e-12   1.55691e-09 DIIS
   @DF-RHF iter  15:  -361.86339517165317   -5.11591e-13   4.99102e-10 DIIS
   @DF-RHF iter  16:  -361.86339517165356   -3.97904e-13   2.35772e-10 DIIS
   @DF-RHF iter  17:  -361.86339517165402   -4.54747e-13   9.46037e-11 DIIS
  Energy and wave function converged.


  ==> Post-Iterations <==

    Orbital Energies [Eh]
    ---------------------

    Doubly Occupied:                                                      

       1A    -20.620998     2A    -15.558845     3A    -11.338770  
       4A    -11.289750     5A    -11.269475     6A    -11.252108  
       7A    -11.225688     8A    -11.217609     9A     -1.443923  
      10A     -1.219792    11A     -1.103009    12A     -1.009612  
      13A     -0.939025    14A     -0.859223    15A     -0.827767  
      16A     -0.762108    17A     -0.710826    18A     -0.655749  
      19A     -0.635776    20A     -0.608125    21A     -0.600738  
      22A     -0.562798    23A     -0.551092    24A     -0.541866  
      25A     -0.505942    26A     -0.490806    27A     -0.489719  
      28A     -0.455190    29A     -0.445337    30A     -0.338282  

    Virtual:                                                              

      31A      0.028198    32A      0.031792    33A      0.037335  
      34A      0.040512    35A      0.047580    36A      0.053057  
      37A      0.061960    38A      0.065456    39A      0.067405  
      40A      0.089166    41A      0.094402    42A      0.102395  
      43A      0.104647    44A      0.111406    45A      0.117778  
      46A      0.119301    47A      0.126418    48A      0.128656  
      49A      0.129817    50A      0.130957    51A      0.136301  
      52A      0.142381    53A      0.147364    54A      0.156400  
      55A      0.156790    56A      0.163132    57A      0.166027  
      58A      0.176345    59A      0.180536    60A      0.197322  
      61A      0.201460    62A      0.208916    63A      0.215880  
      64A      0.220601    65A      0.224915    66A      0.232851  
      67A      0.243585    68A      0.247527    69A      0.253227  
      70A      0.260188    71A      0.268219    72A      0.271663  
      73A      0.284342    74A      0.285848    75A      0.296675  
      76A      0.297172    77A      0.303466    78A      0.311615  
      79A      0.313995    80A      0.324283    81A      0.325746  
      82A      0.336745    83A      0.344491    84A      0.349164  
      85A      0.352356    86A      0.354804    87A      0.364261  
      88A      0.373180    89A      0.376192    90A      0.379296  
      91A      0.381144    92A      0.389214    93A      0.395181  
      94A      0.402889    95A      0.406658    96A      0.410025  
      97A      0.415909    98A      0.420498    99A      0.427488  
     100A      0.429577   101A      0.434952   102A      0.435894  
     103A      0.447376   104A      0.456161   105A      0.458210  
     106A      0.464109   107A      0.467026   108A      0.469742  
     109A      0.472964   110A      0.481167   111A      0.486354  
     112A      0.491227   113A      0.493878   114A      0.497353  
     115A      0.506514   116A      0.511932   117A      0.519808  
     118A      0.520950   119A      0.523367   120A      0.535513  
     121A      0.537699   122A      0.540421   123A      0.544690  
     124A      0.555260   125A      0.559979   126A      0.567379  
     127A      0.572322   128A      0.578698   129A      0.584056  
     130A      0.588508   131A      0.602028   132A      0.608492  
     133A      0.616120   134A      0.620872   135A      0.628304  
     136A      0.632928   137A      0.645375   138A      0.649679  
     139A      0.656549   140A      0.674434   141A      0.679236  
     142A      0.687109   143A      0.694046   144A      0.709329  
     145A      0.710894   146A      0.732924   147A      0.751248  
     148A      0.754649   149A      0.762206   150A      0.768136  
     151A      0.775149   152A      0.779026   153A      0.798187  
     154A      0.801884   155A      0.808034   156A      0.813102  
     157A      0.830373   158A      0.834606   159A      0.837523  
     160A      0.840151   161A      0.852800   162A      0.861908  
     163A      0.863395   164A      0.871423   165A      0.880837  
     166A      0.888337   167A      0.895894   168A      0.903040  
     169A      0.911792   170A      0.923436   171A      0.925242  
     172A      0.930763   173A      0.936836   174A      0.947124  
     175A      0.950493   176A      0.956025   177A      0.960208  
     178A      0.968554   179A      0.970565   180A      0.979451  
     181A      0.983946   182A      0.990919   183A      0.996176  
     184A      1.001692   185A      1.005876   186A      1.017681  
     187A      1.026963   188A      1.035690   189A      1.041458  
     190A      1.049290   191A      1.067868   192A      1.076674  
     193A      1.079360   194A      1.089105   195A      1.090794  
     196A      1.098456   197A      1.099133   198A      1.108697  
     199A      1.115295   200A      1.121995   201A      1.127430  
     202A      1.132177   203A      1.135561   204A      1.141024  
     205A      1.147598   206A      1.159406   207A      1.169628  
     208A      1.176063   209A      1.180629   210A      1.187163  
     211A      1.195733   212A      1.201414   213A      1.213667  
     214A      1.218101   215A      1.226594   216A      1.232283  
     217A      1.240348   218A      1.247195   219A      1.259162  
     220A      1.260901   221A      1.275978   222A      1.282687  
     223A      1.299204   224A      1.307002   225A      1.314531  
     226A      1.329605   227A      1.342881   228A      1.354548  
     229A      1.362934   230A      1.372353   231A      1.378790  
     232A      1.396910   233A      1.402607   234A      1.414769  
     235A      1.423538   236A      1.432355   237A      1.443981  
     238A      1.449047   239A      1.457635   240A      1.469606  
     241A      1.485839   242A      1.500013   243A      1.505068  
     244A      1.511466   245A      1.517911   246A      1.533163  
     247A      1.543700   248A      1.545708   249A      1.556129  
     250A      1.565581   251A      1.570854   252A      1.586259  
     253A      1.593113   254A      1.603731   255A      1.611801  
     256A      1.624528   257A      1.632156   258A      1.641604  
     259A      1.647700   260A      1.658521   261A      1.664899  
     262A      1.682734   263A      1.690018   264A      1.698115  
     265A      1.710293   266A      1.714708   267A      1.723181  
     268A      1.734807   269A      1.743137   270A      1.751047  
     271A      1.758312   272A      1.762719   273A      1.765126  
     274A      1.781533   275A      1.788673   276A      1.804275  
     277A      1.818145   278A      1.826212   279A      1.831099  
     280A      1.837039   281A      1.841511   282A      1.863265  
     283A      1.870414   284A      1.871981   285A      1.897222  
     286A      1.901026   287A      1.909017   288A      1.917419  
     289A      1.927401   290A      1.939348   291A      1.957141  
     292A      1.960118   293A      1.969182   294A      1.981557  
     295A      1.992429   296A      2.005260   297A      2.011123  
     298A      2.024920   299A      2.040065   300A      2.052363  
     301A      2.063926   302A      2.069198   303A      2.083036  
     304A      2.088734   305A      2.099852   306A      2.116313  
     307A      2.134855   308A      2.146480   309A      2.157573  
     310A      2.181187   311A      2.187463   312A      2.206178  
     313A      2.221224   314A      2.228982   315A      2.237495  
     316A      2.250718   317A      2.257313   318A      2.260339  
     319A      2.273019   320A      2.294497   321A      2.303908  
     322A      2.309962   323A      2.318034   324A      2.329197  
     325A      2.342358   326A      2.350961   327A      2.365382  
     328A      2.380711   329A      2.410093   330A      2.415801  
     331A      2.439486   332A      2.449045   333A      2.481554  
     334A      2.485858   335A      2.509521   336A      2.517913  
     337A      2.525818   338A      2.542642   339A      2.562820  
     340A      2.585220   341A      2.589319   342A      2.610591  
     343A      2.625037   344A      2.644419   345A      2.684229  
     346A      2.699271   347A      2.720792   348A      2.726307  
     349A      2.749560   350A      2.794428   351A      2.828800  
     352A      2.854563   353A      2.861298   354A      2.921640  
     355A      2.942371   356A      2.984249   357A      3.036605  
     358A      3.038343   359A      3.060509   360A      3.085228  
     361A      3.095295   362A      3.129098   363A      3.137741  
     364A      3.203848   365A      3.266341   366A      3.278431  
     367A      3.301969   368A      3.314202   369A      3.328486  
     370A      3.355859   371A      3.399127   372A      3.404476  
     373A      3.415406   374A      3.430679   375A      3.452142  
     376A      3.475790   377A      3.493869   378A      3.504393  
     379A      3.519570   380A      3.520890   381A      3.544877  
     382A      3.561545   383A      3.574959   384A      3.590355  
     385A      3.629178   386A      3.636708   387A      3.655701  
     388A      3.661107   389A      3.675049   390A      3.689213  
     391A      3.693015   392A      3.704478   393A      3.717826  
     394A      3.724966   395A      3.744190   396A      3.749828  
     397A      3.755145   398A      3.767184   399A      3.775431  
     400A      3.780703   401A      3.793112   402A      3.808732  
     403A      3.820471   404A      3.832026   405A      3.843445  
     406A      3.852843   407A      3.872823   408A      3.880887  
     409A      3.895868   410A      3.902175   411A      3.924829  
     412A      3.931003   413A      3.944865   414A      3.952737  
     415A      3.963616   416A      3.970582   417A      3.980159  
     418A      3.990598   419A      4.001592   420A      4.019251  
     421A      4.038621   422A      4.056330   423A      4.060578  
     424A      4.075650   425A      4.082282   426A      4.088183  
     427A      4.121316   428A      4.123262   429A      4.153659  
     430A      4.172956   431A      4.187143   432A      4.191001  
     433A      4.196752   434A      4.214224   435A      4.222685  
     436A      4.231019   437A      4.245692   438A      4.260147  
     439A      4.281201   440A      4.285143   441A      4.287624  
     442A      4.301416   443A      4.313463   444A      4.320674  
     445A      4.350871   446A      4.370894   447A      4.382797  
     448A      4.386528   449A      4.398301   450A      4.417066  
     451A      4.448241   452A      4.462323   453A      4.487078  
     454A      4.515284   455A      4.541207   456A      4.545928  
     457A      4.554391   458A      4.580508   459A      4.595439  
     460A      4.608211   461A      4.617427   462A      4.638990  
     463A      4.652290   464A      4.671980   465A      4.698685  
     466A      4.718052   467A      4.720949   468A      4.749869  
     469A      4.778233   470A      4.792551   471A      4.818505  
     472A      4.830619   473A      4.865257   474A      4.867859  
     475A      4.876859   476A      4.883996   477A      4.899216  
     478A      4.910980   479A      4.926357   480A      4.949807  
     481A      4.963183   482A      5.004842   483A      5.020416  
     484A      5.030253   485A      5.038321   486A      5.045042  
     487A      5.111021   488A      5.118622   489A      5.125177  
     490A      5.140036   491A      5.172784   492A      5.187837  
     493A      5.191963   494A      5.220239   495A      5.243456  
     496A      5.258071   497A      5.280146   498A      5.294349  
     499A      5.307782   500A      5.330262   501A      5.338552  
     502A      5.374640   503A      5.413729   504A      5.431588  
     505A      5.446987   506A      5.457848   507A      5.475891  
     508A      5.489159   509A      5.506540   510A      5.523302  
     511A      5.552645   512A      5.592068   513A      5.615375  
     514A      5.652984   515A      5.676041   516A      5.691192  
     517A      5.703522   518A      5.727063   519A      5.748521  
     520A      5.769152   521A      5.803422   522A      5.847173  
     523A      5.854185   524A      5.878086   525A      5.906919  
     526A      5.922850   527A      5.933782   528A      5.961840  
     529A      5.983264   530A      6.062821   531A      6.075690  
     532A      6.081618   533A      6.118813   534A      6.121862  
     535A      6.189873   536A      6.199840   537A      6.212853  
     538A      6.236595   539A      6.295979   540A      6.317967  
     541A      6.330178   542A      6.392174   543A      6.418534  
     544A      6.517886   545A      6.563740   546A      6.649268  
     547A      6.715687   548A      6.736233   549A      6.823153  
     550A      6.837157   551A      6.871685   552A      6.907696  
     553A      6.917657   554A      6.944680   555A      7.034743  
     556A      7.060853   557A      7.080449   558A      7.137710  
     559A      7.143261   560A      7.443797   561A      7.531683  
     562A      7.571454   563A      7.702391   564A      7.718601  
     565A      7.834196   566A      8.266089   567A      8.462442  
     568A     14.917083   569A     16.506432   570A     17.132502  
     571A     17.750835   572A     18.067256   573A     18.323952  
     574A     19.127569   575A     20.084970  

    Final Occupation by Irrep:
              A 
    DOCC [    30 ]

  @DF-RHF Final Energy:  -361.86339517165402

   => Energetics <=

    Nuclear Repulsion Energy =            370.3937685158931572
    One-Electron Energy =               -1225.4544331099773444
    Two-Electron Energy =                 493.1972694224301677
    Total Energy =                       -361.8633951716540196

Computation Completed

*** tstop() called on c402-053.stampede2.tacc.utexas.edu at Sat Feb 27 16:54:21 2021
Module time:
	user time   =     442.33 seconds =       7.37 minutes
	system time =      33.78 seconds =       0.56 minutes
	total time  =         26 seconds =       0.43 minutes
Total time:
	user time   =     442.33 seconds =       7.37 minutes
	system time =      33.78 seconds =       0.56 minutes
	total time  =         26 seconds =       0.43 minutes
   => Loading Basis Set <=

    Name: (AUG-CC-PVTZ AUX)
    Role: RIFIT
    Keyword: DF_BASIS_MP2
    atoms 1    entry O          line   264 file /home1/07844/xy3866/miniconda3/envs/p4env/share/psi4/basis/aug-cc-pvtz-ri.gbs 
    atoms 2    entry N          line   206 file /home1/07844/xy3866/miniconda3/envs/p4env/share/psi4/basis/aug-cc-pvtz-ri.gbs 
    atoms 3-8  entry C          line   148 file /home1/07844/xy3866/miniconda3/envs/p4env/share/psi4/basis/aug-cc-pvtz-ri.gbs 
    atoms 9-17 entry H          line    30 file /home1/07844/xy3866/miniconda3/envs/p4env/share/psi4/basis/aug-cc-pvtz-ri.gbs 


*** tstart() called on c402-053.stampede2.tacc.utexas.edu
*** at Sat Feb 27 16:54:22 2021


  //>>>>>>>>>>>>>>>>>>>>>>>>>>>>>>>>>>>//
  //               DFMP2               //
  //<<<<<<<<<<<<<<<<<<<<<<<<<<<<<<<<<<<//

	 --------------------------------------------------------
	                          DF-MP2                         
	      2nd-Order Density-Fitted Moller-Plesset Theory     
	              RMP2 Wavefunction,  32 Threads             
	                                                         
	        Rob Parrish, Justin Turney, Andy Simmonett,      
	           Ed Hohenstein, and C. David Sherrill          
	 --------------------------------------------------------

   => Auxiliary Basis Set <=

  Basis Set: (AUG-CC-PVTZ AUX)
    Blend: AUG-CC-PVTZ-RI
    Number of shells: 350
    Number of basis functions: 1262
    Number of Cartesian functions: 1583
    Spherical Harmonics?: true
    Max angular momentum: 4

	 --------------------------------------------------------
	                 NBF =   575, NAUX =  1262
	 --------------------------------------------------------
	   CLASS    FOCC     OCC    AOCC    AVIR     VIR    FVIR
	   PAIRS       0      30      30     545     545       0
	 --------------------------------------------------------

  DFHelper Memory: AOs need 3.115 GiB; user supplied 22.352 GiB. Using in-core AOs.


         ------------------------------------------------------------
                                     CPHF                           
                                  Rob Parrish                       
         ------------------------------------------------------------

  ==> Geometry <==

    Molecular point group: c1
    Full point group: C1

    Geometry (in Angstrom), charge = 0, multiplicity = 1:

       Center              X                  Y                   Z               Mass       
    ------------   -----------------  -----------------  -----------------  -----------------
         O            0.879326507078    -1.002909055525    -0.423290180055    15.994914619570
         N            0.683642507078     1.107489944475     0.311924819945    14.003074004430
         C           -1.408701492922    -0.145072055525    -0.365251180055    12.000000000000
         C            0.053759507078     0.056828944475    -0.147269180055    12.000000000000
         C           -2.151764492922     1.180419944475    -0.222603180055    12.000000000000
         C           -1.949169492922    -1.207722055525     0.599018819945    12.000000000000
         C            2.228061507078    -0.546749555525    -0.090094480055    12.000000000000
         C            2.019763507078     0.726715944475     0.341751819945    12.000000000000
         H           -1.536134492922    -0.518198055525    -1.390614180055     1.007825032230
         H           -2.030348492922     1.577276944475     0.788120819945     1.007825032230
         H           -3.218038492922     1.030624944475    -0.416364180055     1.007825032230
         H           -1.768030492922     1.925993944475    -0.922530180055     1.007825032230
         H           -1.832118492922    -0.870354055525     1.633539819945     1.007825032230
         H           -1.416467492922    -2.154830055525     0.481116819945     1.007825032230
         H           -3.013091492922    -1.382635055525     0.412039819945     1.007825032230
         H            2.948399507078    -1.245239055525    -0.255912180055     1.007825032230
         H            2.795567507078     1.399349944475     0.678667819945     1.007825032230

  Nuclear repulsion =  370.393768515893157
  Reference energy  = -361.863395171654020

  ==> Basis Set <==

  Basis Set: AUG-CC-PVTZ
    Blend: AUG-CC-PVTZ
    Number of shells: 193
    Number of basis functions: 575
    Number of Cartesian functions: 665
    Spherical Harmonics?: true
    Max angular momentum: 3

  ==> CGRSolver (by Rob Parrish) <==

   Number of roots    =         1
   Preconditioning    =    JACOBI
   Convergence cutoff =     1E-06
   Maximum iterations =       100

  ==> CPHFRHamiltonian (by Rob Parrish) <== 

  ==> MemDFJK: Density-Fitted J/K Matrices <==

    J tasked:                   Yes
    K tasked:                   Yes
    wK tasked:                   No
    OpenMP threads:              32
    Memory [MiB]:             22888
    Algorithm:                 Core
    Schwarz Cutoff:           1E-12
    Mask sparsity (%):       3.6283
    Fitting Condition:        1E-10

   => Auxiliary Basis Set <=

  Basis Set: (AUG-CC-PVTZ AUX)
    Blend: AUG-CC-PVTZ-JKFIT
    Number of shells: 366
    Number of basis functions: 1246
    Number of Cartesian functions: 1543
    Spherical Harmonics?: true
    Max angular momentum: 4

  ==> CPHF Iterations <==

  => Iterations <=

             Iter  Converged  Remaining    Residual
  CGR           1          0          1   1.263E-01
  CGR           2          0          1   4.610E-02
  CGR           3          0          1   2.268E-02
  CGR           4          0          1   7.490E-03
  CGR           5          0          1   3.163E-03
  CGR           6          0          1   1.257E-03
  CGR           7          0          1   4.596E-04
  CGR           8          0          1   1.679E-04
  CGR           9          0          1   5.481E-05
  CGR          10          0          1   1.506E-05
  CGR          11          0          1   4.954E-06
  CGR          12          0          1   1.506E-06
  CGR          13          1          0   5.666E-07

    CGRSolver converged.

	-----------------------------------------------------------
	 ==================> DF-MP2 Energies <==================== 
	-----------------------------------------------------------
	 Reference Energy          =    -361.8633951716540196 [Eh]
	 Singles Energy            =      -0.0000000000000000 [Eh]
	 Same-Spin Energy          =      -0.3796791104120720 [Eh]
	 Opposite-Spin Energy      =      -1.2196781908653209 [Eh]
	 Correlation Energy        =      -1.5993573012773930 [Eh]
	 Total Energy              =    -363.4627524729314132 [Eh]
	-----------------------------------------------------------
	 ================> DF-SCS-MP2 Energies <================== 
	-----------------------------------------------------------
	 SCS Same-Spin Scale       =       0.3333333333333333 [-]
	 SCS Opposite-Spin Scale   =       1.2000000000000000 [-]
	 SCS Same-Spin Energy      =      -0.1265597034706906 [Eh]
	 SCS Opposite-Spin Energy  =      -1.4636138290383851 [Eh]
	 SCS Correlation Energy    =      -1.5901735325090758 [Eh]
	 SCS Total Energy          =    -363.4535687041631036 [Eh]
	-----------------------------------------------------------



Properties will be evaluated at  -0.000000,  -0.000000,   0.000000 [a0]

Properties computed using the MP2 density matrix

  Nuclear Dipole Moment: [e a0]
     X:    -8.5009      Y:    -0.2312      Z:     0.9421

  Electronic Dipole Moment: [e a0]
     X:     8.6001      Y:    -0.2428      Z:    -1.0751

  Dipole Moment: [e a0]
     X:     0.0992      Y:    -0.4739      Z:    -0.1330     Total:     0.5022

  Dipole Moment: [D]
     X:     0.2522      Y:    -1.2046      Z:    -0.3382     Total:     1.2763


*** tstop() called on c402-053.stampede2.tacc.utexas.edu at Sat Feb 27 16:56:46 2021
Module time:
	user time   =    1183.99 seconds =      19.73 minutes
	system time =      45.74 seconds =       0.76 minutes
	total time  =        144 seconds =       2.40 minutes
Total time:
	user time   =    1627.16 seconds =      27.12 minutes
	system time =      79.54 seconds =       1.33 minutes
	total time  =        171 seconds =       2.85 minutes

    Psi4 stopped on: Saturday, 27 February 2021 04:56PM
    Psi4 wall time for execution: 0:02:52.06

*** Psi4 exiting successfully. Buy a developer a beer!
