
    -----------------------------------------------------------------------
          Psi4: An Open-Source Ab Initio Electronic Structure Package
                               Psi4 1.4a3.dev225 

                         Git: Rev {master} 7105e37 


    D. G. A. Smith, L. A. Burns, A. C. Simmonett, R. M. Parrish,
    M. C. Schieber, R. Galvelis, P. Kraus, H. Kruse, R. Di Remigio,
    A. Alenaizan, A. M. James, S. Lehtola, J. P. Misiewicz, M. Scheurer,
    R. A. Shaw, J. B. Schriber, Y. Xie, Z. L. Glick, D. A. Sirianni,
    J. S. O'Brien, J. M. Waldrop, A. Kumar, E. G. Hohenstein,
    B. P. Pritchard, B. R. Brooks, H. F. Schaefer III, A. Yu. Sokolov,
    K. Patkowski, A. E. DePrince III, U. Bozkaya, R. A. King,
    F. A. Evangelista, J. M. Turney, T. D. Crawford, C. D. Sherrill,
    J. Chem. Phys. 152(18) 184108 (2020). https://doi.org/10.1063/5.0006002

                            Additional Code Authors
    E. T. Seidl, C. L. Janssen, E. F. Valeev, M. L. Leininger,
    J. F. Gonthier, R. M. Richard, H. R. McAlexander, M. Saitow, X. Wang,
    P. Verma, and M. H. Lechner

             Previous Authors, Complete List of Code Contributors,
                       and Citations for Specific Modules
    https://github.com/psi4/psi4/blob/master/codemeta.json
    https://github.com/psi4/psi4/graphs/contributors
    http://psicode.org/psi4manual/master/introduction.html#citing-psifour

    -----------------------------------------------------------------------


    Psi4 started on: Saturday, 27 February 2021 03:47PM

    Process ID: 114042
    Host:       c402-053.stampede2.tacc.utexas.edu
    PSIDATADIR: /home1/07844/xy3866/miniconda3/envs/p4env/share/psi4
    Memory:     500.0 MiB
    Threads:    32
    
  ==> Input File <==

--------------------------------------------------------------------------
#psi4
#
memory 32 gb

molecule  {
0 1
  O        0.9636680    -1.0001680    -0.4301960
  N        0.7679840     1.1102310     0.3050190
  C       -1.3243600    -0.1423310    -0.3721570
  C        0.1331328     0.0677085    -0.1299372
  C       -2.0674230     1.1831610    -0.2295090
  C       -1.8648280    -1.2049810     0.5921130
  C        2.2187300    -0.5510310    -0.1110300
  C        2.1041050     0.7294570     0.3348460
  H       -1.4517930    -0.5154570    -1.3975200
  H       -1.9460070     1.5800180     0.7812150
  H       -3.1336970     1.0333660    -0.4232700
  H       -1.6836890     1.9287350    -0.9294360
  H       -1.7477770    -0.8676130     1.6266340
  H       -1.3321260    -2.1520890     0.4742110
  H       -2.9287500    -1.3798940     0.4051340
  H        3.0327410    -1.2424980    -0.2628180
  H        2.8799090     1.4020910     0.6717620
units angstrom
no_reorient  #important for SAPT in psi4, default
symmetry c1  #important for SAPT in psi4, default
}

set PROPERTIES_ORIGIN ["COM"]
properties('MP2/aug-cc-pvtz', properties = ['dipole'])
--------------------------------------------------------------------------

  Memory set to  29.802 GiB by Python driver.
    SCF Algorithm Type (re)set to DF.

*** tstart() called on c402-053.stampede2.tacc.utexas.edu
*** at Sat Feb 27 15:47:09 2021

   => Loading Basis Set <=

    Name: AUG-CC-PVTZ
    Role: ORBITAL
    Keyword: BASIS
    atoms 1    entry O          line   331 file /home1/07844/xy3866/miniconda3/envs/p4env/share/psi4/basis/aug-cc-pvtz.gbs 
    atoms 2    entry N          line   285 file /home1/07844/xy3866/miniconda3/envs/p4env/share/psi4/basis/aug-cc-pvtz.gbs 
    atoms 3-8  entry C          line   239 file /home1/07844/xy3866/miniconda3/envs/p4env/share/psi4/basis/aug-cc-pvtz.gbs 
    atoms 9-17 entry H          line    40 file /home1/07844/xy3866/miniconda3/envs/p4env/share/psi4/basis/aug-cc-pvtz.gbs 


         ---------------------------------------------------------
                                   SCF
               by Justin Turney, Rob Parrish, Andy Simmonett
                          and Daniel G. A. Smith
                              RHF Reference
                       32 Threads,  30517 MiB Core
         ---------------------------------------------------------

  ==> Geometry <==

    Molecular point group: c1
    Full point group: C1

    Geometry (in Angstrom), charge = 0, multiplicity = 1:

       Center              X                  Y                   Z               Mass       
    ------------   -----------------  -----------------  -----------------  -----------------
         O            0.889983852026    -1.003029629858    -0.424393078671    15.994914619570
         N            0.694299852026     1.107369370142     0.310821921329    14.003074004430
         C           -1.398044147974    -0.145192629858    -0.366354078671    12.000000000000
         C            0.059448652026     0.064846870142    -0.124134278671    12.000000000000
         C           -2.141107147974     1.180299370142    -0.223706078671    12.000000000000
         C           -1.938512147974    -1.207842629858     0.597915921329    12.000000000000
         C            2.145045852026    -0.553892629858    -0.105227078671    12.000000000000
         C            2.030420852026     0.726595370142     0.340648921329    12.000000000000
         H           -1.525477147974    -0.518318629858    -1.391717078671     1.007825032230
         H           -2.019691147974     1.577156370142     0.787017921329     1.007825032230
         H           -3.207381147974     1.030504370142    -0.417467078671     1.007825032230
         H           -1.757373147974     1.925873370142    -0.923633078671     1.007825032230
         H           -1.821461147974    -0.870474629858     1.632436921329     1.007825032230
         H           -1.405810147974    -2.154950629858     0.480013921329     1.007825032230
         H           -3.002434147974    -1.382755629858     0.410936921329     1.007825032230
         H            2.959056852026    -1.245359629858    -0.257015078671     1.007825032230
         H            2.806224852026     1.399229370142     0.677564921329     1.007825032230

  Running in c1 symmetry.

  Rotational constants: A =      0.14536  B =      0.05294  C =      0.04266 [cm^-1]
  Rotational constants: A =   4357.67333  B =   1587.00076  C =   1278.86216 [MHz]
  Nuclear repulsion =  372.333386996938145

  Charge       = 0
  Multiplicity = 1
  Electrons    = 60
  Nalpha       = 30
  Nbeta        = 30

  ==> Algorithm <==

  SCF Algorithm Type is DF.
  DIIS enabled.
  MOM disabled.
  Fractional occupation disabled.
  Guess Type is SAD.
  Energy threshold   = 1.00e-10
  Density threshold  = 1.00e-10
  Integral threshold = 1.00e-12

  ==> Primary Basis <==

  Basis Set: AUG-CC-PVTZ
    Blend: AUG-CC-PVTZ
    Number of shells: 193
    Number of basis functions: 575
    Number of Cartesian functions: 665
    Spherical Harmonics?: true
    Max angular momentum: 3

   => Loading Basis Set <=

    Name: (AUG-CC-PVTZ AUX)
    Role: JKFIT
    Keyword: DF_BASIS_SCF
    atoms 1    entry O          line   286 file /home1/07844/xy3866/miniconda3/envs/p4env/share/psi4/basis/aug-cc-pvtz-jkfit.gbs 
    atoms 2    entry N          line   224 file /home1/07844/xy3866/miniconda3/envs/p4env/share/psi4/basis/aug-cc-pvtz-jkfit.gbs 
    atoms 3-8  entry C          line   162 file /home1/07844/xy3866/miniconda3/envs/p4env/share/psi4/basis/aug-cc-pvtz-jkfit.gbs 
    atoms 9-17 entry H          line    70 file /home1/07844/xy3866/miniconda3/envs/p4env/share/psi4/basis/aug-cc-pvtz-jkfit.gbs 

  ==> Integral Setup <==

  DFHelper Memory: AOs need 3.034 GiB; user supplied 22.352 GiB. Using in-core AOs.

  ==> MemDFJK: Density-Fitted J/K Matrices <==

    J tasked:                   Yes
    K tasked:                   Yes
    wK tasked:                   No
    OpenMP threads:              32
    Memory [MiB]:             22888
    Algorithm:                 Core
    Schwarz Cutoff:           1E-12
    Mask sparsity (%):       6.2736
    Fitting Condition:        1E-10

   => Auxiliary Basis Set <=

  Basis Set: (AUG-CC-PVTZ AUX)
    Blend: AUG-CC-PVTZ-JKFIT
    Number of shells: 366
    Number of basis functions: 1246
    Number of Cartesian functions: 1543
    Spherical Harmonics?: true
    Max angular momentum: 4

  Minimum eigenvalue in the overlap matrix is 3.2120721591E-06.
  Reciprocal condition number of the overlap matrix is 1.6621090150E-07.
    Using symmetric orthogonalization.

  ==> Pre-Iterations <==

  SCF Guess: Superposition of Atomic Densities via on-the-fly atomic UHF (no occupation information).

   -------------------------
    Irrep   Nso     Nmo    
   -------------------------
     A        575     575 
   -------------------------
    Total     575     575
   -------------------------

  ==> Iterations <==

                           Total Energy        Delta E     RMS |[F,P]|

   @DF-RHF iter SAD:  -361.32909324837220   -3.61329e+02   0.00000e+00 
   @DF-RHF iter   1:  -361.62682250717745   -2.97729e-01   1.12276e-03 DIIS
   @DF-RHF iter   2:  -361.82601389044476   -1.99191e-01   5.36976e-04 DIIS
   @DF-RHF iter   3:  -361.86960813105719   -4.35942e-02   1.33457e-04 DIIS
   @DF-RHF iter   4:  -361.87326932424412   -3.66119e-03   6.69175e-05 DIIS
   @DF-RHF iter   5:  -361.87402555034515   -7.56226e-04   1.07930e-05 DIIS
   @DF-RHF iter   6:  -361.87406619546283   -4.06451e-05   4.75159e-06 DIIS
   @DF-RHF iter   7:  -361.87407335613148   -7.16067e-06   1.73321e-06 DIIS
   @DF-RHF iter   8:  -361.87407471948256   -1.36335e-06   6.77539e-07 DIIS
   @DF-RHF iter   9:  -361.87407495691059   -2.37428e-07   1.88995e-07 DIIS
   @DF-RHF iter  10:  -361.87407497385720   -1.69466e-08   5.96256e-08 DIIS
   @DF-RHF iter  11:  -361.87407497522378   -1.36657e-09   1.64163e-08 DIIS
   @DF-RHF iter  12:  -361.87407497533655   -1.12777e-10   7.55788e-09 DIIS
   @DF-RHF iter  13:  -361.87407497535764   -2.10889e-11   3.24678e-09 DIIS
   @DF-RHF iter  14:  -361.87407497536287   -5.22959e-12   9.51097e-10 DIIS
   @DF-RHF iter  15:  -361.87407497536282    5.68434e-14   4.09833e-10 DIIS
   @DF-RHF iter  16:  -361.87407497536333   -5.11591e-13   1.72417e-10 DIIS
   @DF-RHF iter  17:  -361.87407497536361   -2.84217e-13   9.78064e-11 DIIS
  Energy and wave function converged.


  ==> Post-Iterations <==

    Orbital Energies [Eh]
    ---------------------

    Doubly Occupied:                                                      

       1A    -20.630539     2A    -15.560491     3A    -11.333836  
       4A    -11.290972     5A    -11.259761     6A    -11.251585  
       7A    -11.225214     8A    -11.217274     9A     -1.470149  
      10A     -1.229391    11A     -1.103598    12A     -1.005669  
      13A     -0.939099    14A     -0.858708    15A     -0.825934  
      16A     -0.770085    17A     -0.713411    18A     -0.659712  
      19A     -0.635746    20A     -0.606223    21A     -0.601413  
      22A     -0.569884    23A     -0.557862    24A     -0.541971  
      25A     -0.506113    26A     -0.491298    27A     -0.489793  
      28A     -0.455618    29A     -0.449966    30A     -0.331882  

    Virtual:                                                              

      31A      0.028182    32A      0.031817    33A      0.037219  
      34A      0.040349    35A      0.047651    36A      0.052898  
      37A      0.061674    38A      0.065354    39A      0.067298  
      40A      0.088808    41A      0.095148    42A      0.102304  
      43A      0.105600    44A      0.110787    45A      0.117812  
      46A      0.118986    47A      0.126384    48A      0.128697  
      49A      0.129579    50A      0.130649    51A      0.136884  
      52A      0.143060    53A      0.148747    54A      0.156294  
      55A      0.158273    56A      0.162955    57A      0.166485  
      58A      0.176922    59A      0.180888    60A      0.196568  
      61A      0.201175    62A      0.209965    63A      0.217511  
      64A      0.220528    65A      0.226671    66A      0.234725  
      67A      0.243360    68A      0.244985    69A      0.252502  
      70A      0.260145    71A      0.269821    72A      0.272846  
      73A      0.285628    74A      0.287679    75A      0.295851  
      76A      0.297308    77A      0.303330    78A      0.309603  
      79A      0.314851    80A      0.324980    81A      0.326870  
      82A      0.336353    83A      0.345646    84A      0.349331  
      85A      0.352240    86A      0.355504    87A      0.364864  
      88A      0.372963    89A      0.376423    90A      0.379461  
      91A      0.379720    92A      0.391494    93A      0.397582  
      94A      0.402534    95A      0.406727    96A      0.412200  
      97A      0.415301    98A      0.423455    99A      0.428661  
     100A      0.430888   101A      0.436530   102A      0.438406  
     103A      0.447772   104A      0.454428   105A      0.457488  
     106A      0.463698   107A      0.466693   108A      0.469261  
     109A      0.474313   110A      0.480302   111A      0.487535  
     112A      0.492652   113A      0.496189   114A      0.501330  
     115A      0.504876   116A      0.513379   117A      0.519534  
     118A      0.522464   119A      0.524769   120A      0.535158  
     121A      0.540139   122A      0.541540   123A      0.546365  
     124A      0.555475   125A      0.560916   126A      0.564682  
     127A      0.571760   128A      0.581489   129A      0.584847  
     130A      0.590845   131A      0.603414   132A      0.608705  
     133A      0.614990   134A      0.623634   135A      0.630743  
     136A      0.632094   137A      0.642504   138A      0.649473  
     139A      0.658453   140A      0.673787   141A      0.684693  
     142A      0.687532   143A      0.701067   144A      0.707737  
     145A      0.713833   146A      0.732549   147A      0.750046  
     148A      0.753307   149A      0.761161   150A      0.768740  
     151A      0.781820   152A      0.789155   153A      0.799602  
     154A      0.803267   155A      0.806949   156A      0.811754  
     157A      0.829681   158A      0.834542   159A      0.835275  
     160A      0.851879   161A      0.853537   162A      0.859313  
     163A      0.864256   164A      0.872179   165A      0.884013  
     166A      0.891652   167A      0.894042   168A      0.904131  
     169A      0.913216   170A      0.922282   171A      0.930855  
     172A      0.933354   173A      0.935621   174A      0.949166  
     175A      0.950357   176A      0.956633   177A      0.962834  
     178A      0.970927   179A      0.974476   180A      0.978034  
     181A      0.987773   182A      0.992709   183A      0.993056  
     184A      1.001801   185A      1.005633   186A      1.020473  
     187A      1.027888   188A      1.039287   189A      1.043054  
     190A      1.044854   191A      1.063246   192A      1.076121  
     193A      1.076513   194A      1.088280   195A      1.091105  
     196A      1.098286   197A      1.101368   198A      1.108391  
     199A      1.113397   200A      1.120376   201A      1.126783  
     202A      1.132075   203A      1.134818   204A      1.140909  
     205A      1.141580   206A      1.156001   207A      1.168695  
     208A      1.180162   209A      1.182496   210A      1.187153  
     211A      1.193935   212A      1.200557   213A      1.214174  
     214A      1.218269   215A      1.224302   216A      1.234758  
     217A      1.240007   218A      1.240868   219A      1.255469  
     220A      1.262565   221A      1.273284   222A      1.283296  
     223A      1.301275   224A      1.307288   225A      1.318351  
     226A      1.327706   227A      1.340943   228A      1.354162  
     229A      1.361188   230A      1.377866   231A      1.381767  
     232A      1.393871   233A      1.408388   234A      1.412341  
     235A      1.425041   236A      1.431464   237A      1.444444  
     238A      1.449712   239A      1.459232   240A      1.471610  
     241A      1.487953   242A      1.497006   243A      1.501828  
     244A      1.504732   245A      1.514712   246A      1.535002  
     247A      1.543263   248A      1.545981   249A      1.559060  
     250A      1.565628   251A      1.577023   252A      1.582425  
     253A      1.590567   254A      1.601326   255A      1.611053  
     256A      1.626626   257A      1.641078   258A      1.645749  
     259A      1.652187   260A      1.663075   261A      1.664241  
     262A      1.690306   263A      1.692984   264A      1.706004  
     265A      1.711519   266A      1.719282   267A      1.724131  
     268A      1.738488   269A      1.751296   270A      1.752851  
     271A      1.758735   272A      1.766291   273A      1.767955  
     274A      1.783645   275A      1.795110   276A      1.806705  
     277A      1.816946   278A      1.822948   279A      1.831037  
     280A      1.838916   281A      1.848257   282A      1.864606  
     283A      1.868565   284A      1.876920   285A      1.898475  
     286A      1.904469   287A      1.910933   288A      1.925739  
     289A      1.930838   290A      1.944548   291A      1.957903  
     292A      1.962381   293A      1.964308   294A      1.984546  
     295A      1.989016   296A      2.009084   297A      2.011451  
     298A      2.014176   299A      2.043316   300A      2.062289  
     301A      2.069066   302A      2.070652   303A      2.091171  
     304A      2.095899   305A      2.100829   306A      2.124156  
     307A      2.143180   308A      2.147710   309A      2.156631  
     310A      2.169024   311A      2.185115   312A      2.211273  
     313A      2.222882   314A      2.225869   315A      2.239988  
     316A      2.250807   317A      2.263721   318A      2.269593  
     319A      2.275913   320A      2.289178   321A      2.302808  
     322A      2.313311   323A      2.329985   324A      2.340018  
     325A      2.350736   326A      2.364888   327A      2.376308  
     328A      2.384103   329A      2.407245   330A      2.423248  
     331A      2.439129   332A      2.453229   333A      2.483939  
     334A      2.490022   335A      2.513708   336A      2.515533  
     337A      2.525226   338A      2.550315   339A      2.561551  
     340A      2.584808   341A      2.590678   342A      2.602576  
     343A      2.620104   344A      2.639799   345A      2.679550  
     346A      2.704962   347A      2.724011   348A      2.731608  
     349A      2.753901   350A      2.807848   351A      2.845412  
     352A      2.860667   353A      2.882221   354A      2.934260  
     355A      2.942815   356A      3.004285   357A      3.032668  
     358A      3.039767   359A      3.080229   360A      3.105089  
     361A      3.120148   362A      3.149232   363A      3.209411  
     364A      3.226625   365A      3.253445   366A      3.287598  
     367A      3.311994   368A      3.326949   369A      3.335023  
     370A      3.361863   371A      3.394429   372A      3.406253  
     373A      3.421102   374A      3.432679   375A      3.462740  
     376A      3.473279   377A      3.499564   378A      3.511239  
     379A      3.520852   380A      3.529041   381A      3.542697  
     382A      3.562476   383A      3.577075   384A      3.591649  
     385A      3.633770   386A      3.641786   387A      3.653751  
     388A      3.659048   389A      3.678920   390A      3.686554  
     391A      3.694562   392A      3.709634   393A      3.720163  
     394A      3.735936   395A      3.744509   396A      3.752752  
     397A      3.759026   398A      3.765715   399A      3.785403  
     400A      3.788051   401A      3.795921   402A      3.813841  
     403A      3.833529   404A      3.846410   405A      3.853869  
     406A      3.856163   407A      3.865137   408A      3.877933  
     409A      3.896358   410A      3.905292   411A      3.923459  
     412A      3.937581   413A      3.949537   414A      3.958548  
     415A      3.968184   416A      3.977866   417A      3.991675  
     418A      3.992026   419A      4.009450   420A      4.025444  
     421A      4.039779   422A      4.056788   423A      4.063953  
     424A      4.068794   425A      4.082214   426A      4.093338  
     427A      4.131678   428A      4.139337   429A      4.159813  
     430A      4.175947   431A      4.179668   432A      4.189084  
     433A      4.194629   434A      4.219934   435A      4.226558  
     436A      4.240567   437A      4.250493   438A      4.261716  
     439A      4.289149   440A      4.294633   441A      4.301863  
     442A      4.312234   443A      4.318822   444A      4.332554  
     445A      4.363204   446A      4.372177   447A      4.381795  
     448A      4.395425   449A      4.413278   450A      4.433562  
     451A      4.452115   452A      4.464649   453A      4.489903  
     454A      4.511867   455A      4.533403   456A      4.545262  
     457A      4.561412   458A      4.574567   459A      4.595195  
     460A      4.596913   461A      4.618912   462A      4.645263  
     463A      4.650304   464A      4.679234   465A      4.698750  
     466A      4.713186   467A      4.723849   468A      4.749911  
     469A      4.782364   470A      4.796641   471A      4.814668  
     472A      4.831829   473A      4.852063   474A      4.874345  
     475A      4.884536   476A      4.891568   477A      4.903327  
     478A      4.910774   479A      4.926987   480A      4.958236  
     481A      4.973236   482A      4.991483   483A      5.019725  
     484A      5.036331   485A      5.047046   486A      5.058036  
     487A      5.095166   488A      5.113184   489A      5.125201  
     490A      5.134989   491A      5.166437   492A      5.177727  
     493A      5.196749   494A      5.217288   495A      5.234090  
     496A      5.248301   497A      5.276794   498A      5.288886  
     499A      5.306220   500A      5.318094   501A      5.324870  
     502A      5.365023   503A      5.384943   504A      5.411832  
     505A      5.442473   506A      5.456959   507A      5.474262  
     508A      5.482537   509A      5.509757   510A      5.518042  
     511A      5.554022   512A      5.574789   513A      5.617098  
     514A      5.653483   515A      5.676237   516A      5.687942  
     517A      5.698547   518A      5.726253   519A      5.753009  
     520A      5.774215   521A      5.807292   522A      5.829959  
     523A      5.836709   524A      5.857212   525A      5.866062  
     526A      5.897300   527A      5.902039   528A      5.931110  
     529A      5.968567   530A      6.075457   531A      6.081191  
     532A      6.082503   533A      6.120828   534A      6.137672  
     535A      6.194237   536A      6.211954   537A      6.229547  
     538A      6.251607   539A      6.288023   540A      6.319140  
     541A      6.335597   542A      6.389225   543A      6.408963  
     544A      6.537491   545A      6.602693   546A      6.669317  
     547A      6.694949   548A      6.729120   549A      6.828683  
     550A      6.851338   551A      6.879407   552A      6.909151  
     553A      6.916883   554A      6.943990   555A      6.982126  
     556A      7.054597   557A      7.077525   558A      7.151883  
     559A      7.154508   560A      7.450929   561A      7.559651  
     562A      7.613880   563A      7.757955   564A      7.772175  
     565A      7.859676   566A      8.370423   567A      8.415434  
     568A     14.932758   569A     16.797177   570A     17.130107  
     571A     17.861817   572A     17.964931   573A     18.343388  
     574A     19.168777   575A     20.003148  

    Final Occupation by Irrep:
              A 
    DOCC [    30 ]

  @DF-RHF Final Energy:  -361.87407497536361

   => Energetics <=

    Nuclear Repulsion Energy =            372.3333869969381453
    One-Electron Energy =               -1229.2485301980370878
    Two-Electron Energy =                 495.0410682257353869
    Total Energy =                       -361.8740749753636123

Computation Completed

*** tstop() called on c402-053.stampede2.tacc.utexas.edu at Sat Feb 27 15:47:36 2021
Module time:
	user time   =     443.03 seconds =       7.38 minutes
	system time =      34.87 seconds =       0.58 minutes
	total time  =         27 seconds =       0.45 minutes
Total time:
	user time   =     443.03 seconds =       7.38 minutes
	system time =      34.87 seconds =       0.58 minutes
	total time  =         27 seconds =       0.45 minutes
   => Loading Basis Set <=

    Name: (AUG-CC-PVTZ AUX)
    Role: RIFIT
    Keyword: DF_BASIS_MP2
    atoms 1    entry O          line   264 file /home1/07844/xy3866/miniconda3/envs/p4env/share/psi4/basis/aug-cc-pvtz-ri.gbs 
    atoms 2    entry N          line   206 file /home1/07844/xy3866/miniconda3/envs/p4env/share/psi4/basis/aug-cc-pvtz-ri.gbs 
    atoms 3-8  entry C          line   148 file /home1/07844/xy3866/miniconda3/envs/p4env/share/psi4/basis/aug-cc-pvtz-ri.gbs 
    atoms 9-17 entry H          line    30 file /home1/07844/xy3866/miniconda3/envs/p4env/share/psi4/basis/aug-cc-pvtz-ri.gbs 


*** tstart() called on c402-053.stampede2.tacc.utexas.edu
*** at Sat Feb 27 15:47:37 2021


  //>>>>>>>>>>>>>>>>>>>>>>>>>>>>>>>>>>>//
  //               DFMP2               //
  //<<<<<<<<<<<<<<<<<<<<<<<<<<<<<<<<<<<//

	 --------------------------------------------------------
	                          DF-MP2                         
	      2nd-Order Density-Fitted Moller-Plesset Theory     
	              RMP2 Wavefunction,  32 Threads             
	                                                         
	        Rob Parrish, Justin Turney, Andy Simmonett,      
	           Ed Hohenstein, and C. David Sherrill          
	 --------------------------------------------------------

   => Auxiliary Basis Set <=

  Basis Set: (AUG-CC-PVTZ AUX)
    Blend: AUG-CC-PVTZ-RI
    Number of shells: 350
    Number of basis functions: 1262
    Number of Cartesian functions: 1583
    Spherical Harmonics?: true
    Max angular momentum: 4

	 --------------------------------------------------------
	                 NBF =   575, NAUX =  1262
	 --------------------------------------------------------
	   CLASS    FOCC     OCC    AOCC    AVIR     VIR    FVIR
	   PAIRS       0      30      30     545     545       0
	 --------------------------------------------------------

  DFHelper Memory: AOs need 3.117 GiB; user supplied 22.352 GiB. Using in-core AOs.


         ------------------------------------------------------------
                                     CPHF                           
                                  Rob Parrish                       
         ------------------------------------------------------------

  ==> Geometry <==

    Molecular point group: c1
    Full point group: C1

    Geometry (in Angstrom), charge = 0, multiplicity = 1:

       Center              X                  Y                   Z               Mass       
    ------------   -----------------  -----------------  -----------------  -----------------
         O            0.889983852026    -1.003029629858    -0.424393078671    15.994914619570
         N            0.694299852026     1.107369370142     0.310821921329    14.003074004430
         C           -1.398044147974    -0.145192629858    -0.366354078671    12.000000000000
         C            0.059448652026     0.064846870142    -0.124134278671    12.000000000000
         C           -2.141107147974     1.180299370142    -0.223706078671    12.000000000000
         C           -1.938512147974    -1.207842629858     0.597915921329    12.000000000000
         C            2.145045852026    -0.553892629858    -0.105227078671    12.000000000000
         C            2.030420852026     0.726595370142     0.340648921329    12.000000000000
         H           -1.525477147974    -0.518318629858    -1.391717078671     1.007825032230
         H           -2.019691147974     1.577156370142     0.787017921329     1.007825032230
         H           -3.207381147974     1.030504370142    -0.417467078671     1.007825032230
         H           -1.757373147974     1.925873370142    -0.923633078671     1.007825032230
         H           -1.821461147974    -0.870474629858     1.632436921329     1.007825032230
         H           -1.405810147974    -2.154950629858     0.480013921329     1.007825032230
         H           -3.002434147974    -1.382755629858     0.410936921329     1.007825032230
         H            2.959056852026    -1.245359629858    -0.257015078671     1.007825032230
         H            2.806224852026     1.399229370142     0.677564921329     1.007825032230

  Nuclear repulsion =  372.333386996938145
  Reference energy  = -361.874074975363612

  ==> Basis Set <==

  Basis Set: AUG-CC-PVTZ
    Blend: AUG-CC-PVTZ
    Number of shells: 193
    Number of basis functions: 575
    Number of Cartesian functions: 665
    Spherical Harmonics?: true
    Max angular momentum: 3

  ==> CGRSolver (by Rob Parrish) <==

   Number of roots    =         1
   Preconditioning    =    JACOBI
   Convergence cutoff =     1E-06
   Maximum iterations =       100

  ==> CPHFRHamiltonian (by Rob Parrish) <== 

  ==> MemDFJK: Density-Fitted J/K Matrices <==

    J tasked:                   Yes
    K tasked:                   Yes
    wK tasked:                   No
    OpenMP threads:              32
    Memory [MiB]:             22888
    Algorithm:                 Core
    Schwarz Cutoff:           1E-12
    Mask sparsity (%):       3.5605
    Fitting Condition:        1E-10

   => Auxiliary Basis Set <=

  Basis Set: (AUG-CC-PVTZ AUX)
    Blend: AUG-CC-PVTZ-JKFIT
    Number of shells: 366
    Number of basis functions: 1246
    Number of Cartesian functions: 1543
    Spherical Harmonics?: true
    Max angular momentum: 4

  ==> CPHF Iterations <==

  => Iterations <=

             Iter  Converged  Remaining    Residual
  CGR           1          0          1   1.159E-01
  CGR           2          0          1   4.068E-02
  CGR           3          0          1   1.967E-02
  CGR           4          0          1   6.509E-03
  CGR           5          0          1   2.754E-03
  CGR           6          0          1   1.046E-03
  CGR           7          0          1   3.962E-04
  CGR           8          0          1   1.523E-04
  CGR           9          0          1   5.426E-05
  CGR          10          0          1   1.376E-05
  CGR          11          0          1   3.897E-06
  CGR          12          1          0   9.342E-07

    CGRSolver converged.

	-----------------------------------------------------------
	 ==================> DF-MP2 Energies <==================== 
	-----------------------------------------------------------
	 Reference Energy          =    -361.8740749753636123 [Eh]
	 Singles Energy            =      -0.0000000000000000 [Eh]
	 Same-Spin Energy          =      -0.3798754846829435 [Eh]
	 Opposite-Spin Energy      =      -1.2184382005048864 [Eh]
	 Correlation Energy        =      -1.5983136851878299 [Eh]
	 Total Energy              =    -363.4723886605514167 [Eh]
	-----------------------------------------------------------
	 ================> DF-SCS-MP2 Energies <================== 
	-----------------------------------------------------------
	 SCS Same-Spin Scale       =       0.3333333333333333 [-]
	 SCS Opposite-Spin Scale   =       1.2000000000000000 [-]
	 SCS Same-Spin Energy      =      -0.1266251615609812 [Eh]
	 SCS Opposite-Spin Energy  =      -1.4621258406058637 [Eh]
	 SCS Correlation Energy    =      -1.5887510021668450 [Eh]
	 SCS Total Energy          =    -363.4628259775304855 [Eh]
	-----------------------------------------------------------



Properties will be evaluated at   0.000000,   0.000000,   0.000000 [a0]

Properties computed using the MP2 density matrix

  Nuclear Dipole Moment: [e a0]
     X:    -8.4109      Y:    -0.2322      Z:     0.9328

  Electronic Dipole Moment: [e a0]
     X:     8.4717      Y:    -0.2462      Z:    -1.0723

  Dipole Moment: [e a0]
     X:     0.0608      Y:    -0.4783      Z:    -0.1395     Total:     0.5020

  Dipole Moment: [D]
     X:     0.1546      Y:    -1.2158      Z:    -0.3546     Total:     1.2759


*** tstop() called on c402-053.stampede2.tacc.utexas.edu at Sat Feb 27 15:50:00 2021
Module time:
	user time   =    1168.31 seconds =      19.47 minutes
	system time =      45.18 seconds =       0.75 minutes
	total time  =        143 seconds =       2.38 minutes
Total time:
	user time   =    1612.18 seconds =      26.87 minutes
	system time =      80.07 seconds =       1.33 minutes
	total time  =        171 seconds =       2.85 minutes

    Psi4 stopped on: Saturday, 27 February 2021 03:50PM
    Psi4 wall time for execution: 0:02:51.07

*** Psi4 exiting successfully. Buy a developer a beer!
