
    -----------------------------------------------------------------------
          Psi4: An Open-Source Ab Initio Electronic Structure Package
                               Psi4 1.3.2 release

                         Git: Rev {HEAD} ecbda83 


    R. M. Parrish, L. A. Burns, D. G. A. Smith, A. C. Simmonett,
    A. E. DePrince III, E. G. Hohenstein, U. Bozkaya, A. Yu. Sokolov,
    R. Di Remigio, R. M. Richard, J. F. Gonthier, A. M. James,
    H. R. McAlexander, A. Kumar, M. Saitow, X. Wang, B. P. Pritchard,
    P. Verma, H. F. Schaefer III, K. Patkowski, R. A. King, E. F. Valeev,
    F. A. Evangelista, J. M. Turney, T. D. Crawford, and C. D. Sherrill,
    J. Chem. Theory Comput. 13(7) pp 3185--3197 (2017).
    (doi: 10.1021/acs.jctc.7b00174)


                         Additional Contributions by
    P. Kraus, H. Kruse, M. H. Lechner, M. C. Schieber, R. A. Shaw,
    A. Alenaizan, R. Galvelis, Z. L. Glick, S. Lehtola, and J. P. Misiewicz

    -----------------------------------------------------------------------


    Psi4 started on: Saturday, 06 February 2021 04:21PM

    Process ID: 1804108
    Host:       node56.bme.utexas.edu
    PSIDATADIR: /home/xy3866/psi4conda/share/psi4
    Memory:     500.0 MiB
    Threads:    8
    
  ==> Input File <==

--------------------------------------------------------------------------
#psi4
#
memory 32 gb

molecule  {
0 1
  N       -1.7314010     0.6447010     0.0841650
  N       -1.4717187    -1.7014098    -0.2025493
  N        1.1113180     1.0210360    -0.2929590
  N        1.3650780    -1.3052570     0.2771500
  C       -0.8211750    -0.3840720    -0.0264870
  C        0.6302560    -0.2085840    -0.0077820
  C       -2.9774260     0.0775420    -0.0074450
  C       -2.7669850    -1.2782450    -0.1740670
  C        2.4478010     1.1517920    -0.2896530
  C        2.6936640    -1.1417610     0.2510410
  C        3.2993530     0.0833730    -0.0301630
  H       -3.8759520     0.6750340     0.0629310
  H       -3.5116600    -2.0553930    -0.2887470
  H        2.8330150     2.1453150    -0.5142540
  H        3.2873230    -2.0271970     0.4738100
  H        4.3785670     0.1979470    -0.0409660
  C       -1.4969110     2.0704780     0.2948980
  H       -0.7998500     2.2172910     1.1191120
  H       -1.0792200     2.5269500    -0.6013110
  H       -2.4567070     2.5274350     0.5414280
units angstrom
no_reorient  #important for SAPT in psi4, default
symmetry c1  #important for SAPT in psi4, default
}

set PROPERTIES_ORIGIN ["COM"]
properties('MP2/aug-cc-pvtz', properties = ['dipole'])
--------------------------------------------------------------------------

  Memory set to  29.802 GiB by Python driver.
    SCF Algorithm Type (re)set to DF.

*** tstart() called on node56.bme.utexas.edu
*** at Sat Feb  6 16:21:56 2021

   => Loading Basis Set <=

    Name: AUG-CC-PVTZ
    Role: ORBITAL
    Keyword: BASIS
    atoms 1-4          entry N          line   281 file /home/xy3866/psi4conda/share/psi4/basis/aug-cc-pvtz.gbs 
    atoms 5-11, 17     entry C          line   235 file /home/xy3866/psi4conda/share/psi4/basis/aug-cc-pvtz.gbs 
    atoms 12-16, 18-20 entry H          line    36 file /home/xy3866/psi4conda/share/psi4/basis/aug-cc-pvtz.gbs 


         ---------------------------------------------------------
                                   SCF
               by Justin Turney, Rob Parrish, Andy Simmonett
                          and Daniel G. A. Smith
                              RHF Reference
                        8 Threads,  30517 MiB Core
         ---------------------------------------------------------

  ==> Geometry <==

    Molecular point group: c1
    Full point group: C1

    Geometry (in Angstrom), charge = 0, multiplicity = 1:

       Center              X                  Y                   Z               Mass       
    ------------   -----------------  -----------------  -----------------  -----------------
         N           -1.735727053850     0.695145563438     0.090394129528    14.003074004430
         N           -1.476044753850    -1.650965236562    -0.196320170472    14.003074004430
         N            1.106991946150     1.071480563438    -0.286729870472    14.003074004430
         N            1.360751946150    -1.254812436562     0.283379129528    14.003074004430
         C           -0.825501053850    -0.333627436562    -0.020257870472    12.000000000000
         C            0.625929946150    -0.158139436562    -0.001552870472    12.000000000000
         C           -2.981752053850     0.127986563438    -0.001215870472    12.000000000000
         C           -2.771311053850    -1.227800436562    -0.167837870472    12.000000000000
         C            2.443474946150     1.202236563438    -0.283423870472    12.000000000000
         C            2.689337946150    -1.091316436562     0.257270129528    12.000000000000
         C            3.295026946150     0.133817563438    -0.023933870472    12.000000000000
         H           -3.880278053850     0.725478563438     0.069160129528     1.007825032230
         H           -3.515986053850    -2.004948436562    -0.282517870472     1.007825032230
         H            2.828688946150     2.195759563438    -0.508024870472     1.007825032230
         H            3.282996946150    -1.976752436562     0.480039129528     1.007825032230
         H            4.374240946150     0.248391563438    -0.034736870472     1.007825032230
         C           -1.501237053850     2.120922563438     0.301127129528    12.000000000000
         H           -0.804176053850     2.267735563438     1.125341129528     1.007825032230
         H           -1.083546053850     2.577394563438    -0.595081870472     1.007825032230
         H           -2.461033053850     2.577879563438     0.547657129528     1.007825032230

  Running in c1 symmetry.

  Rotational constants: A =      0.07352  B =      0.02322  C =      0.01797 [cm^-1]
  Rotational constants: A =   2204.13064  B =    696.22292  C =    538.84181 [MHz]
  Nuclear repulsion =  650.252936641282986

  Charge       = 0
  Multiplicity = 1
  Electrons    = 84
  Nalpha       = 42
  Nbeta        = 42

  ==> Algorithm <==

  SCF Algorithm Type is DF.
  DIIS enabled.
  MOM disabled.
  Fractional occupation disabled.
  Guess Type is SAD.
  Energy threshold   = 1.00e-10
  Density threshold  = 1.00e-10
  Integral threshold = 0.00e+00

  ==> Primary Basis <==

  Basis Set: AUG-CC-PVTZ
    Blend: AUG-CC-PVTZ
    Number of shells: 240
    Number of basis function: 736
    Number of Cartesian functions: 860
    Spherical Harmonics?: true
    Max angular momentum: 3

   => Loading Basis Set <=

    Name: (AUG-CC-PVTZ AUX)
    Role: JKFIT
    Keyword: DF_BASIS_SCF
    atoms 1-4          entry N          line   224 file /home/xy3866/psi4conda/share/psi4/basis/aug-cc-pvtz-jkfit.gbs 
    atoms 5-11, 17     entry C          line   162 file /home/xy3866/psi4conda/share/psi4/basis/aug-cc-pvtz-jkfit.gbs 
    atoms 12-16, 18-20 entry H          line    70 file /home/xy3866/psi4conda/share/psi4/basis/aug-cc-pvtz-jkfit.gbs 

  ==> Pre-Iterations <==

   -------------------------------------------------------
    Irrep   Nso     Nmo     Nalpha   Nbeta   Ndocc  Nsocc
   -------------------------------------------------------
     A        736     736       0       0       0       0
   -------------------------------------------------------
    Total     736     736      42      42      42       0
   -------------------------------------------------------

  ==> Integral Setup <==

  DFHelper Memory: AOs need 6.173 GiB; user supplied 22.352 GiB. Using in-core AOs.

  ==> MemDFJK: Density-Fitted J/K Matrices <==

    J tasked:                   Yes
    K tasked:                   Yes
    wK tasked:                   No
    OpenMP threads:               8
    Memory [MiB]:             22888
    Algorithm:                 Disk
    Schwarz Cutoff:           1E-12
    Mask sparsity (%):       7.8232
    Fitting Condition:        1E-10

   => Auxiliary Basis Set <=

  Basis Set: (AUG-CC-PVTZ AUX)
    Blend: AUG-CC-PVTZ-JKFIT
    Number of shells: 472
    Number of basis function: 1616
    Number of Cartesian functions: 2012
    Spherical Harmonics?: true
    Max angular momentum: 4

  Minimum eigenvalue in the overlap matrix is 1.1801791152E-06.
  Using Symmetric Orthogonalization.

  SCF Guess: Superposition of Atomic Densities via on-the-fly atomic UHF.

  ==> Iterations <==

                           Total Energy        Delta E     RMS |[F,P]|

   @DF-RHF iter SAD:  -524.83093610132198   -5.24831e+02   0.00000e+00 
   @DF-RHF iter   1:  -525.27091052333958   -4.39974e-01   8.89385e-04 DIIS
   @DF-RHF iter   2:  -525.48228781317584   -2.11377e-01   4.29756e-04 DIIS
   @DF-RHF iter   3:  -525.52366912059051   -4.13813e-02   1.28745e-04 DIIS
   @DF-RHF iter   4:  -525.52833550358844   -4.66638e-03   5.61388e-05 DIIS
   @DF-RHF iter   5:  -525.52921913365151   -8.83630e-04   1.06293e-05 DIIS
   @DF-RHF iter   6:  -525.52926061497328   -4.14813e-05   3.93075e-06 DIIS
   @DF-RHF iter   7:  -525.52926798616841   -7.37120e-06   1.31156e-06 DIIS
   @DF-RHF iter   8:  -525.52926945073136   -1.46456e-06   5.61459e-07 DIIS
   @DF-RHF iter   9:  -525.52926979272047   -3.41989e-07   2.61005e-07 DIIS
   @DF-RHF iter  10:  -525.52926987633157   -8.36111e-08   1.23985e-07 DIIS
   @DF-RHF iter  11:  -525.52926989552941   -1.91978e-08   5.97165e-08 DIIS
   @DF-RHF iter  12:  -525.52926989960065   -4.07124e-09   2.71096e-08 DIIS
   @DF-RHF iter  13:  -525.52926990059473   -9.94078e-10   1.06306e-08 DIIS
   @DF-RHF iter  14:  -525.52926990069147   -9.67475e-11   5.86443e-09 DIIS
   @DF-RHF iter  15:  -525.52926990072444   -3.29692e-11   2.38978e-09 DIIS
   @DF-RHF iter  16:  -525.52926990073161   -7.16227e-12   1.35145e-09 DIIS
   @DF-RHF iter  17:  -525.52926990073490   -3.29692e-12   4.12383e-10 DIIS
   @DF-RHF iter  18:  -525.52926990073411    7.95808e-13   1.94185e-10 DIIS
   @DF-RHF iter  19:  -525.52926990073342    6.82121e-13   6.66443e-11 DIIS
  Energy and wave function converged.


  ==> Post-Iterations <==

    Orbital Energies [Eh]
    ---------------------

    Doubly Occupied:                                                      

       1A    -15.642239     2A    -15.579923     3A    -15.574566  
       4A    -15.565758     5A    -11.334333     6A    -11.309535  
       7A    -11.305974     8A    -11.302871     9A    -11.279794  
      10A    -11.258354    11A    -11.251447    12A    -11.244311  
      13A     -1.336959    14A     -1.307171    15A     -1.196515  
      16A     -1.167091    17A     -1.088603    18A     -1.001630  
      19A     -0.978470    20A     -0.898901    21A     -0.892547  
      22A     -0.797723    23A     -0.780852    24A     -0.730120  
      25A     -0.702645    26A     -0.683989    27A     -0.647908  
      28A     -0.639814    29A     -0.606036    30A     -0.595436  
      31A     -0.588570    32A     -0.580121    33A     -0.568147  
      34A     -0.539017    35A     -0.535444    36A     -0.481971  
      37A     -0.446534    38A     -0.424573    39A     -0.414123  
      40A     -0.393914    41A     -0.382330    42A     -0.288987  

    Virtual:                                                              

      43A      0.022240    44A      0.027134    45A      0.033704  
      46A      0.040712    47A      0.045096    48A      0.045528  
      49A      0.057501    50A      0.062732    51A      0.064762  
      52A      0.075123    53A      0.077105    54A      0.084793  
      55A      0.090481    56A      0.100058    57A      0.103457  
      58A      0.108554    59A      0.109346    60A      0.112118  
      61A      0.115116    62A      0.118647    63A      0.119859  
      64A      0.124315    65A      0.124654    66A      0.127635  
      67A      0.131245    68A      0.141309    69A      0.144405  
      70A      0.145970    71A      0.152280    72A      0.155993  
      73A      0.163740    74A      0.167212    75A      0.172332  
      76A      0.180859    77A      0.184905    78A      0.192526  
      79A      0.198690    80A      0.200298    81A      0.204709  
      82A      0.214657    83A      0.219752    84A      0.227007  
      85A      0.230390    86A      0.235008    87A      0.238490  
      88A      0.239639    89A      0.245510    90A      0.250327  
      91A      0.255151    92A      0.258619    93A      0.262154  
      94A      0.266220    95A      0.269602    96A      0.275014  
      97A      0.281076    98A      0.287048    99A      0.295803  
     100A      0.302080   101A      0.306535   102A      0.308821  
     103A      0.314413   104A      0.315251   105A      0.321362  
     106A      0.323445   107A      0.333063   108A      0.333709  
     109A      0.338676   110A      0.343854   111A      0.351645  
     112A      0.354482   113A      0.357289   114A      0.361530  
     115A      0.365504   116A      0.366185   117A      0.371417  
     118A      0.380584   119A      0.384268   120A      0.388055  
     121A      0.392042   122A      0.396773   123A      0.400497  
     124A      0.406327   125A      0.410715   126A      0.413532  
     127A      0.422135   128A      0.422348   129A      0.433987  
     130A      0.435019   131A      0.439364   132A      0.443623  
     133A      0.449262   134A      0.455118   135A      0.456203  
     136A      0.465608   137A      0.467230   138A      0.470092  
     139A      0.473409   140A      0.478184   141A      0.482353  
     142A      0.488805   143A      0.492122   144A      0.496610  
     145A      0.501741   146A      0.502282   147A      0.505290  
     148A      0.508512   149A      0.512156   150A      0.516905  
     151A      0.519601   152A      0.521225   153A      0.528740  
     154A      0.533547   155A      0.539744   156A      0.546084  
     157A      0.549930   158A      0.554540   159A      0.562052  
     160A      0.570204   161A      0.571815   162A      0.573375  
     163A      0.581525   164A      0.586302   165A      0.592970  
     166A      0.599785   167A      0.604913   168A      0.613737  
     169A      0.620952   170A      0.622729   171A      0.626693  
     172A      0.634806   173A      0.639064   174A      0.642120  
     175A      0.648186   176A      0.650545   177A      0.658528  
     178A      0.659595   179A      0.671470   180A      0.673691  
     181A      0.679311   182A      0.690434   183A      0.697758  
     184A      0.698852   185A      0.709277   186A      0.714824  
     187A      0.717876   188A      0.724121   189A      0.733960  
     190A      0.740313   191A      0.749850   192A      0.754577  
     193A      0.768305   194A      0.774518   195A      0.783058  
     196A      0.784722   197A      0.790007   198A      0.795778  
     199A      0.800284   200A      0.803779   201A      0.814355  
     202A      0.818854   203A      0.825105   204A      0.827679  
     205A      0.833364   206A      0.838782   207A      0.845000  
     208A      0.855684   209A      0.860412   210A      0.870621  
     211A      0.875848   212A      0.881590   213A      0.883588  
     214A      0.888446   215A      0.891256   216A      0.893028  
     217A      0.895536   218A      0.899921   219A      0.906761  
     220A      0.913120   221A      0.917520   222A      0.931381  
     223A      0.932541   224A      0.935725   225A      0.943088  
     226A      0.950453   227A      0.958223   228A      0.964450  
     229A      0.969674   230A      0.971688   231A      0.976903  
     232A      0.983466   233A      0.988733   234A      0.996381  
     235A      1.000339   236A      1.008861   237A      1.010770  
     238A      1.015922   239A      1.018653   240A      1.026000  
     241A      1.029527   242A      1.035402   243A      1.040358  
     244A      1.043498   245A      1.050931   246A      1.053961  
     247A      1.062568   248A      1.065835   249A      1.074886  
     250A      1.081599   251A      1.087732   252A      1.095619  
     253A      1.106964   254A      1.111747   255A      1.115028  
     256A      1.120036   257A      1.120662   258A      1.128691  
     259A      1.130880   260A      1.137554   261A      1.147230  
     262A      1.153163   263A      1.155224   264A      1.166679  
     265A      1.166941   266A      1.169176   267A      1.177236  
     268A      1.181535   269A      1.186774   270A      1.190355  
     271A      1.192898   272A      1.203693   273A      1.210273  
     274A      1.212627   275A      1.218253   276A      1.222691  
     277A      1.224985   278A      1.233500   279A      1.238948  
     280A      1.245840   281A      1.256795   282A      1.258234  
     283A      1.264996   284A      1.272937   285A      1.279957  
     286A      1.283841   287A      1.295468   288A      1.303818  
     289A      1.310952   290A      1.314967   291A      1.326302  
     292A      1.338556   293A      1.356065   294A      1.362220  
     295A      1.370168   296A      1.381680   297A      1.384715  
     298A      1.388958   299A      1.398132   300A      1.416745  
     301A      1.422637   302A      1.425133   303A      1.427948  
     304A      1.439797   305A      1.453894   306A      1.455787  
     307A      1.459896   308A      1.464045   309A      1.475552  
     310A      1.482625   311A      1.496679   312A      1.499191  
     313A      1.509918   314A      1.511613   315A      1.518643  
     316A      1.527353   317A      1.535972   318A      1.544318  
     319A      1.549080   320A      1.556779   321A      1.562433  
     322A      1.576644   323A      1.579652   324A      1.587437  
     325A      1.600157   326A      1.603577   327A      1.616804  
     328A      1.621678   329A      1.633962   330A      1.636641  
     331A      1.650898   332A      1.654435   333A      1.663165  
     334A      1.665643   335A      1.669302   336A      1.674964  
     337A      1.689435   338A      1.700118   339A      1.705610  
     340A      1.711245   341A      1.714202   342A      1.724275  
     343A      1.734664   344A      1.740101   345A      1.743976  
     346A      1.753854   347A      1.757213   348A      1.766117  
     349A      1.772891   350A      1.784008   351A      1.799837  
     352A      1.801292   353A      1.813466   354A      1.816556  
     355A      1.825961   356A      1.838390   357A      1.844069  
     358A      1.853208   359A      1.860481   360A      1.874826  
     361A      1.880021   362A      1.882621   363A      1.897148  
     364A      1.904942   365A      1.912314   366A      1.917938  
     367A      1.936651   368A      1.942821   369A      1.950635  
     370A      1.955696   371A      1.964702   372A      1.975838  
     373A      1.990310   374A      1.991148   375A      2.007407  
     376A      2.012676   377A      2.017224   378A      2.027732  
     379A      2.033431   380A      2.038949   381A      2.045988  
     382A      2.050340   383A      2.067407   384A      2.077241  
     385A      2.089505   386A      2.093431   387A      2.103638  
     388A      2.104741   389A      2.123115   390A      2.126880  
     391A      2.131464   392A      2.146689   393A      2.172754  
     394A      2.179555   395A      2.181389   396A      2.189468  
     397A      2.203448   398A      2.210412   399A      2.217893  
     400A      2.223675   401A      2.237407   402A      2.246231  
     403A      2.255901   404A      2.261017   405A      2.266411  
     406A      2.277703   407A      2.286393   408A      2.293759  
     409A      2.301014   410A      2.311688   411A      2.316927  
     412A      2.327607   413A      2.334542   414A      2.356954  
     415A      2.361855   416A      2.381067   417A      2.383681  
     418A      2.395926   419A      2.411266   420A      2.417913  
     421A      2.440863   422A      2.446308   423A      2.454454  
     424A      2.467792   425A      2.480701   426A      2.487959  
     427A      2.493212   428A      2.500765   429A      2.509036  
     430A      2.538022   431A      2.542647   432A      2.567289  
     433A      2.574035   434A      2.589321   435A      2.593433  
     436A      2.597284   437A      2.616438   438A      2.621365  
     439A      2.651748   440A      2.670532   441A      2.673936  
     442A      2.685463   443A      2.698551   444A      2.714099  
     445A      2.737916   446A      2.766552   447A      2.777155  
     448A      2.785921   449A      2.810052   450A      2.827879  
     451A      2.843228   452A      2.845394   453A      2.885892  
     454A      2.916031   455A      2.938670   456A      2.949931  
     457A      2.971111   458A      2.999374   459A      3.018081  
     460A      3.035848   461A      3.044149   462A      3.054914  
     463A      3.078376   464A      3.081231   465A      3.104705  
     466A      3.127042   467A      3.153101   468A      3.178926  
     469A      3.187838   470A      3.202379   471A      3.233545  
     472A      3.271149   473A      3.297573   474A      3.306525  
     475A      3.317775   476A      3.323982   477A      3.345293  
     478A      3.349752   479A      3.359004   480A      3.372403  
     481A      3.385575   482A      3.397869   483A      3.407629  
     484A      3.424640   485A      3.437685   486A      3.459726  
     487A      3.472790   488A      3.481617   489A      3.485579  
     490A      3.495574   491A      3.524323   492A      3.537299  
     493A      3.546123   494A      3.548722   495A      3.569976  
     496A      3.579239   497A      3.600436   498A      3.606469  
     499A      3.614502   500A      3.624214   501A      3.634995  
     502A      3.640436   503A      3.647571   504A      3.657024  
     505A      3.665993   506A      3.674510   507A      3.686535  
     508A      3.700445   509A      3.718905   510A      3.722989  
     511A      3.734212   512A      3.742572   513A      3.751366  
     514A      3.774559   515A      3.778101   516A      3.780670  
     517A      3.795677   518A      3.798170   519A      3.811663  
     520A      3.830793   521A      3.835048   522A      3.838725  
     523A      3.855109   524A      3.868558   525A      3.875350  
     526A      3.884192   527A      3.894062   528A      3.897210  
     529A      3.903967   530A      3.908695   531A      3.921046  
     532A      3.934915   533A      3.938827   534A      3.946321  
     535A      3.955647   536A      3.961823   537A      3.964375  
     538A      3.981134   539A      3.987066   540A      4.006349  
     541A      4.015448   542A      4.024999   543A      4.041206  
     544A      4.046260   545A      4.059432   546A      4.074349  
     547A      4.089520   548A      4.097165   549A      4.104423  
     550A      4.110010   551A      4.134685   552A      4.144788  
     553A      4.148703   554A      4.159915   555A      4.167485  
     556A      4.174493   557A      4.178502   558A      4.192903  
     559A      4.208354   560A      4.209024   561A      4.218191  
     562A      4.230439   563A      4.231540   564A      4.242562  
     565A      4.251716   566A      4.258715   567A      4.263527  
     568A      4.269967   569A      4.275532   570A      4.298001  
     571A      4.327040   572A      4.334353   573A      4.336035  
     574A      4.366301   575A      4.388678   576A      4.395463  
     577A      4.402993   578A      4.426538   579A      4.437680  
     580A      4.440832   581A      4.452628   582A      4.463495  
     583A      4.484914   584A      4.490801   585A      4.504029  
     586A      4.509340   587A      4.537618   588A      4.538145  
     589A      4.558778   590A      4.569021   591A      4.575629  
     592A      4.592577   593A      4.615620   594A      4.626110  
     595A      4.648314   596A      4.663739   597A      4.673482  
     598A      4.696812   599A      4.705199   600A      4.735745  
     601A      4.755297   602A      4.775429   603A      4.782021  
     604A      4.804044   605A      4.820431   606A      4.825020  
     607A      4.836938   608A      4.857176   609A      4.871987  
     610A      4.881519   611A      4.902030   612A      4.925748  
     613A      4.938934   614A      4.949304   615A      4.951542  
     616A      4.963962   617A      4.986488   618A      4.995416  
     619A      5.017889   620A      5.042335   621A      5.043861  
     622A      5.068796   623A      5.073851   624A      5.084178  
     625A      5.097975   626A      5.100249   627A      5.129175  
     628A      5.143020   629A      5.164050   630A      5.170104  
     631A      5.174233   632A      5.200361   633A      5.210648  
     634A      5.218945   635A      5.235698   636A      5.245410  
     637A      5.267140   638A      5.279816   639A      5.288601  
     640A      5.314712   641A      5.319179   642A      5.343281  
     643A      5.357175   644A      5.365440   645A      5.388347  
     646A      5.420092   647A      5.440223   648A      5.469751  
     649A      5.480439   650A      5.497992   651A      5.535517  
     652A      5.538224   653A      5.544260   654A      5.563848  
     655A      5.578455   656A      5.589222   657A      5.614262  
     658A      5.620830   659A      5.643340   660A      5.663988  
     661A      5.679475   662A      5.702895   663A      5.709978  
     664A      5.712426   665A      5.739451   666A      5.757668  
     667A      5.780501   668A      5.797220   669A      5.803783  
     670A      5.812221   671A      5.819976   672A      5.830421  
     673A      5.841120   674A      5.851028   675A      5.859534  
     676A      5.886417   677A      5.915194   678A      5.919782  
     679A      5.930728   680A      5.949981   681A      5.991350  
     682A      5.994854   683A      6.014128   684A      6.040217  
     685A      6.065757   686A      6.096437   687A      6.113565  
     688A      6.130636   689A      6.144511   690A      6.171659  
     691A      6.181494   692A      6.198552   693A      6.221831  
     694A      6.275420   695A      6.298174   696A      6.322651  
     697A      6.380442   698A      6.384024   699A      6.446638  
     700A      6.486816   701A      6.521775   702A      6.532433  
     703A      6.603472   704A      6.672881   705A      6.702740  
     706A      6.731286   707A      6.740693   708A      6.751377  
     709A      6.788031   710A      6.810558   711A      6.826480  
     712A      6.858773   713A      6.884795   714A      6.900172  
     715A      6.935290   716A      6.974368   717A      7.053498  
     718A      7.072150   719A      7.098974   720A      7.128499  
     721A      7.147329   722A      7.213915   723A      7.342165  
     724A      7.479472   725A     14.973448   726A     15.760747  
     727A     16.204367   728A     16.841124   729A     17.248710  
     730A     17.997071   731A     18.371907   732A     18.419393  
     733A     18.844799   734A     19.337645   735A     20.307339  
     736A     20.528535  

    Final Occupation by Irrep:
              A 
    DOCC [    42 ]

  @DF-RHF Final Energy:  -525.52926990073342

   => Energetics <=

    Nuclear Repulsion Energy =            650.2529366412829859
    One-Electron Energy =               -2002.8739184864371055
    Two-Electron Energy =                 827.0917119444206946
    Total Energy =                       -525.5292699007334249

Computation Completed

*** tstop() called on node56.bme.utexas.edu at Sat Feb  6 16:23:35 2021
Module time:
	user time   =     438.92 seconds =       7.32 minutes
	system time =      53.96 seconds =       0.90 minutes
	total time  =         99 seconds =       1.65 minutes
Total time:
	user time   =     438.92 seconds =       7.32 minutes
	system time =      53.96 seconds =       0.90 minutes
	total time  =         99 seconds =       1.65 minutes
   => Loading Basis Set <=

    Name: (AUG-CC-PVTZ AUX)
    Role: RIFIT
    Keyword: DF_BASIS_MP2
    atoms 1-4          entry N          line   206 file /home/xy3866/psi4conda/share/psi4/basis/aug-cc-pvtz-ri.gbs 
    atoms 5-11, 17     entry C          line   148 file /home/xy3866/psi4conda/share/psi4/basis/aug-cc-pvtz-ri.gbs 
    atoms 12-16, 18-20 entry H          line    30 file /home/xy3866/psi4conda/share/psi4/basis/aug-cc-pvtz-ri.gbs 


*** tstart() called on node56.bme.utexas.edu
*** at Sat Feb  6 16:23:35 2021


  //>>>>>>>>>>>>>>>>>>>>>>>>>>>>>>>>>>>//
  //               DFMP2               //
  //<<<<<<<<<<<<<<<<<<<<<<<<<<<<<<<<<<<//

	 --------------------------------------------------------
	                          DF-MP2                         
	      2nd-Order Density-Fitted Moller-Plesset Theory     
	              RMP2 Wavefunction,   8 Threads             
	                                                         
	        Rob Parrish, Justin Turney, Andy Simmonett,      
	           Ed Hohenstein, and C. David Sherrill          
	 --------------------------------------------------------

   => Auxiliary Basis Set <=

  Basis Set: (AUG-CC-PVTZ AUX)
    Blend: AUG-CC-PVTZ-RI
    Number of shells: 448
    Number of basis function: 1640
    Number of Cartesian functions: 2072
    Spherical Harmonics?: true
    Max angular momentum: 4

	 --------------------------------------------------------
	                 NBF =   736, NAUX =  1640
	 --------------------------------------------------------
	   CLASS    FOCC     OCC    AOCC    AVIR     VIR    FVIR
	   PAIRS       0      42      42     694     694       0
	 --------------------------------------------------------

  DFHelper Memory: AOs need 6.173 GiB; user supplied 22.352 GiB. Using in-core AOs.


         ------------------------------------------------------------
                                     CPHF                           
                                  Rob Parrish                       
         ------------------------------------------------------------

  ==> Geometry <==

    Molecular point group: c1
    Full point group: C1

    Geometry (in Angstrom), charge = 0, multiplicity = 1:

       Center              X                  Y                   Z               Mass       
    ------------   -----------------  -----------------  -----------------  -----------------
         N           -1.735727053850     0.695145563438     0.090394129528    14.003074004430
         N           -1.476044753850    -1.650965236562    -0.196320170472    14.003074004430
         N            1.106991946150     1.071480563438    -0.286729870472    14.003074004430
         N            1.360751946150    -1.254812436562     0.283379129528    14.003074004430
         C           -0.825501053850    -0.333627436562    -0.020257870472    12.000000000000
         C            0.625929946150    -0.158139436562    -0.001552870472    12.000000000000
         C           -2.981752053850     0.127986563438    -0.001215870472    12.000000000000
         C           -2.771311053850    -1.227800436562    -0.167837870472    12.000000000000
         C            2.443474946150     1.202236563438    -0.283423870472    12.000000000000
         C            2.689337946150    -1.091316436562     0.257270129528    12.000000000000
         C            3.295026946150     0.133817563438    -0.023933870472    12.000000000000
         H           -3.880278053850     0.725478563438     0.069160129528     1.007825032230
         H           -3.515986053850    -2.004948436562    -0.282517870472     1.007825032230
         H            2.828688946150     2.195759563438    -0.508024870472     1.007825032230
         H            3.282996946150    -1.976752436562     0.480039129528     1.007825032230
         H            4.374240946150     0.248391563438    -0.034736870472     1.007825032230
         C           -1.501237053850     2.120922563438     0.301127129528    12.000000000000
         H           -0.804176053850     2.267735563438     1.125341129528     1.007825032230
         H           -1.083546053850     2.577394563438    -0.595081870472     1.007825032230
         H           -2.461033053850     2.577879563438     0.547657129528     1.007825032230

  Nuclear repulsion =  650.252936641282986
  Reference energy  = -525.529269900733425

  ==> Basis Set <==

  Basis Set: AUG-CC-PVTZ
    Blend: AUG-CC-PVTZ
    Number of shells: 240
    Number of basis function: 736
    Number of Cartesian functions: 860
    Spherical Harmonics?: true
    Max angular momentum: 3

  ==> CGRSolver (by Rob Parrish) <==

   Number of roots    =         1
   Preconditioning    =    JACOBI
   Convergence cutoff =     1E-06
   Maximum iterations =       100

  ==> CPHFRHamiltonian (by Rob Parrish) <== 

  ==> MemDFJK: Density-Fitted J/K Matrices <==

    J tasked:                   Yes
    K tasked:                   Yes
    wK tasked:                   No
    OpenMP threads:               8
    Memory [MiB]:             22888
    Algorithm:                 Disk
    Schwarz Cutoff:           1E-12
    Mask sparsity (%):       7.8232
    Fitting Condition:        1E-10

   => Auxiliary Basis Set <=

  Basis Set: (AUG-CC-PVTZ AUX)
    Blend: AUG-CC-PVTZ-JKFIT
    Number of shells: 472
    Number of basis function: 1616
    Number of Cartesian functions: 2012
    Spherical Harmonics?: true
    Max angular momentum: 4

  ==> CPHF Iterations <==

  => Iterations <=

             Iter  Converged  Remaining    Residual
  CGR           1          0          1   9.836E-02
  CGR           2          0          1   4.602E-02
  CGR           3          0          1   2.670E-02
  CGR           4          0          1   9.381E-03
  CGR           5          0          1   3.493E-03
  CGR           6          0          1   1.444E-03
  CGR           7          0          1   4.810E-04
  CGR           8          0          1   2.536E-04
  CGR           9          0          1   1.092E-04
  CGR          10          0          1   4.335E-05
  CGR          11          0          1   1.783E-05
  CGR          12          0          1   7.222E-06
  CGR          13          0          1   3.642E-06
  CGR          14          0          1   1.450E-06
  CGR          15          1          0   7.613E-07

    CGRSolver converged.

	-----------------------------------------------------------
	 ==================> DF-MP2 Energies <==================== 
	-----------------------------------------------------------
	 Reference Energy          =    -525.5292699007334249 [Eh]
	 Singles Energy            =      -0.0000000000000000 [Eh]
	 Same-Spin Energy          =      -0.5815327555116780 [Eh]
	 Opposite-Spin Energy      =      -1.7462701633210134 [Eh]
	 Correlation Energy        =      -2.3278029188326914 [Eh]
	 Total Energy              =    -527.8570728195661559 [Eh]
	-----------------------------------------------------------
	 ================> DF-SCS-MP2 Energies <================== 
	-----------------------------------------------------------
	 SCS Same-Spin Scale       =       0.3333333333333333 [-]
	 SCS Opposite-Spin Scale   =       1.2000000000000000 [-]
	 SCS Same-Spin Energy      =      -0.1938442518372260 [Eh]
	 SCS Opposite-Spin Energy  =      -2.0955241959852158 [Eh]
	 SCS Correlation Energy    =      -2.2893684478224419 [Eh]
	 SCS Total Energy          =    -527.8186383485558508 [Eh]
	-----------------------------------------------------------



Properties will be evaluated at  -0.000000,  -0.000000,   0.000000 [a0]

Properties computed using the MP2 density matrix

  Nuclear Dipole Moment: [e a0]
     X:    -1.1782      Y:     6.2009      Z:     0.7520

  Electronic Dipole Moment: [e a0]
     X:     1.6527      Y:    -4.4731      Z:    -0.5478

  Dipole Moment: [e a0]
     X:     0.4745      Y:     1.7277      Z:     0.2042     Total:     1.8033

  Dipole Moment: [D]
     X:     1.2062      Y:     4.3914      Z:     0.5191     Total:     4.5835


*** tstop() called on node56.bme.utexas.edu at Sat Feb  6 16:27:45 2021
Module time:
	user time   =    1478.47 seconds =      24.64 minutes
	system time =      84.64 seconds =       1.41 minutes
	total time  =        250 seconds =       4.17 minutes
Total time:
	user time   =    1917.57 seconds =      31.96 minutes
	system time =     138.61 seconds =       2.31 minutes
	total time  =        349 seconds =       5.82 minutes

    Psi4 stopped on: Saturday, 06 February 2021 04:27PM
    Psi4 wall time for execution: 0:05:49.51

*** Psi4 exiting successfully. Buy a developer a beer!
