
    -----------------------------------------------------------------------
          Psi4: An Open-Source Ab Initio Electronic Structure Package
                               Psi4 1.3.2 release

                         Git: Rev {HEAD} ecbda83 


    R. M. Parrish, L. A. Burns, D. G. A. Smith, A. C. Simmonett,
    A. E. DePrince III, E. G. Hohenstein, U. Bozkaya, A. Yu. Sokolov,
    R. Di Remigio, R. M. Richard, J. F. Gonthier, A. M. James,
    H. R. McAlexander, A. Kumar, M. Saitow, X. Wang, B. P. Pritchard,
    P. Verma, H. F. Schaefer III, K. Patkowski, R. A. King, E. F. Valeev,
    F. A. Evangelista, J. M. Turney, T. D. Crawford, and C. D. Sherrill,
    J. Chem. Theory Comput. 13(7) pp 3185--3197 (2017).
    (doi: 10.1021/acs.jctc.7b00174)


                         Additional Contributions by
    P. Kraus, H. Kruse, M. H. Lechner, M. C. Schieber, R. A. Shaw,
    A. Alenaizan, R. Galvelis, Z. L. Glick, S. Lehtola, and J. P. Misiewicz

    -----------------------------------------------------------------------


    Psi4 started on: Saturday, 06 February 2021 09:20PM

    Process ID: 1832329
    Host:       node56.bme.utexas.edu
    PSIDATADIR: /home/xy3866/psi4conda/share/psi4
    Memory:     500.0 MiB
    Threads:    8
    
  ==> Input File <==

--------------------------------------------------------------------------
#psi4
#
memory 32 gb

molecule  {
0 1
  N       -1.7314010     0.6447010     0.0841650
  N       -1.4345640    -1.5648400    -0.1846490
  N        1.1113180     1.0210360    -0.2929590
  N        1.3650780    -1.3052570     0.2771500
  C       -0.7512341    -0.3186908    -0.0172170
  C        0.6302560    -0.2085840    -0.0077820
  C       -2.9774260     0.0775420    -0.0074450
  C       -2.7669850    -1.2782450    -0.1740670
  C        2.4478010     1.1517920    -0.2896530
  C        2.6936640    -1.1417610     0.2510410
  C        3.2993530     0.0833730    -0.0301630
  H       -3.8759520     0.6750340     0.0629310
  H       -3.5116600    -2.0553930    -0.2887470
  H        2.8330150     2.1453150    -0.5142540
  H        3.2873230    -2.0271970     0.4738100
  H        4.3785670     0.1979470    -0.0409660
  C       -1.4969110     2.0704780     0.2948980
  H       -0.7998500     2.2172910     1.1191120
  H       -1.0792200     2.5269500    -0.6013110
  H       -2.4567070     2.5274350     0.5414280
units angstrom
no_reorient  #important for SAPT in psi4, default
symmetry c1  #important for SAPT in psi4, default
}

set PROPERTIES_ORIGIN ["COM"]
properties('MP2/aug-cc-pvtz', properties = ['dipole'])
--------------------------------------------------------------------------

  Memory set to  29.802 GiB by Python driver.
    SCF Algorithm Type (re)set to DF.

*** tstart() called on node56.bme.utexas.edu
*** at Sat Feb  6 21:20:48 2021

   => Loading Basis Set <=

    Name: AUG-CC-PVTZ
    Role: ORBITAL
    Keyword: BASIS
    atoms 1-4          entry N          line   281 file /home/xy3866/psi4conda/share/psi4/basis/aug-cc-pvtz.gbs 
    atoms 5-11, 17     entry C          line   235 file /home/xy3866/psi4conda/share/psi4/basis/aug-cc-pvtz.gbs 
    atoms 12-16, 18-20 entry H          line    36 file /home/xy3866/psi4conda/share/psi4/basis/aug-cc-pvtz.gbs 


         ---------------------------------------------------------
                                   SCF
               by Justin Turney, Rob Parrish, Andy Simmonett
                          and Daniel G. A. Smith
                              RHF Reference
                        8 Threads,  30517 MiB Core
         ---------------------------------------------------------

  ==> Geometry <==

    Molecular point group: c1
    Full point group: C1

    Geometry (in Angstrom), charge = 0, multiplicity = 1:

       Center              X                  Y                   Z               Mass       
    ------------   -----------------  -----------------  -----------------  -----------------
         N           -1.744220395688     0.678297378751     0.088133317658    14.003074004430
         N           -1.447383395688    -1.531243621249    -0.180680682342    14.003074004430
         N            1.098498604312     1.054632378751    -0.288990682342    14.003074004430
         N            1.352258604312    -1.271660621249     0.281118317658    14.003074004430
         C           -0.764053495688    -0.285094421249    -0.013248682342    12.000000000000
         C            0.617436604312    -0.174987621249    -0.003813682342    12.000000000000
         C           -2.990245395688     0.111138378751    -0.003476682342    12.000000000000
         C           -2.779804395688    -1.244648621249    -0.170098682342    12.000000000000
         C            2.434981604312     1.185388378751    -0.285684682342    12.000000000000
         C            2.680844604312    -1.108164621249     0.255009317658    12.000000000000
         C            3.286533604312     0.116969378751    -0.026194682342    12.000000000000
         H           -3.888771395688     0.708630378751     0.066899317658     1.007825032230
         H           -3.524479395688    -2.021796621249    -0.284778682342     1.007825032230
         H            2.820195604312     2.178911378751    -0.510285682342     1.007825032230
         H            3.274503604312    -1.993600621249     0.477778317658     1.007825032230
         H            4.365747604312     0.231543378751    -0.036997682342     1.007825032230
         C           -1.509730395688     2.104074378751     0.298866317658    12.000000000000
         H           -0.812669395688     2.250887378751     1.123080317658     1.007825032230
         H           -1.092039395688     2.560546378751    -0.597342682342     1.007825032230
         H           -2.469526395688     2.561031378751     0.545396317658     1.007825032230

  Running in c1 symmetry.

  Rotational constants: A =      0.07568  B =      0.02332  C =      0.01816 [cm^-1]
  Rotational constants: A =   2268.81097  B =    699.19810  C =    544.31071 [MHz]
  Nuclear repulsion =  654.196617093927557

  Charge       = 0
  Multiplicity = 1
  Electrons    = 84
  Nalpha       = 42
  Nbeta        = 42

  ==> Algorithm <==

  SCF Algorithm Type is DF.
  DIIS enabled.
  MOM disabled.
  Fractional occupation disabled.
  Guess Type is SAD.
  Energy threshold   = 1.00e-10
  Density threshold  = 1.00e-10
  Integral threshold = 0.00e+00

  ==> Primary Basis <==

  Basis Set: AUG-CC-PVTZ
    Blend: AUG-CC-PVTZ
    Number of shells: 240
    Number of basis function: 736
    Number of Cartesian functions: 860
    Spherical Harmonics?: true
    Max angular momentum: 3

   => Loading Basis Set <=

    Name: (AUG-CC-PVTZ AUX)
    Role: JKFIT
    Keyword: DF_BASIS_SCF
    atoms 1-4          entry N          line   224 file /home/xy3866/psi4conda/share/psi4/basis/aug-cc-pvtz-jkfit.gbs 
    atoms 5-11, 17     entry C          line   162 file /home/xy3866/psi4conda/share/psi4/basis/aug-cc-pvtz-jkfit.gbs 
    atoms 12-16, 18-20 entry H          line    70 file /home/xy3866/psi4conda/share/psi4/basis/aug-cc-pvtz-jkfit.gbs 

  ==> Pre-Iterations <==

   -------------------------------------------------------
    Irrep   Nso     Nmo     Nalpha   Nbeta   Ndocc  Nsocc
   -------------------------------------------------------
     A        736     736       0       0       0       0
   -------------------------------------------------------
    Total     736     736      42      42      42       0
   -------------------------------------------------------

  ==> Integral Setup <==

  DFHelper Memory: AOs need 6.178 GiB; user supplied 22.352 GiB. Using in-core AOs.

  ==> MemDFJK: Density-Fitted J/K Matrices <==

    J tasked:                   Yes
    K tasked:                   Yes
    wK tasked:                   No
    OpenMP threads:               8
    Memory [MiB]:             22888
    Algorithm:                 Disk
    Schwarz Cutoff:           1E-12
    Mask sparsity (%):       7.7364
    Fitting Condition:        1E-10

   => Auxiliary Basis Set <=

  Basis Set: (AUG-CC-PVTZ AUX)
    Blend: AUG-CC-PVTZ-JKFIT
    Number of shells: 472
    Number of basis function: 1616
    Number of Cartesian functions: 2012
    Spherical Harmonics?: true
    Max angular momentum: 4

  Minimum eigenvalue in the overlap matrix is 1.0125949091E-06.
  Using Symmetric Orthogonalization.

  SCF Guess: Superposition of Atomic Densities via on-the-fly atomic UHF.

  ==> Iterations <==

                           Total Energy        Delta E     RMS |[F,P]|

   @DF-RHF iter SAD:  -525.01485388387152   -5.25015e+02   0.00000e+00 
   @DF-RHF iter   1:  -525.27678556474370   -2.61932e-01   8.91959e-04 DIIS
   @DF-RHF iter   2:  -525.49059060407296   -2.13805e-01   4.26527e-04 DIIS
   @DF-RHF iter   3:  -525.53173272783931   -4.11421e-02   1.24019e-04 DIIS
   @DF-RHF iter   4:  -525.53621277780394   -4.48005e-03   5.32135e-05 DIIS
   @DF-RHF iter   5:  -525.53699888891992   -7.86111e-04   1.02409e-05 DIIS
   @DF-RHF iter   6:  -525.53704228640379   -4.33975e-05   4.41338e-06 DIIS
   @DF-RHF iter   7:  -525.53705194258612   -9.65618e-06   1.69148e-06 DIIS
   @DF-RHF iter   8:  -525.53705418411403   -2.24153e-06   7.19123e-07 DIIS
   @DF-RHF iter   9:  -525.53705471593821   -5.31824e-07   3.59845e-07 DIIS
   @DF-RHF iter  10:  -525.53705482801593   -1.12078e-07   1.22930e-07 DIIS
   @DF-RHF iter  11:  -525.53705484148702   -1.34711e-08   4.72797e-08 DIIS
   @DF-RHF iter  12:  -525.53705484372233   -2.23531e-09   2.41597e-08 DIIS
   @DF-RHF iter  13:  -525.53705484414968   -4.27349e-10   8.66491e-09 DIIS
   @DF-RHF iter  14:  -525.53705484419982   -5.01359e-11   3.91460e-09 DIIS
   @DF-RHF iter  15:  -525.53705484421380   -1.39835e-11   1.94633e-09 DIIS
   @DF-RHF iter  16:  -525.53705484421607   -2.27374e-12   1.01051e-09 DIIS
   @DF-RHF iter  17:  -525.53705484421766   -1.59162e-12   4.71103e-10 DIIS
   @DF-RHF iter  18:  -525.53705484421744    2.27374e-13   2.01603e-10 DIIS
   @DF-RHF iter  19:  -525.53705484421812   -6.82121e-13   7.34443e-11 DIIS
  Energy and wave function converged.


  ==> Post-Iterations <==

    Orbital Energies [Eh]
    ---------------------

    Doubly Occupied:                                                      

       1A    -15.636531     2A    -15.577035     3A    -15.573360  
       4A    -15.553374     5A    -11.327861     6A    -11.304038  
       7A    -11.301959     8A    -11.295437     9A    -11.273389  
      10A    -11.264524    11A    -11.249701    12A    -11.244669  
      13A     -1.340392    14A     -1.306815    15A     -1.195596  
      16A     -1.163324    17A     -1.095722    18A     -1.009687  
      19A     -0.970000    20A     -0.901605    21A     -0.898682  
      22A     -0.798760    23A     -0.788717    24A     -0.726888  
      25A     -0.702388    26A     -0.685242    27A     -0.647371  
      28A     -0.645492    29A     -0.607371    30A     -0.593282  
      31A     -0.585437    32A     -0.584868    33A     -0.567901  
      34A     -0.554628    35A     -0.537550    36A     -0.483637  
      37A     -0.429101    38A     -0.423167    39A     -0.409113  
      40A     -0.398490    41A     -0.375845    42A     -0.291286  

    Virtual:                                                              

      43A      0.022931    44A      0.027311    45A      0.033867  
      46A      0.040751    47A      0.045167    48A      0.045632  
      49A      0.057368    50A      0.061409    51A      0.063727  
      52A      0.076231    53A      0.077471    54A      0.084935  
      55A      0.089743    56A      0.099922    57A      0.103518  
      58A      0.108354    59A      0.109477    60A      0.112196  
      61A      0.115157    62A      0.118230    63A      0.120375  
      64A      0.123884    65A      0.124927    66A      0.127222  
      67A      0.131093    68A      0.140520    69A      0.144581  
      70A      0.146514    71A      0.152573    72A      0.155376  
      73A      0.163681    74A      0.167910    75A      0.172712  
      76A      0.181879    77A      0.187508    78A      0.194377  
      79A      0.198556    80A      0.203154    81A      0.204253  
      82A      0.215108    83A      0.220542    84A      0.227736  
      85A      0.231963    86A      0.235837    87A      0.239622  
      88A      0.242274    89A      0.246284    90A      0.250686  
      91A      0.255525    92A      0.257989    93A      0.264123  
      94A      0.266706    95A      0.270056    96A      0.274003  
      97A      0.282590    98A      0.287354    99A      0.296492  
     100A      0.302580   101A      0.306052   102A      0.309508  
     103A      0.314650   104A      0.318900   105A      0.322423  
     106A      0.324879   107A      0.332878   108A      0.335995  
     109A      0.339369   110A      0.344098   111A      0.351817  
     112A      0.355626   113A      0.359307   114A      0.362761  
     115A      0.364846   116A      0.367673   117A      0.370582  
     118A      0.383861   119A      0.385220   120A      0.388983  
     121A      0.393360   122A      0.395506   123A      0.402737  
     124A      0.407323   125A      0.411959   126A      0.414497  
     127A      0.421829   128A      0.428850   129A      0.431834  
     130A      0.437545   131A      0.439181   132A      0.444145  
     133A      0.450527   134A      0.458034   135A      0.461362  
     136A      0.466967   137A      0.469979   138A      0.474210  
     139A      0.476160   140A      0.479980   141A      0.484566  
     142A      0.492313   143A      0.494051   144A      0.496858  
     145A      0.502865   146A      0.506640   147A      0.508876  
     148A      0.510519   149A      0.514301   150A      0.518927  
     151A      0.521516   152A      0.523258   153A      0.532297  
     154A      0.535667   155A      0.540452   156A      0.547873  
     157A      0.551212   158A      0.557641   159A      0.560874  
     160A      0.569474   161A      0.573488   162A      0.577506  
     163A      0.579286   164A      0.588220   165A      0.593258  
     166A      0.599790   167A      0.603147   168A      0.614101  
     169A      0.621972   170A      0.623934   171A      0.627390  
     172A      0.635150   173A      0.644468   174A      0.647277  
     175A      0.651060   176A      0.659031   177A      0.661527  
     178A      0.665250   179A      0.673460   180A      0.676283  
     181A      0.682578   182A      0.693258   183A      0.699454  
     184A      0.704838   185A      0.709748   186A      0.717235  
     187A      0.721647   188A      0.732622   189A      0.735465  
     190A      0.748759   191A      0.752216   192A      0.759181  
     193A      0.775483   194A      0.776245   195A      0.787228  
     196A      0.787983   197A      0.792728   198A      0.797890  
     199A      0.801113   200A      0.805173   201A      0.813819  
     202A      0.820080   203A      0.829479   204A      0.830881  
     205A      0.835487   206A      0.838913   207A      0.845166  
     208A      0.857214   209A      0.862779   210A      0.875008  
     211A      0.880590   212A      0.882160   213A      0.886300  
     214A      0.887659   215A      0.890301   216A      0.895115  
     217A      0.897914   218A      0.902784   219A      0.910228  
     220A      0.917042   221A      0.921709   222A      0.932873  
     223A      0.933771   224A      0.942553   225A      0.945070  
     226A      0.953445   227A      0.963005   228A      0.969872  
     229A      0.974483   230A      0.976444   231A      0.982695  
     232A      0.988384   233A      0.991106   234A      0.998198  
     235A      1.005017   236A      1.011963   237A      1.013256  
     238A      1.018104   239A      1.026417   240A      1.027448  
     241A      1.029057   242A      1.035689   243A      1.042657  
     244A      1.043644   245A      1.051735   246A      1.055003  
     247A      1.066584   248A      1.070595   249A      1.073983  
     250A      1.082475   251A      1.093814   252A      1.096946  
     253A      1.107453   254A      1.110927   255A      1.115440  
     256A      1.118754   257A      1.123417   258A      1.130856  
     259A      1.133282   260A      1.137423   261A      1.149165  
     262A      1.156535   263A      1.160106   264A      1.166663  
     265A      1.169586   266A      1.173240   267A      1.179985  
     268A      1.184758   269A      1.189626   270A      1.193414  
     271A      1.196119   272A      1.208558   273A      1.212611  
     274A      1.215593   275A      1.221885   276A      1.224647  
     277A      1.227947   278A      1.234704   279A      1.238891  
     280A      1.249509   281A      1.258887   282A      1.264946  
     283A      1.267415   284A      1.276123   285A      1.284717  
     286A      1.292740   287A      1.296067   288A      1.308615  
     289A      1.317870   290A      1.325170   291A      1.329604  
     292A      1.341575   293A      1.354859   294A      1.361713  
     295A      1.377233   296A      1.380688   297A      1.389583  
     298A      1.391816   299A      1.401143   300A      1.414244  
     301A      1.421317   302A      1.427045   303A      1.437378  
     304A      1.445367   305A      1.454471   306A      1.456043  
     307A      1.462742   308A      1.469095   309A      1.478954  
     310A      1.482547   311A      1.501517   312A      1.502888  
     313A      1.511390   314A      1.516530   315A      1.530760  
     316A      1.537004   317A      1.540697   318A      1.548064  
     319A      1.554821   320A      1.560604   321A      1.565848  
     322A      1.575358   323A      1.575503   324A      1.590415  
     325A      1.602811   326A      1.611671   327A      1.623009  
     328A      1.629348   329A      1.634585   330A      1.637211  
     331A      1.651055   332A      1.658764   333A      1.666865  
     334A      1.673297   335A      1.676137   336A      1.684319  
     337A      1.689980   338A      1.708289   339A      1.709894  
     340A      1.717305   341A      1.719159   342A      1.726718  
     343A      1.735080   344A      1.744260   345A      1.754543  
     346A      1.756199   347A      1.760966   348A      1.773903  
     349A      1.780860   350A      1.796030   351A      1.802238  
     352A      1.806739   353A      1.817019   354A      1.822589  
     355A      1.838649   356A      1.844803   357A      1.847920  
     358A      1.857423   359A      1.864792   360A      1.872325  
     361A      1.882174   362A      1.889596   363A      1.894927  
     364A      1.910587   365A      1.918552   366A      1.923501  
     367A      1.941641   368A      1.947670   369A      1.956239  
     370A      1.956985   371A      1.972593   372A      1.982070  
     373A      1.991679   374A      2.001812   375A      2.012417  
     376A      2.020150   377A      2.025272   378A      2.029654  
     379A      2.038455   380A      2.048552   381A      2.054687  
     382A      2.062624   383A      2.071344   384A      2.079113  
     385A      2.093604   386A      2.099045   387A      2.101251  
     388A      2.111620   389A      2.125277   390A      2.132659  
     391A      2.136769   392A      2.149029   393A      2.173981  
     394A      2.175947   395A      2.195288   396A      2.197470  
     397A      2.208177   398A      2.215497   399A      2.224724  
     400A      2.232013   401A      2.242072   402A      2.247759  
     403A      2.260160   404A      2.264915   405A      2.272088  
     406A      2.287635   407A      2.297866   408A      2.301278  
     409A      2.307470   410A      2.323915   411A      2.325887  
     412A      2.331015   413A      2.332848   414A      2.365463  
     415A      2.377898   416A      2.381962   417A      2.392686  
     418A      2.407859   419A      2.427395   420A      2.431096  
     421A      2.448400   422A      2.456307   423A      2.460141  
     424A      2.467072   425A      2.486945   426A      2.492882  
     427A      2.498890   428A      2.507355   429A      2.518732  
     430A      2.538267   431A      2.552840   432A      2.566688  
     433A      2.582585   434A      2.596008   435A      2.610098  
     436A      2.613177   437A      2.631246   438A      2.640407  
     439A      2.666857   440A      2.680455   441A      2.684356  
     442A      2.707609   443A      2.713201   444A      2.731350  
     445A      2.741497   446A      2.770626   447A      2.786516  
     448A      2.804328   449A      2.805880   450A      2.837179  
     451A      2.842731   452A      2.863958   453A      2.902329  
     454A      2.929718   455A      2.935234   456A      2.959748  
     457A      2.971914   458A      3.007209   459A      3.019384  
     460A      3.043143   461A      3.051843   462A      3.075536  
     463A      3.081660   464A      3.105607   465A      3.113658  
     466A      3.125356   467A      3.171305   468A      3.184780  
     469A      3.196535   470A      3.215976   471A      3.248317  
     472A      3.291372   473A      3.305651   474A      3.309192  
     475A      3.318632   476A      3.333948   477A      3.351669  
     478A      3.357303   479A      3.368351   480A      3.380084  
     481A      3.385907   482A      3.412025   483A      3.414468  
     484A      3.428058   485A      3.446383   486A      3.483139  
     487A      3.486700   488A      3.491057   489A      3.494883  
     490A      3.507073   491A      3.533903   492A      3.536650  
     493A      3.550402   494A      3.559229   495A      3.578779  
     496A      3.581220   497A      3.598392   498A      3.614467  
     499A      3.618804   500A      3.624668   501A      3.643746  
     502A      3.652737   503A      3.653602   504A      3.665422  
     505A      3.674702   506A      3.682126   507A      3.689841  
     508A      3.712852   509A      3.723433   510A      3.729309  
     511A      3.746211   512A      3.750037   513A      3.759794  
     514A      3.772181   515A      3.780452   516A      3.794284  
     517A      3.797673   518A      3.819223   519A      3.826127  
     520A      3.835359   521A      3.843074   522A      3.856109  
     523A      3.863237   524A      3.869232   525A      3.878884  
     526A      3.895488   527A      3.899691   528A      3.903582  
     529A      3.906835   530A      3.914615   531A      3.926906  
     532A      3.933890   533A      3.942858   534A      3.955097  
     535A      3.969269   536A      3.975542   537A      3.981294  
     538A      3.991619   539A      4.002198   540A      4.010756  
     541A      4.021824   542A      4.035901   543A      4.044560  
     544A      4.053977   545A      4.056881   546A      4.069758  
     547A      4.090634   548A      4.111091   549A      4.129813  
     550A      4.132190   551A      4.136558   552A      4.152809  
     553A      4.160327   554A      4.172165   555A      4.176715  
     556A      4.187478   557A      4.191351   558A      4.203647  
     559A      4.214339   560A      4.222398   561A      4.224124  
     562A      4.234055   563A      4.236592   564A      4.249029  
     565A      4.256145   566A      4.266392   567A      4.269178  
     568A      4.284957   569A      4.305654   570A      4.312035  
     571A      4.327019   572A      4.344626   573A      4.365953  
     574A      4.373784   575A      4.390604   576A      4.407014  
     577A      4.413090   578A      4.430447   579A      4.445880  
     580A      4.453544   581A      4.460833   582A      4.475528  
     583A      4.485740   584A      4.500053   585A      4.513761  
     586A      4.520544   587A      4.538634   588A      4.556793  
     589A      4.566757   590A      4.584374   591A      4.606488  
     592A      4.620240   593A      4.632445   594A      4.648713  
     595A      4.653438   596A      4.666250   597A      4.681897  
     598A      4.717808   599A      4.733604   600A      4.768720  
     601A      4.772488   602A      4.788885   603A      4.812057  
     604A      4.817437   605A      4.827090   606A      4.836629  
     607A      4.860525   608A      4.873293   609A      4.888716  
     610A      4.898240   611A      4.922420   612A      4.931114  
     613A      4.942971   614A      4.957912   615A      4.968010  
     616A      4.984889   617A      4.997372   618A      5.017442  
     619A      5.029496   620A      5.046796   621A      5.054164  
     622A      5.073662   623A      5.084913   624A      5.090484  
     625A      5.098693   626A      5.106539   627A      5.133976  
     628A      5.139588   629A      5.164352   630A      5.179272  
     631A      5.187510   632A      5.200867   633A      5.214783  
     634A      5.231794   635A      5.247834   636A      5.268266  
     637A      5.272125   638A      5.283934   639A      5.308443  
     640A      5.318489   641A      5.328215   642A      5.357184  
     643A      5.366579   644A      5.376822   645A      5.396290  
     646A      5.436444   647A      5.475959   648A      5.482995  
     649A      5.496875   650A      5.507247   651A      5.539484  
     652A      5.563203   653A      5.565074   654A      5.577341  
     655A      5.590956   656A      5.619608   657A      5.628738  
     658A      5.640619   659A      5.678747   660A      5.684805  
     661A      5.697214   662A      5.702507   663A      5.728807  
     664A      5.740833   665A      5.756771   666A      5.772369  
     667A      5.793014   668A      5.808832   669A      5.820684  
     670A      5.834323   671A      5.844395   672A      5.855895  
     673A      5.859360   674A      5.874946   675A      5.888909  
     676A      5.905241   677A      5.927285   678A      5.934809  
     679A      5.939774   680A      5.977243   681A      5.986042  
     682A      6.006792   683A      6.025718   684A      6.069976  
     685A      6.101874   686A      6.117848   687A      6.138120  
     688A      6.151825   689A      6.168211   690A      6.189454  
     691A      6.202618   692A      6.211439   693A      6.234354  
     694A      6.265876   695A      6.317228   696A      6.348509  
     697A      6.400160   698A      6.440628   699A      6.470618  
     700A      6.528846   701A      6.547763   702A      6.591996  
     703A      6.653748   704A      6.689070   705A      6.722281  
     706A      6.746606   707A      6.755891   708A      6.770784  
     709A      6.805685   710A      6.841663   711A      6.858370  
     712A      6.886745   713A      6.901822   714A      6.908528  
     715A      6.975413   716A      7.030953   717A      7.058880  
     718A      7.092100   719A      7.116561   720A      7.189569  
     721A      7.222511   722A      7.270234   723A      7.405014  
     724A      7.503860   725A     15.438161   726A     15.928885  
     727A     16.393954   728A     17.186102   729A     17.276613  
     730A     18.239125   731A     18.558407   732A     18.625463  
     733A     18.909561   734A     19.446231   735A     20.381756  
     736A     20.900698  

    Final Occupation by Irrep:
              A 
    DOCC [    42 ]

  @DF-RHF Final Energy:  -525.53705484421812

   => Energetics <=

    Nuclear Repulsion Energy =            654.1966170939275571
    One-Electron Energy =               -2010.8268752287351617
    Two-Electron Energy =                 831.0932032905895994
    Total Energy =                       -525.5370548442181189

Computation Completed

*** tstop() called on node56.bme.utexas.edu at Sat Feb  6 21:22:26 2021
Module time:
	user time   =     439.20 seconds =       7.32 minutes
	system time =      55.01 seconds =       0.92 minutes
	total time  =         98 seconds =       1.63 minutes
Total time:
	user time   =     439.20 seconds =       7.32 minutes
	system time =      55.01 seconds =       0.92 minutes
	total time  =         98 seconds =       1.63 minutes
   => Loading Basis Set <=

    Name: (AUG-CC-PVTZ AUX)
    Role: RIFIT
    Keyword: DF_BASIS_MP2
    atoms 1-4          entry N          line   206 file /home/xy3866/psi4conda/share/psi4/basis/aug-cc-pvtz-ri.gbs 
    atoms 5-11, 17     entry C          line   148 file /home/xy3866/psi4conda/share/psi4/basis/aug-cc-pvtz-ri.gbs 
    atoms 12-16, 18-20 entry H          line    30 file /home/xy3866/psi4conda/share/psi4/basis/aug-cc-pvtz-ri.gbs 


*** tstart() called on node56.bme.utexas.edu
*** at Sat Feb  6 21:22:26 2021


  //>>>>>>>>>>>>>>>>>>>>>>>>>>>>>>>>>>>//
  //               DFMP2               //
  //<<<<<<<<<<<<<<<<<<<<<<<<<<<<<<<<<<<//

	 --------------------------------------------------------
	                          DF-MP2                         
	      2nd-Order Density-Fitted Moller-Plesset Theory     
	              RMP2 Wavefunction,   8 Threads             
	                                                         
	        Rob Parrish, Justin Turney, Andy Simmonett,      
	           Ed Hohenstein, and C. David Sherrill          
	 --------------------------------------------------------

   => Auxiliary Basis Set <=

  Basis Set: (AUG-CC-PVTZ AUX)
    Blend: AUG-CC-PVTZ-RI
    Number of shells: 448
    Number of basis function: 1640
    Number of Cartesian functions: 2072
    Spherical Harmonics?: true
    Max angular momentum: 4

	 --------------------------------------------------------
	                 NBF =   736, NAUX =  1640
	 --------------------------------------------------------
	   CLASS    FOCC     OCC    AOCC    AVIR     VIR    FVIR
	   PAIRS       0      42      42     694     694       0
	 --------------------------------------------------------

  DFHelper Memory: AOs need 6.178 GiB; user supplied 22.352 GiB. Using in-core AOs.


         ------------------------------------------------------------
                                     CPHF                           
                                  Rob Parrish                       
         ------------------------------------------------------------

  ==> Geometry <==

    Molecular point group: c1
    Full point group: C1

    Geometry (in Angstrom), charge = 0, multiplicity = 1:

       Center              X                  Y                   Z               Mass       
    ------------   -----------------  -----------------  -----------------  -----------------
         N           -1.744220395688     0.678297378751     0.088133317658    14.003074004430
         N           -1.447383395688    -1.531243621249    -0.180680682342    14.003074004430
         N            1.098498604312     1.054632378751    -0.288990682342    14.003074004430
         N            1.352258604312    -1.271660621249     0.281118317658    14.003074004430
         C           -0.764053495688    -0.285094421249    -0.013248682342    12.000000000000
         C            0.617436604312    -0.174987621249    -0.003813682342    12.000000000000
         C           -2.990245395688     0.111138378751    -0.003476682342    12.000000000000
         C           -2.779804395688    -1.244648621249    -0.170098682342    12.000000000000
         C            2.434981604312     1.185388378751    -0.285684682342    12.000000000000
         C            2.680844604312    -1.108164621249     0.255009317658    12.000000000000
         C            3.286533604312     0.116969378751    -0.026194682342    12.000000000000
         H           -3.888771395688     0.708630378751     0.066899317658     1.007825032230
         H           -3.524479395688    -2.021796621249    -0.284778682342     1.007825032230
         H            2.820195604312     2.178911378751    -0.510285682342     1.007825032230
         H            3.274503604312    -1.993600621249     0.477778317658     1.007825032230
         H            4.365747604312     0.231543378751    -0.036997682342     1.007825032230
         C           -1.509730395688     2.104074378751     0.298866317658    12.000000000000
         H           -0.812669395688     2.250887378751     1.123080317658     1.007825032230
         H           -1.092039395688     2.560546378751    -0.597342682342     1.007825032230
         H           -2.469526395688     2.561031378751     0.545396317658     1.007825032230

  Nuclear repulsion =  654.196617093927557
  Reference energy  = -525.537054844218119

  ==> Basis Set <==

  Basis Set: AUG-CC-PVTZ
    Blend: AUG-CC-PVTZ
    Number of shells: 240
    Number of basis function: 736
    Number of Cartesian functions: 860
    Spherical Harmonics?: true
    Max angular momentum: 3

  ==> CGRSolver (by Rob Parrish) <==

   Number of roots    =         1
   Preconditioning    =    JACOBI
   Convergence cutoff =     1E-06
   Maximum iterations =       100

  ==> CPHFRHamiltonian (by Rob Parrish) <== 

  ==> MemDFJK: Density-Fitted J/K Matrices <==

    J tasked:                   Yes
    K tasked:                   Yes
    wK tasked:                   No
    OpenMP threads:               8
    Memory [MiB]:             22888
    Algorithm:                 Disk
    Schwarz Cutoff:           1E-12
    Mask sparsity (%):       7.7364
    Fitting Condition:        1E-10

   => Auxiliary Basis Set <=

  Basis Set: (AUG-CC-PVTZ AUX)
    Blend: AUG-CC-PVTZ-JKFIT
    Number of shells: 472
    Number of basis function: 1616
    Number of Cartesian functions: 2012
    Spherical Harmonics?: true
    Max angular momentum: 4

  ==> CPHF Iterations <==

  => Iterations <=

             Iter  Converged  Remaining    Residual
  CGR           1          0          1   9.500E-02
  CGR           2          0          1   4.292E-02
  CGR           3          0          1   2.603E-02
  CGR           4          0          1   9.053E-03
  CGR           5          0          1   3.698E-03
  CGR           6          0          1   1.809E-03
  CGR           7          0          1   7.543E-04
  CGR           8          0          1   3.778E-04
  CGR           9          0          1   1.652E-04
  CGR          10          0          1   5.910E-05
  CGR          11          0          1   2.217E-05
  CGR          12          0          1   8.177E-06
  CGR          13          0          1   3.908E-06
  CGR          14          0          1   1.403E-06
  CGR          15          1          0   6.892E-07

    CGRSolver converged.

	-----------------------------------------------------------
	 ==================> DF-MP2 Energies <==================== 
	-----------------------------------------------------------
	 Reference Energy          =    -525.5370548442181189 [Eh]
	 Singles Energy            =      -0.0000000000000000 [Eh]
	 Same-Spin Energy          =      -0.5814401265908913 [Eh]
	 Opposite-Spin Energy      =      -1.7442147298037063 [Eh]
	 Correlation Energy        =      -2.3256548563945976 [Eh]
	 Total Energy              =    -527.8627097006127542 [Eh]
	-----------------------------------------------------------
	 ================> DF-SCS-MP2 Energies <================== 
	-----------------------------------------------------------
	 SCS Same-Spin Scale       =       0.3333333333333333 [-]
	 SCS Opposite-Spin Scale   =       1.2000000000000000 [-]
	 SCS Same-Spin Energy      =      -0.1938133755302971 [Eh]
	 SCS Opposite-Spin Energy  =      -2.0930576757644475 [Eh]
	 SCS Correlation Energy    =      -2.2868710512947446 [Eh]
	 SCS Total Energy          =    -527.8239258955128435 [Eh]
	-----------------------------------------------------------



Properties will be evaluated at   0.000000,  -0.000000,   0.000000 [a0]

Properties computed using the MP2 density matrix

  Nuclear Dipole Moment: [e a0]
     X:    -1.2419      Y:     6.0743      Z:     0.7350

  Electronic Dipole Moment: [e a0]
     X:     1.6565      Y:    -4.4406      Z:    -0.5433

  Dipole Moment: [e a0]
     X:     0.4146      Y:     1.6337      Z:     0.1918     Total:     1.6964

  Dipole Moment: [D]
     X:     1.0538      Y:     4.1524      Z:     0.4874     Total:     4.3117


*** tstop() called on node56.bme.utexas.edu at Sat Feb  6 21:26:35 2021
Module time:
	user time   =    1473.58 seconds =      24.56 minutes
	system time =      82.23 seconds =       1.37 minutes
	total time  =        249 seconds =       4.15 minutes
Total time:
	user time   =    1912.95 seconds =      31.88 minutes
	system time =     137.25 seconds =       2.29 minutes
	total time  =        347 seconds =       5.78 minutes

    Psi4 stopped on: Saturday, 06 February 2021 09:26PM
    Psi4 wall time for execution: 0:05:47.05

*** Psi4 exiting successfully. Buy a developer a beer!
