
    -----------------------------------------------------------------------
          Psi4: An Open-Source Ab Initio Electronic Structure Package
                               Psi4 1.3.2 release

                         Git: Rev {HEAD} ecbda83 


    R. M. Parrish, L. A. Burns, D. G. A. Smith, A. C. Simmonett,
    A. E. DePrince III, E. G. Hohenstein, U. Bozkaya, A. Yu. Sokolov,
    R. Di Remigio, R. M. Richard, J. F. Gonthier, A. M. James,
    H. R. McAlexander, A. Kumar, M. Saitow, X. Wang, B. P. Pritchard,
    P. Verma, H. F. Schaefer III, K. Patkowski, R. A. King, E. F. Valeev,
    F. A. Evangelista, J. M. Turney, T. D. Crawford, and C. D. Sherrill,
    J. Chem. Theory Comput. 13(7) pp 3185--3197 (2017).
    (doi: 10.1021/acs.jctc.7b00174)


                         Additional Contributions by
    P. Kraus, H. Kruse, M. H. Lechner, M. C. Schieber, R. A. Shaw,
    A. Alenaizan, R. Galvelis, Z. L. Glick, S. Lehtola, and J. P. Misiewicz

    -----------------------------------------------------------------------


    Psi4 started on: Saturday, 06 February 2021 08:23PM

    Process ID: 1826730
    Host:       node56.bme.utexas.edu
    PSIDATADIR: /home/xy3866/psi4conda/share/psi4
    Memory:     500.0 MiB
    Threads:    8
    
  ==> Input File <==

--------------------------------------------------------------------------
#psi4
#
memory 32 gb

molecule  {
0 1
  N       -1.7314010     0.6447010     0.0841650
  N       -1.4345640    -1.5648400    -0.1846490
  N        1.1113180     1.0210360    -0.2929590
  N        1.3650780    -1.3052570     0.2771500
  C       -0.8393487    -0.3995597    -0.0293755
  C        0.6302560    -0.2085840    -0.0077820
  C       -2.9774260     0.0775420    -0.0074450
  C       -2.7669850    -1.2782450    -0.1740670
  C        2.4478010     1.1517920    -0.2896530
  C        2.6936640    -1.1417610     0.2510410
  C        3.2993530     0.0833730    -0.0301630
  H       -3.8759520     0.6750340     0.0629310
  H       -3.5116600    -2.0553930    -0.2887470
  H        2.8330150     2.1453150    -0.5142540
  H        3.2873230    -2.0271970     0.4738100
  H        4.3785670     0.1979470    -0.0409660
  C       -1.4969110     2.0704780     0.2948980
  H       -0.7998500     2.2172910     1.1191120
  H       -1.0792200     2.5269500    -0.6013110
  H       -2.4567070     2.5274350     0.5414280
units angstrom
no_reorient  #important for SAPT in psi4, default
symmetry c1  #important for SAPT in psi4, default
}

set PROPERTIES_ORIGIN ["COM"]
properties('MP2/aug-cc-pvtz', properties = ['dipole'])
--------------------------------------------------------------------------

  Memory set to  29.802 GiB by Python driver.
    SCF Algorithm Type (re)set to DF.

*** tstart() called on node56.bme.utexas.edu
*** at Sat Feb  6 20:23:03 2021

   => Loading Basis Set <=

    Name: AUG-CC-PVTZ
    Role: ORBITAL
    Keyword: BASIS
    atoms 1-4          entry N          line   281 file /home/xy3866/psi4conda/share/psi4/basis/aug-cc-pvtz.gbs 
    atoms 5-11, 17     entry C          line   235 file /home/xy3866/psi4conda/share/psi4/basis/aug-cc-pvtz.gbs 
    atoms 12-16, 18-20 entry H          line    36 file /home/xy3866/psi4conda/share/psi4/basis/aug-cc-pvtz.gbs 


         ---------------------------------------------------------
                                   SCF
               by Justin Turney, Rob Parrish, Andy Simmonett
                          and Daniel G. A. Smith
                              RHF Reference
                        8 Threads,  30517 MiB Core
         ---------------------------------------------------------

  ==> Geometry <==

    Molecular point group: c1
    Full point group: C1

    Geometry (in Angstrom), charge = 0, multiplicity = 1:

       Center              X                  Y                   Z               Mass       
    ------------   -----------------  -----------------  -----------------  -----------------
         N           -1.737614892735     0.684359708464     0.089044778502    14.003074004430
         N           -1.440777892735    -1.525181291536    -0.179769221498    14.003074004430
         N            1.105104107265     1.060694708464    -0.288079221498    14.003074004430
         N            1.358864107265    -1.265598291536     0.282029778502    14.003074004430
         C           -0.845562592735    -0.359900991536    -0.024495721498    12.000000000000
         C            0.624042107265    -0.168925291536    -0.002902221498    12.000000000000
         C           -2.983639892735     0.117200708464    -0.002565221498    12.000000000000
         C           -2.773198892735    -1.238586291536    -0.169187221498    12.000000000000
         C            2.441587107265     1.191450708464    -0.284773221498    12.000000000000
         C            2.687450107265    -1.102102291536     0.255920778502    12.000000000000
         C            3.293139107265     0.123031708464    -0.025283221498    12.000000000000
         H           -3.882165892735     0.714692708464     0.067810778502     1.007825032230
         H           -3.517873892735    -2.015734291536    -0.283867221498     1.007825032230
         H            2.826801107265     2.184973708464    -0.509374221498     1.007825032230
         H            3.281109107265    -1.987538291536     0.478689778502     1.007825032230
         H            4.372353107265     0.237605708464    -0.036086221498     1.007825032230
         C           -1.503124892735     2.110136708464     0.299777778502    12.000000000000
         H           -0.806063892735     2.256949708464     1.123991778502     1.007825032230
         H           -1.085433892735     2.566608708464    -0.596431221498     1.007825032230
         H           -2.462920892735     2.567093708464     0.546307778502     1.007825032230

  Running in c1 symmetry.

  Rotational constants: A =      0.07547  B =      0.02327  C =      0.01811 [cm^-1]
  Rotational constants: A =   2262.64952  B =    697.52609  C =    542.94957 [MHz]
  Nuclear repulsion =  654.128962065950759

  Charge       = 0
  Multiplicity = 1
  Electrons    = 84
  Nalpha       = 42
  Nbeta        = 42

  ==> Algorithm <==

  SCF Algorithm Type is DF.
  DIIS enabled.
  MOM disabled.
  Fractional occupation disabled.
  Guess Type is SAD.
  Energy threshold   = 1.00e-10
  Density threshold  = 1.00e-10
  Integral threshold = 0.00e+00

  ==> Primary Basis <==

  Basis Set: AUG-CC-PVTZ
    Blend: AUG-CC-PVTZ
    Number of shells: 240
    Number of basis function: 736
    Number of Cartesian functions: 860
    Spherical Harmonics?: true
    Max angular momentum: 3

   => Loading Basis Set <=

    Name: (AUG-CC-PVTZ AUX)
    Role: JKFIT
    Keyword: DF_BASIS_SCF
    atoms 1-4          entry N          line   224 file /home/xy3866/psi4conda/share/psi4/basis/aug-cc-pvtz-jkfit.gbs 
    atoms 5-11, 17     entry C          line   162 file /home/xy3866/psi4conda/share/psi4/basis/aug-cc-pvtz-jkfit.gbs 
    atoms 12-16, 18-20 entry H          line    70 file /home/xy3866/psi4conda/share/psi4/basis/aug-cc-pvtz-jkfit.gbs 

  ==> Pre-Iterations <==

   -------------------------------------------------------
    Irrep   Nso     Nmo     Nalpha   Nbeta   Ndocc  Nsocc
   -------------------------------------------------------
     A        736     736       0       0       0       0
   -------------------------------------------------------
    Total     736     736      42      42      42       0
   -------------------------------------------------------

  ==> Integral Setup <==

  DFHelper Memory: AOs need 6.177 GiB; user supplied 22.352 GiB. Using in-core AOs.

  ==> MemDFJK: Density-Fitted J/K Matrices <==

    J tasked:                   Yes
    K tasked:                   Yes
    wK tasked:                   No
    OpenMP threads:               8
    Memory [MiB]:             22888
    Algorithm:                 Disk
    Schwarz Cutoff:           1E-12
    Mask sparsity (%):       7.7516
    Fitting Condition:        1E-10

   => Auxiliary Basis Set <=

  Basis Set: (AUG-CC-PVTZ AUX)
    Blend: AUG-CC-PVTZ-JKFIT
    Number of shells: 472
    Number of basis function: 1616
    Number of Cartesian functions: 2012
    Spherical Harmonics?: true
    Max angular momentum: 4

  Minimum eigenvalue in the overlap matrix is 1.1665238402E-06.
  Using Symmetric Orthogonalization.

  SCF Guess: Superposition of Atomic Densities via on-the-fly atomic UHF.

  ==> Iterations <==

                           Total Energy        Delta E     RMS |[F,P]|

   @DF-RHF iter SAD:  -525.08310803742211   -5.25083e+02   0.00000e+00 
   @DF-RHF iter   1:  -525.29453106645008   -2.11423e-01   9.09348e-04 DIIS
   @DF-RHF iter   2:  -525.51221780248670   -2.17687e-01   4.31687e-04 DIIS
   @DF-RHF iter   3:  -525.55431254216637   -4.20947e-02   1.16322e-04 DIIS
   @DF-RHF iter   4:  -525.55840521857829   -4.09268e-03   5.08673e-05 DIIS
   @DF-RHF iter   5:  -525.55912568479062   -7.20466e-04   1.01966e-05 DIIS
   @DF-RHF iter   6:  -525.55917124769508   -4.55629e-05   4.45214e-06 DIIS
   @DF-RHF iter   7:  -525.55918196045332   -1.07128e-05   1.67271e-06 DIIS
   @DF-RHF iter   8:  -525.55918450499939   -2.54455e-06   7.09547e-07 DIIS
   @DF-RHF iter   9:  -525.55918505627892   -5.51280e-07   3.13942e-07 DIIS
   @DF-RHF iter  10:  -525.55918514219991   -8.59210e-08   1.00756e-07 DIIS
   @DF-RHF iter  11:  -525.55918515104543   -8.84552e-09   3.90118e-08 DIIS
   @DF-RHF iter  12:  -525.55918515224710   -1.20167e-09   1.65575e-08 DIIS
   @DF-RHF iter  13:  -525.55918515248300   -2.35900e-10   5.57520e-09 DIIS
   @DF-RHF iter  14:  -525.55918515250755   -2.45564e-11   3.17109e-09 DIIS
   @DF-RHF iter  15:  -525.55918515251824   -1.06866e-11   1.39712e-09 DIIS
   @DF-RHF iter  16:  -525.55918515251767    5.68434e-13   6.94599e-10 DIIS
   @DF-RHF iter  17:  -525.55918515251869   -1.02318e-12   3.04065e-10 DIIS
   @DF-RHF iter  18:  -525.55918515251847    2.27374e-13   1.06028e-10 DIIS
   @DF-RHF iter  19:  -525.55918515251699    1.47793e-12   4.17062e-11 DIIS
  Energy and wave function converged.


  ==> Post-Iterations <==

    Orbital Energies [Eh]
    ---------------------

    Doubly Occupied:                                                      

       1A    -15.623308     2A    -15.580417     3A    -15.574999  
       4A    -15.544838     5A    -11.334236     6A    -11.306049  
       7A    -11.303014     8A    -11.295332     9A    -11.273471  
      10A    -11.259164    11A    -11.252077    12A    -11.239587  
      13A     -1.346781    14A     -1.308228    15A     -1.198686  
      16A     -1.181828    17A     -1.087377    18A     -1.007622  
      19A     -0.968120    20A     -0.899113    21A     -0.892178  
      22A     -0.803942    23A     -0.782777    24A     -0.726995  
      25A     -0.702601    26A     -0.685854    27A     -0.646236  
      28A     -0.638691    29A     -0.607205    30A     -0.592892  
      31A     -0.588012    32A     -0.578712    33A     -0.568715  
      34A     -0.555856    35A     -0.545071    36A     -0.480096  
      37A     -0.437969    38A     -0.424261    39A     -0.412850  
      40A     -0.396576    41A     -0.378594    42A     -0.300118  

    Virtual:                                                              

      43A      0.022588    44A      0.027695    45A      0.033778  
      46A      0.041025    47A      0.045000    48A      0.046122  
      49A      0.057658    50A      0.063498    51A      0.072248  
      52A      0.075683    53A      0.077029    54A      0.084956  
      55A      0.090349    56A      0.099522    57A      0.103276  
      58A      0.108543    59A      0.109250    60A      0.111844  
      61A      0.115287    62A      0.118610    63A      0.120596  
      64A      0.124048    65A      0.124727    66A      0.127189  
      67A      0.131159    68A      0.140813    69A      0.145018  
      70A      0.146752    71A      0.153097    72A      0.155728  
      73A      0.163614    74A      0.167838    75A      0.172776  
      76A      0.181119    77A      0.186380    78A      0.193746  
      79A      0.198716    80A      0.202080    81A      0.204187  
      82A      0.216882    83A      0.220646    84A      0.229121  
      85A      0.233202    86A      0.236003    87A      0.238904  
      88A      0.241210    89A      0.245968    90A      0.249465  
      91A      0.255839    92A      0.258455    93A      0.263702  
      94A      0.266624    95A      0.270179    96A      0.274980  
      97A      0.283226    98A      0.288044    99A      0.297625  
     100A      0.303635   101A      0.307331   102A      0.309816  
     103A      0.314578   104A      0.318663   105A      0.321230  
     106A      0.324876   107A      0.333219   108A      0.334753  
     109A      0.339919   110A      0.345518   111A      0.351778  
     112A      0.355406   113A      0.358633   114A      0.363240  
     115A      0.366174   116A      0.368514   117A      0.372225  
     118A      0.383704   119A      0.385971   120A      0.390262  
     121A      0.393085   122A      0.400241   123A      0.403389  
     124A      0.408193   125A      0.413444   126A      0.417887  
     127A      0.421900   128A      0.430230   129A      0.434077  
     130A      0.438896   131A      0.439310   132A      0.443336  
     133A      0.451056   134A      0.454965   135A      0.461412  
     136A      0.466444   137A      0.470212   138A      0.472513  
     139A      0.474226   140A      0.480428   141A      0.485359  
     142A      0.492372   143A      0.494416   144A      0.498102  
     145A      0.500792   146A      0.506117   147A      0.506973  
     148A      0.509782   149A      0.513328   150A      0.516769  
     151A      0.519099   152A      0.522117   153A      0.530717  
     154A      0.534325   155A      0.540542   156A      0.547910  
     157A      0.550039   158A      0.557435   159A      0.560388  
     160A      0.571091   161A      0.572046   162A      0.574726  
     163A      0.578430   164A      0.587761   165A      0.593802  
     166A      0.598082   167A      0.603914   168A      0.614506  
     169A      0.620772   170A      0.623427   171A      0.626844  
     172A      0.634963   173A      0.640912   174A      0.644307  
     175A      0.649855   176A      0.655488   177A      0.660398  
     178A      0.665509   179A      0.670239   180A      0.677862  
     181A      0.686435   182A      0.695058   183A      0.698914  
     184A      0.704908   185A      0.710408   186A      0.717439  
     187A      0.722164   188A      0.731447   189A      0.732503  
     190A      0.747088   191A      0.752740   192A      0.760866  
     193A      0.772911   194A      0.775764   195A      0.786376  
     196A      0.787945   197A      0.792767   198A      0.796416  
     199A      0.803227   200A      0.804391   201A      0.813565  
     202A      0.819091   203A      0.829148   204A      0.834853  
     205A      0.840327   206A      0.843978   207A      0.849863  
     208A      0.852906   209A      0.862681   210A      0.873147  
     211A      0.873945   212A      0.882202   213A      0.885466  
     214A      0.888252   215A      0.892122   216A      0.898243  
     217A      0.899117   218A      0.903457   219A      0.910338  
     220A      0.918094   221A      0.921841   222A      0.928298  
     223A      0.936994   224A      0.942626   225A      0.945728  
     226A      0.954756   227A      0.961627   228A      0.969460  
     229A      0.974390   230A      0.977776   231A      0.985430  
     232A      0.988414   233A      0.994317   234A      0.998048  
     235A      1.003751   236A      1.010599   237A      1.012403  
     238A      1.016900   239A      1.021247   240A      1.028389  
     241A      1.029960   242A      1.035849   243A      1.041585  
     244A      1.044917   245A      1.051627   246A      1.054325  
     247A      1.065597   248A      1.072744   249A      1.074382  
     250A      1.082993   251A      1.092486   252A      1.097277  
     253A      1.107073   254A      1.111377   255A      1.118233  
     256A      1.118712   257A      1.121957   258A      1.129877  
     259A      1.133295   260A      1.136378   261A      1.146308  
     262A      1.153386   263A      1.162801   264A      1.163763  
     265A      1.168412   266A      1.173967   267A      1.177806  
     268A      1.183906   269A      1.189531   270A      1.191703  
     271A      1.194289   272A      1.207040   273A      1.211255  
     274A      1.214500   275A      1.221876   276A      1.223913  
     277A      1.229722   278A      1.232652   279A      1.243673  
     280A      1.248500   281A      1.254962   282A      1.258394  
     283A      1.268748   284A      1.276357   285A      1.283819  
     286A      1.288961   287A      1.298880   288A      1.311046  
     289A      1.316899   290A      1.321958   291A      1.325728  
     292A      1.341249   293A      1.354502   294A      1.364367  
     295A      1.375990   296A      1.385668   297A      1.390340  
     298A      1.395632   299A      1.400105   300A      1.418490  
     301A      1.421278   302A      1.426657   303A      1.433655  
     304A      1.445798   305A      1.453941   306A      1.459171  
     307A      1.462953   308A      1.468282   309A      1.479288  
     310A      1.484948   311A      1.500587   312A      1.501732  
     313A      1.508712   314A      1.514425   315A      1.529310  
     316A      1.535231   317A      1.539690   318A      1.545949  
     319A      1.552653   320A      1.557391   321A      1.565832  
     322A      1.572242   323A      1.578907   324A      1.586513  
     325A      1.603847   326A      1.611068   327A      1.619583  
     328A      1.626914   329A      1.633465   330A      1.639643  
     331A      1.649579   332A      1.658522   333A      1.662703  
     334A      1.668891   335A      1.673999   336A      1.686645  
     337A      1.688206   338A      1.706388   339A      1.710819  
     340A      1.716186   341A      1.720511   342A      1.726617  
     343A      1.736197   344A      1.743687   345A      1.750910  
     346A      1.754455   347A      1.762565   348A      1.772193  
     349A      1.778481   350A      1.791854   351A      1.801220  
     352A      1.806860   353A      1.815708   354A      1.819388  
     355A      1.836616   356A      1.841928   357A      1.845019  
     358A      1.859487   359A      1.865375   360A      1.876756  
     361A      1.878125   362A      1.886214   363A      1.898648  
     364A      1.909928   365A      1.917323   366A      1.918865  
     367A      1.940368   368A      1.945020   369A      1.953305  
     370A      1.956328   371A      1.968663   372A      1.980943  
     373A      1.985627   374A      2.001493   375A      2.013239  
     376A      2.020084   377A      2.024389   378A      2.032760  
     379A      2.042101   380A      2.045666   381A      2.049934  
     382A      2.057150   383A      2.073698   384A      2.082157  
     385A      2.093143   386A      2.099708   387A      2.102391  
     388A      2.118275   389A      2.126034   390A      2.128267  
     391A      2.137563   392A      2.147983   393A      2.173586  
     394A      2.183929   395A      2.191637   396A      2.198943  
     397A      2.212438   398A      2.214886   399A      2.222885  
     400A      2.226188   401A      2.244885   402A      2.247482  
     403A      2.258069   404A      2.266223   405A      2.270300  
     406A      2.281032   407A      2.295708   408A      2.305726  
     409A      2.311760   410A      2.318214   411A      2.324653  
     412A      2.328184   413A      2.331322   414A      2.361296  
     415A      2.378830   416A      2.386680   417A      2.395763  
     418A      2.407064   419A      2.424584   420A      2.428970  
     421A      2.446650   422A      2.452516   423A      2.465759  
     424A      2.468869   425A      2.488394   426A      2.492183  
     427A      2.496690   428A      2.503341   429A      2.516719  
     430A      2.542180   431A      2.555694   432A      2.566091  
     433A      2.577778   434A      2.592750   435A      2.602214  
     436A      2.621820   437A      2.631092   438A      2.635058  
     439A      2.665633   440A      2.675836   441A      2.689209  
     442A      2.707132   443A      2.713380   444A      2.729550  
     445A      2.751709   446A      2.774772   447A      2.787088  
     448A      2.793185   449A      2.814103   450A      2.839247  
     451A      2.853488   452A      2.855673   453A      2.898141  
     454A      2.919112   455A      2.932810   456A      2.964874  
     457A      2.977603   458A      3.007581   459A      3.015493  
     460A      3.039186   461A      3.060336   462A      3.076215  
     463A      3.083127   464A      3.108813   465A      3.114252  
     466A      3.140123   467A      3.170062   468A      3.189063  
     469A      3.210937   470A      3.214103   471A      3.246887  
     472A      3.274642   473A      3.300475   474A      3.307084  
     475A      3.314354   476A      3.333173   477A      3.346520  
     478A      3.353623   479A      3.362623   480A      3.369738  
     481A      3.392041   482A      3.406794   483A      3.416924  
     484A      3.418919   485A      3.441552   486A      3.466299  
     487A      3.481068   488A      3.489497   489A      3.495960  
     490A      3.505214   491A      3.530622   492A      3.540586  
     493A      3.553402   494A      3.570355   495A      3.573566  
     496A      3.588594   497A      3.602890   498A      3.612623  
     499A      3.616369   500A      3.628679   501A      3.638715  
     502A      3.647340   503A      3.650701   504A      3.665192  
     505A      3.670176   506A      3.680689   507A      3.698913  
     508A      3.708211   509A      3.720202   510A      3.733882  
     511A      3.743781   512A      3.748017   513A      3.766865  
     514A      3.774698   515A      3.775599   516A      3.778633  
     517A      3.803831   518A      3.811217   519A      3.828181  
     520A      3.836111   521A      3.841786   522A      3.855033  
     523A      3.858131   524A      3.879449   525A      3.885169  
     526A      3.886390   527A      3.898765   528A      3.900969  
     529A      3.909412   530A      3.912410   531A      3.931110  
     532A      3.935683   533A      3.942817   534A      3.956455  
     535A      3.958269   536A      3.977031   537A      3.984919  
     538A      3.993675   539A      4.000832   540A      4.017708  
     541A      4.022781   542A      4.037590   543A      4.051400  
     544A      4.053760   545A      4.070940   546A      4.075907  
     547A      4.100443   548A      4.107308   549A      4.113626  
     550A      4.139743   551A      4.142544   552A      4.151108  
     553A      4.159148   554A      4.173576   555A      4.179530  
     556A      4.182996   557A      4.192461   558A      4.197852  
     559A      4.213567   560A      4.220215   561A      4.228922  
     562A      4.233606   563A      4.238812   564A      4.251226  
     565A      4.257132   566A      4.265978   567A      4.268374  
     568A      4.286505   569A      4.297106   570A      4.318895  
     571A      4.337519   572A      4.351411   573A      4.378954  
     574A      4.390241   575A      4.395907   576A      4.398169  
     577A      4.419213   578A      4.427053   579A      4.447858  
     580A      4.455179   581A      4.466661   582A      4.480642  
     583A      4.489307   584A      4.502306   585A      4.513121  
     586A      4.518420   587A      4.538346   588A      4.553136  
     589A      4.564376   590A      4.582519   591A      4.589917  
     592A      4.616147   593A      4.630882   594A      4.637963  
     595A      4.650760   596A      4.658786   597A      4.674260  
     598A      4.691861   599A      4.718102   600A      4.754291  
     601A      4.767367   602A      4.781485   603A      4.784981  
     604A      4.817636   605A      4.822117   606A      4.830526  
     607A      4.839877   608A      4.862389   609A      4.879994  
     610A      4.888498   611A      4.914319   612A      4.922168  
     613A      4.941741   614A      4.952933   615A      4.966471  
     616A      4.978988   617A      4.996332   618A      5.008352  
     619A      5.011459   620A      5.038142   621A      5.043109  
     622A      5.074469   623A      5.078916   624A      5.084108  
     625A      5.097127   626A      5.102362   627A      5.133059  
     628A      5.148379   629A      5.167039   630A      5.172412  
     631A      5.188977   632A      5.205110   633A      5.211968  
     634A      5.218471   635A      5.241870   636A      5.259978  
     637A      5.271744   638A      5.280908   639A      5.306267  
     640A      5.315665   641A      5.327897   642A      5.353846  
     643A      5.362537   644A      5.390608   645A      5.406515  
     646A      5.443634   647A      5.467567   648A      5.479120  
     649A      5.505656   650A      5.511946   651A      5.539446  
     652A      5.552412   653A      5.567347   654A      5.576214  
     655A      5.590548   656A      5.620882   657A      5.633192  
     658A      5.649800   659A      5.678541   660A      5.695835  
     661A      5.712515   662A      5.718627   663A      5.733916  
     664A      5.750968   665A      5.760933   666A      5.775369  
     667A      5.795079   668A      5.808669   669A      5.822545  
     670A      5.829171   671A      5.836707   672A      5.858476  
     673A      5.878260   674A      5.881770   675A      5.884707  
     676A      5.904757   677A      5.926969   678A      5.936583  
     679A      5.947199   680A      5.990551   681A      5.999274  
     682A      6.018478   683A      6.048095   684A      6.068046  
     685A      6.109229   686A      6.127069   687A      6.145222  
     688A      6.158969   689A      6.173680   690A      6.188881  
     691A      6.207887   692A      6.220251   693A      6.228736  
     694A      6.290412   695A      6.323063   696A      6.353320  
     697A      6.408203   698A      6.435421   699A      6.460666  
     700A      6.532684   701A      6.557226   702A      6.611719  
     703A      6.640301   704A      6.702546   705A      6.733617  
     706A      6.746912   707A      6.754903   708A      6.768320  
     709A      6.780180   710A      6.833422   711A      6.858906  
     712A      6.901142   713A      6.903405   714A      6.923731  
     715A      6.977779   716A      7.022146   717A      7.077658  
     718A      7.101069   719A      7.127130   720A      7.162917  
     721A      7.211087   722A      7.232767   723A      7.404633  
     724A      7.509147   725A     15.657670   726A     15.816943  
     727A     16.681945   728A     16.926889   729A     17.387201  
     730A     18.390512   731A     18.473482   732A     18.749585  
     733A     19.065823   734A     19.717991   735A     20.322386  
     736A     20.897319  

    Final Occupation by Irrep:
              A 
    DOCC [    42 ]

  @DF-RHF Final Energy:  -525.55918515251699

   => Energetics <=

    Nuclear Repulsion Energy =            654.1289620659507591
    One-Electron Energy =               -2010.7154009289599799
    Two-Electron Energy =                 831.0272537104923458
    Total Energy =                       -525.5591851525169886

Computation Completed

*** tstop() called on node56.bme.utexas.edu at Sat Feb  6 20:24:42 2021
Module time:
	user time   =     437.08 seconds =       7.28 minutes
	system time =      55.76 seconds =       0.93 minutes
	total time  =         99 seconds =       1.65 minutes
Total time:
	user time   =     437.08 seconds =       7.28 minutes
	system time =      55.76 seconds =       0.93 minutes
	total time  =         99 seconds =       1.65 minutes
   => Loading Basis Set <=

    Name: (AUG-CC-PVTZ AUX)
    Role: RIFIT
    Keyword: DF_BASIS_MP2
    atoms 1-4          entry N          line   206 file /home/xy3866/psi4conda/share/psi4/basis/aug-cc-pvtz-ri.gbs 
    atoms 5-11, 17     entry C          line   148 file /home/xy3866/psi4conda/share/psi4/basis/aug-cc-pvtz-ri.gbs 
    atoms 12-16, 18-20 entry H          line    30 file /home/xy3866/psi4conda/share/psi4/basis/aug-cc-pvtz-ri.gbs 


*** tstart() called on node56.bme.utexas.edu
*** at Sat Feb  6 20:24:42 2021


  //>>>>>>>>>>>>>>>>>>>>>>>>>>>>>>>>>>>//
  //               DFMP2               //
  //<<<<<<<<<<<<<<<<<<<<<<<<<<<<<<<<<<<//

	 --------------------------------------------------------
	                          DF-MP2                         
	      2nd-Order Density-Fitted Moller-Plesset Theory     
	              RMP2 Wavefunction,   8 Threads             
	                                                         
	        Rob Parrish, Justin Turney, Andy Simmonett,      
	           Ed Hohenstein, and C. David Sherrill          
	 --------------------------------------------------------

   => Auxiliary Basis Set <=

  Basis Set: (AUG-CC-PVTZ AUX)
    Blend: AUG-CC-PVTZ-RI
    Number of shells: 448
    Number of basis function: 1640
    Number of Cartesian functions: 2072
    Spherical Harmonics?: true
    Max angular momentum: 4

	 --------------------------------------------------------
	                 NBF =   736, NAUX =  1640
	 --------------------------------------------------------
	   CLASS    FOCC     OCC    AOCC    AVIR     VIR    FVIR
	   PAIRS       0      42      42     694     694       0
	 --------------------------------------------------------

  DFHelper Memory: AOs need 6.177 GiB; user supplied 22.352 GiB. Using in-core AOs.


         ------------------------------------------------------------
                                     CPHF                           
                                  Rob Parrish                       
         ------------------------------------------------------------

  ==> Geometry <==

    Molecular point group: c1
    Full point group: C1

    Geometry (in Angstrom), charge = 0, multiplicity = 1:

       Center              X                  Y                   Z               Mass       
    ------------   -----------------  -----------------  -----------------  -----------------
         N           -1.737614892735     0.684359708464     0.089044778502    14.003074004430
         N           -1.440777892735    -1.525181291536    -0.179769221498    14.003074004430
         N            1.105104107265     1.060694708464    -0.288079221498    14.003074004430
         N            1.358864107265    -1.265598291536     0.282029778502    14.003074004430
         C           -0.845562592735    -0.359900991536    -0.024495721498    12.000000000000
         C            0.624042107265    -0.168925291536    -0.002902221498    12.000000000000
         C           -2.983639892735     0.117200708464    -0.002565221498    12.000000000000
         C           -2.773198892735    -1.238586291536    -0.169187221498    12.000000000000
         C            2.441587107265     1.191450708464    -0.284773221498    12.000000000000
         C            2.687450107265    -1.102102291536     0.255920778502    12.000000000000
         C            3.293139107265     0.123031708464    -0.025283221498    12.000000000000
         H           -3.882165892735     0.714692708464     0.067810778502     1.007825032230
         H           -3.517873892735    -2.015734291536    -0.283867221498     1.007825032230
         H            2.826801107265     2.184973708464    -0.509374221498     1.007825032230
         H            3.281109107265    -1.987538291536     0.478689778502     1.007825032230
         H            4.372353107265     0.237605708464    -0.036086221498     1.007825032230
         C           -1.503124892735     2.110136708464     0.299777778502    12.000000000000
         H           -0.806063892735     2.256949708464     1.123991778502     1.007825032230
         H           -1.085433892735     2.566608708464    -0.596431221498     1.007825032230
         H           -2.462920892735     2.567093708464     0.546307778502     1.007825032230

  Nuclear repulsion =  654.128962065950759
  Reference energy  = -525.559185152516989

  ==> Basis Set <==

  Basis Set: AUG-CC-PVTZ
    Blend: AUG-CC-PVTZ
    Number of shells: 240
    Number of basis function: 736
    Number of Cartesian functions: 860
    Spherical Harmonics?: true
    Max angular momentum: 3

  ==> CGRSolver (by Rob Parrish) <==

   Number of roots    =         1
   Preconditioning    =    JACOBI
   Convergence cutoff =     1E-06
   Maximum iterations =       100

  ==> CPHFRHamiltonian (by Rob Parrish) <== 

  ==> MemDFJK: Density-Fitted J/K Matrices <==

    J tasked:                   Yes
    K tasked:                   Yes
    wK tasked:                   No
    OpenMP threads:               8
    Memory [MiB]:             22888
    Algorithm:                 Disk
    Schwarz Cutoff:           1E-12
    Mask sparsity (%):       7.7516
    Fitting Condition:        1E-10

   => Auxiliary Basis Set <=

  Basis Set: (AUG-CC-PVTZ AUX)
    Blend: AUG-CC-PVTZ-JKFIT
    Number of shells: 472
    Number of basis function: 1616
    Number of Cartesian functions: 2012
    Spherical Harmonics?: true
    Max angular momentum: 4

  ==> CPHF Iterations <==

  => Iterations <=

             Iter  Converged  Remaining    Residual
  CGR           1          0          1   9.890E-02
  CGR           2          0          1   4.425E-02
  CGR           3          0          1   2.483E-02
  CGR           4          0          1   8.332E-03
  CGR           5          0          1   3.467E-03
  CGR           6          0          1   1.715E-03
  CGR           7          0          1   6.931E-04
  CGR           8          0          1   3.178E-04
  CGR           9          0          1   1.276E-04
  CGR          10          0          1   4.163E-05
  CGR          11          0          1   1.508E-05
  CGR          12          0          1   5.366E-06
  CGR          13          0          1   2.319E-06
  CGR          14          1          0   7.684E-07

    CGRSolver converged.

	-----------------------------------------------------------
	 ==================> DF-MP2 Energies <==================== 
	-----------------------------------------------------------
	 Reference Energy          =    -525.5591851525169886 [Eh]
	 Singles Energy            =      -0.0000000000000000 [Eh]
	 Same-Spin Energy          =      -0.5772111060908147 [Eh]
	 Opposite-Spin Energy      =      -1.7371374319709134 [Eh]
	 Correlation Energy        =      -2.3143485380617284 [Eh]
	 Total Energy              =    -527.8735336905787108 [Eh]
	-----------------------------------------------------------
	 ================> DF-SCS-MP2 Energies <================== 
	-----------------------------------------------------------
	 SCS Same-Spin Scale       =       0.3333333333333333 [-]
	 SCS Opposite-Spin Scale   =       1.2000000000000000 [-]
	 SCS Same-Spin Energy      =      -0.1924037020302716 [Eh]
	 SCS Opposite-Spin Energy  =      -2.0845649183650958 [Eh]
	 SCS Correlation Energy    =      -2.2769686203953672 [Eh]
	 SCS Total Energy          =    -527.8361537729123256 [Eh]
	-----------------------------------------------------------



Properties will be evaluated at  -0.000000,  -0.000000,   0.000000 [a0]

Properties computed using the MP2 density matrix

  Nuclear Dipole Moment: [e a0]
     X:    -1.1924      Y:     6.1197      Z:     0.7419

  Electronic Dipole Moment: [e a0]
     X:     1.7685      Y:    -4.5105      Z:    -0.5544

  Dipole Moment: [e a0]
     X:     0.5761      Y:     1.6092      Z:     0.1875     Total:     1.7195

  Dipole Moment: [D]
     X:     1.4643      Y:     4.0902      Z:     0.4766     Total:     4.3704


*** tstop() called on node56.bme.utexas.edu at Sat Feb  6 20:28:53 2021
Module time:
	user time   =    1466.44 seconds =      24.44 minutes
	system time =     102.58 seconds =       1.71 minutes
	total time  =        251 seconds =       4.18 minutes
Total time:
	user time   =    1903.71 seconds =      31.73 minutes
	system time =     158.34 seconds =       2.64 minutes
	total time  =        350 seconds =       5.83 minutes

    Psi4 stopped on: Saturday, 06 February 2021 08:28PM
    Psi4 wall time for execution: 0:05:50.06

*** Psi4 exiting successfully. Buy a developer a beer!
