10869                                                                   
Freq      RMP2-FC                                                     6-31G(d)            
Number of atoms                            I               19
Info1-9                                    I   N=           9
          31          29        1002           0           0         100
           6           2           1
Charge                                     I                0
Multiplicity                               I                1
Number of electrons                        I               66
Number of alpha electrons                  I               33
Number of beta electrons                   I               33
Number of basis functions                  I              155
Number of independent functions            I              155
Number of point charges in /Mol/           I                0
Number of translation vectors              I                0
Atomic numbers                             I   N=          19
           8           6           6           6           6           6
           6           6           6           1           1           1
           1           1           1           1           1           1
           1
Nuclear charges                            R   N=          19
  8.00000000E+00  6.00000000E+00  6.00000000E+00  6.00000000E+00  6.00000000E+00
  6.00000000E+00  6.00000000E+00  6.00000000E+00  6.00000000E+00  1.00000000E+00
  1.00000000E+00  1.00000000E+00  1.00000000E+00  1.00000000E+00  1.00000000E+00
  1.00000000E+00  1.00000000E+00  1.00000000E+00  1.00000000E+00
Current cartesian coordinates              R   N=          57
 -4.07504996E+00  6.64466722E-01 -6.68118291E-01  1.56575384E-01 -5.16912968E-01
  2.93288435E-01 -2.59247405E+00 -1.12777730E+00  6.73031358E-01  1.93330729E+00
 -2.44630985E+00 -2.76154082E-02  9.72570040E-01  1.99920918E+00  3.51267007E-01
  4.49729205E+00 -1.87618141E+00 -2.84097090E-01  3.53057681E+00  2.57061231E+00
  7.43290173E-02  5.30155511E+00  6.35269516E-01 -2.30798466E-01 -6.69306481E+00
  2.57822962E-01 -2.58304632E-01 -3.00222352E+00 -3.05918189E+00  7.57206887E-03
 -3.07913537E+00 -1.06341310E+00  2.70047261E+00  1.30954435E+00 -4.40614505E+00
 -9.81642075E-02 -4.15439097E-01  3.49673446E+00  5.67630503E-01  5.86225700E+00
 -3.39125860E+00 -5.38910411E-01  4.14746805E+00  4.53089692E+00  1.06308950E-01
  7.29544964E+00  1.08466217E+00 -4.42456967E-01 -7.69210836E+00  1.70420230E+00
 -1.33393676E+00 -7.18250077E+00  4.32866990E-01  1.75241987E+00 -7.28093916E+00
 -1.61949256E+00 -9.22590657E-01
Force Field                                I                0
Int Atom Types                             I   N=          19
           0           0           0           0           0           0
           0           0           0           0           0           0
           0           0           0           0           0           0
           0
MM charges                                 R   N=          19
  0.00000000E+00  0.00000000E+00  0.00000000E+00  0.00000000E+00  0.00000000E+00
  0.00000000E+00  0.00000000E+00  0.00000000E+00  0.00000000E+00  0.00000000E+00
  0.00000000E+00  0.00000000E+00  0.00000000E+00  0.00000000E+00  0.00000000E+00
  0.00000000E+00  0.00000000E+00  0.00000000E+00  0.00000000E+00
Integer atomic weights                     I   N=          19
          16          12          12          12          12          12
          12          12          12           1           1           1
           1           1           1           1           1           1
           1
Real atomic weights                        R   N=          19
  1.59949146E+01  1.20000000E+01  1.20000000E+01  1.20000000E+01  1.20000000E+01
  1.20000000E+01  1.20000000E+01  1.20000000E+01  1.20000000E+01  1.00782504E+00
  1.00782504E+00  1.00782504E+00  1.00782504E+00  1.00782504E+00  1.00782504E+00
  1.00782504E+00  1.00782504E+00  1.00782504E+00  1.00782504E+00
Atom fragment info                         I   N=          19
           0           0           0           0           0           0
           0           0           0           0           0           0
           0           0           0           0           0           0
           0
Atom residue num                           I   N=          19
           0           0           0           0           0           0
           0           0           0           0           0           0
           0           0           0           0           0           0
           0
Nuclear spins                              I   N=          19
           0           0           0           0           0           0
           0           0           0           1           1           1
           1           1           1           1           1           1
           1
Nuclear ZEff                               R   N=          19
 -5.60000000E+00 -3.60000000E+00 -3.60000000E+00 -3.60000000E+00 -3.60000000E+00
 -3.60000000E+00 -3.60000000E+00 -3.60000000E+00 -3.60000000E+00 -1.00000000E+00
 -1.00000000E+00 -1.00000000E+00 -1.00000000E+00 -1.00000000E+00 -1.00000000E+00
 -1.00000000E+00 -1.00000000E+00 -1.00000000E+00 -1.00000000E+00
Nuclear QMom                               R   N=          19
  0.00000000E+00  0.00000000E+00  0.00000000E+00  0.00000000E+00  0.00000000E+00
  0.00000000E+00  0.00000000E+00  0.00000000E+00  0.00000000E+00  0.00000000E+00
  0.00000000E+00  0.00000000E+00  0.00000000E+00  0.00000000E+00  0.00000000E+00
  0.00000000E+00  0.00000000E+00  0.00000000E+00  0.00000000E+00
Nuclear GFac                               R   N=          19
  0.00000000E+00  0.00000000E+00  0.00000000E+00  0.00000000E+00  0.00000000E+00
  0.00000000E+00  0.00000000E+00  0.00000000E+00  0.00000000E+00  2.79284600E+00
  2.79284600E+00  2.79284600E+00  2.79284600E+00  2.79284600E+00  2.79284600E+00
  2.79284600E+00  2.79284600E+00  2.79284600E+00  2.79284600E+00
MicOpt                                     I   N=          19
          -1          -1          -1          -1          -1          -1
          -1          -1          -1          -1          -1          -1
          -1          -1          -1          -1          -1          -1
          -1
Number of contracted shells                I               56
Number of primitive shells                 I              139
Pure/Cartesian d shells                    I                1
Pure/Cartesian f shells                    I                0
Highest angular momentum                   I                2
Largest degree of contraction              I                6
Shell types                                I   N=          56
           0          -1          -1           2           0          -1
          -1           2           0          -1          -1           2
           0          -1          -1           2           0          -1
          -1           2           0          -1          -1           2
           0          -1          -1           2           0          -1
          -1           2           0          -1          -1           2
           0           0           0           0           0           0
           0           0           0           0           0           0
           0           0           0           0           0           0
           0           0
Number of primitives per shell             I   N=          56
           6           3           1           1           6           3
           1           1           6           3           1           1
           6           3           1           1           6           3
           1           1           6           3           1           1
           6           3           1           1           6           3
           1           1           6           3           1           1
           3           1           3           1           3           1
           3           1           3           1           3           1
           3           1           3           1           3           1
           3           1
Shell to atom map                          I   N=          56
           1           1           1           1           2           2
           2           2           3           3           3           3
           4           4           4           4           5           5
           5           5           6           6           6           6
           7           7           7           7           8           8
           8           8           9           9           9           9
          10          10          11          11          12          12
          13          13          14          14          15          15
          16          16          17          17          18          18
          19          19
Primitive exponents                        R   N=         139
  5.48467166E+03  8.25234946E+02  1.88046958E+02  5.29645000E+01  1.68975704E+01
  5.79963534E+00  1.55396162E+01  3.59993359E+00  1.01376175E+00  2.70005823E-01
  8.00000000E-01  3.04752488E+03  4.57369518E+02  1.03948685E+02  2.92101553E+01
  9.28666296E+00  3.16392696E+00  7.86827235E+00  1.88128854E+00  5.44249258E-01
  1.68714478E-01  8.00000000E-01  3.04752488E+03  4.57369518E+02  1.03948685E+02
  2.92101553E+01  9.28666296E+00  3.16392696E+00  7.86827235E+00  1.88128854E+00
  5.44249258E-01  1.68714478E-01  8.00000000E-01  3.04752488E+03  4.57369518E+02
  1.03948685E+02  2.92101553E+01  9.28666296E+00  3.16392696E+00  7.86827235E+00
  1.88128854E+00  5.44249258E-01  1.68714478E-01  8.00000000E-01  3.04752488E+03
  4.57369518E+02  1.03948685E+02  2.92101553E+01  9.28666296E+00  3.16392696E+00
  7.86827235E+00  1.88128854E+00  5.44249258E-01  1.68714478E-01  8.00000000E-01
  3.04752488E+03  4.57369518E+02  1.03948685E+02  2.92101553E+01  9.28666296E+00
  3.16392696E+00  7.86827235E+00  1.88128854E+00  5.44249258E-01  1.68714478E-01
  8.00000000E-01  3.04752488E+03  4.57369518E+02  1.03948685E+02  2.92101553E+01
  9.28666296E+00  3.16392696E+00  7.86827235E+00  1.88128854E+00  5.44249258E-01
  1.68714478E-01  8.00000000E-01  3.04752488E+03  4.57369518E+02  1.03948685E+02
  2.92101553E+01  9.28666296E+00  3.16392696E+00  7.86827235E+00  1.88128854E+00
  5.44249258E-01  1.68714478E-01  8.00000000E-01  3.04752488E+03  4.57369518E+02
  1.03948685E+02  2.92101553E+01  9.28666296E+00  3.16392696E+00  7.86827235E+00
  1.88128854E+00  5.44249258E-01  1.68714478E-01  8.00000000E-01  1.87311370E+01
  2.82539436E+00  6.40121692E-01  1.61277759E-01  1.87311370E+01  2.82539436E+00
  6.40121692E-01  1.61277759E-01  1.87311370E+01  2.82539436E+00  6.40121692E-01
  1.61277759E-01  1.87311370E+01  2.82539436E+00  6.40121692E-01  1.61277759E-01
  1.87311370E+01  2.82539436E+00  6.40121692E-01  1.61277759E-01  1.87311370E+01
  2.82539436E+00  6.40121692E-01  1.61277759E-01  1.87311370E+01  2.82539436E+00
  6.40121692E-01  1.61277759E-01  1.87311370E+01  2.82539436E+00  6.40121692E-01
  1.61277759E-01  1.87311370E+01  2.82539436E+00  6.40121692E-01  1.61277759E-01
  1.87311370E+01  2.82539436E+00  6.40121692E-01  1.61277759E-01
Contraction coefficients                   R   N=         139
  1.83107443E-03  1.39501722E-02  6.84450781E-02  2.32714336E-01  4.70192898E-01
  3.58520853E-01 -1.10777550E-01 -1.48026263E-01  1.13076702E+00  1.00000000E+00
  1.00000000E+00  1.83473713E-03  1.40373228E-02  6.88426223E-02  2.32184443E-01
  4.67941348E-01  3.62311985E-01 -1.19332420E-01 -1.60854152E-01  1.14345644E+00
  1.00000000E+00  1.00000000E+00  1.83473713E-03  1.40373228E-02  6.88426223E-02
  2.32184443E-01  4.67941348E-01  3.62311985E-01 -1.19332420E-01 -1.60854152E-01
  1.14345644E+00  1.00000000E+00  1.00000000E+00  1.83473713E-03  1.40373228E-02
  6.88426223E-02  2.32184443E-01  4.67941348E-01  3.62311985E-01 -1.19332420E-01
 -1.60854152E-01  1.14345644E+00  1.00000000E+00  1.00000000E+00  1.83473713E-03
  1.40373228E-02  6.88426223E-02  2.32184443E-01  4.67941348E-01  3.62311985E-01
 -1.19332420E-01 -1.60854152E-01  1.14345644E+00  1.00000000E+00  1.00000000E+00
  1.83473713E-03  1.40373228E-02  6.88426223E-02  2.32184443E-01  4.67941348E-01
  3.62311985E-01 -1.19332420E-01 -1.60854152E-01  1.14345644E+00  1.00000000E+00
  1.00000000E+00  1.83473713E-03  1.40373228E-02  6.88426223E-02  2.32184443E-01
  4.67941348E-01  3.62311985E-01 -1.19332420E-01 -1.60854152E-01  1.14345644E+00
  1.00000000E+00  1.00000000E+00  1.83473713E-03  1.40373228E-02  6.88426223E-02
  2.32184443E-01  4.67941348E-01  3.62311985E-01 -1.19332420E-01 -1.60854152E-01
  1.14345644E+00  1.00000000E+00  1.00000000E+00  1.83473713E-03  1.40373228E-02
  6.88426223E-02  2.32184443E-01  4.67941348E-01  3.62311985E-01 -1.19332420E-01
 -1.60854152E-01  1.14345644E+00  1.00000000E+00  1.00000000E+00  3.34946043E-02
  2.34726953E-01  8.13757326E-01  1.00000000E+00  3.34946043E-02  2.34726953E-01
  8.13757326E-01  1.00000000E+00  3.34946043E-02  2.34726953E-01  8.13757326E-01
  1.00000000E+00  3.34946043E-02  2.34726953E-01  8.13757326E-01  1.00000000E+00
  3.34946043E-02  2.34726953E-01  8.13757326E-01  1.00000000E+00  3.34946043E-02
  2.34726953E-01  8.13757326E-01  1.00000000E+00  3.34946043E-02  2.34726953E-01
  8.13757326E-01  1.00000000E+00  3.34946043E-02  2.34726953E-01  8.13757326E-01
  1.00000000E+00  3.34946043E-02  2.34726953E-01  8.13757326E-01  1.00000000E+00
  3.34946043E-02  2.34726953E-01  8.13757326E-01  1.00000000E+00
P(S=P) Contraction coefficients            R   N=         139
  0.00000000E+00  0.00000000E+00  0.00000000E+00  0.00000000E+00  0.00000000E+00
  0.00000000E+00  7.08742682E-02  3.39752839E-01  7.27158577E-01  1.00000000E+00
  0.00000000E+00  0.00000000E+00  0.00000000E+00  0.00000000E+00  0.00000000E+00
  0.00000000E+00  0.00000000E+00  6.89990666E-02  3.16423961E-01  7.44308291E-01
  1.00000000E+00  0.00000000E+00  0.00000000E+00  0.00000000E+00  0.00000000E+00
  0.00000000E+00  0.00000000E+00  0.00000000E+00  6.89990666E-02  3.16423961E-01
  7.44308291E-01  1.00000000E+00  0.00000000E+00  0.00000000E+00  0.00000000E+00
  0.00000000E+00  0.00000000E+00  0.00000000E+00  0.00000000E+00  6.89990666E-02
  3.16423961E-01  7.44308291E-01  1.00000000E+00  0.00000000E+00  0.00000000E+00
  0.00000000E+00  0.00000000E+00  0.00000000E+00  0.00000000E+00  0.00000000E+00
  6.89990666E-02  3.16423961E-01  7.44308291E-01  1.00000000E+00  0.00000000E+00
  0.00000000E+00  0.00000000E+00  0.00000000E+00  0.00000000E+00  0.00000000E+00
  0.00000000E+00  6.89990666E-02  3.16423961E-01  7.44308291E-01  1.00000000E+00
  0.00000000E+00  0.00000000E+00  0.00000000E+00  0.00000000E+00  0.00000000E+00
  0.00000000E+00  0.00000000E+00  6.89990666E-02  3.16423961E-01  7.44308291E-01
  1.00000000E+00  0.00000000E+00  0.00000000E+00  0.00000000E+00  0.00000000E+00
  0.00000000E+00  0.00000000E+00  0.00000000E+00  6.89990666E-02  3.16423961E-01
  7.44308291E-01  1.00000000E+00  0.00000000E+00  0.00000000E+00  0.00000000E+00
  0.00000000E+00  0.00000000E+00  0.00000000E+00  0.00000000E+00  6.89990666E-02
  3.16423961E-01  7.44308291E-01  1.00000000E+00  0.00000000E+00  0.00000000E+00
  0.00000000E+00  0.00000000E+00  0.00000000E+00  0.00000000E+00  0.00000000E+00
  0.00000000E+00  0.00000000E+00  0.00000000E+00  0.00000000E+00  0.00000000E+00
  0.00000000E+00  0.00000000E+00  0.00000000E+00  0.00000000E+00  0.00000000E+00
  0.00000000E+00  0.00000000E+00  0.00000000E+00  0.00000000E+00  0.00000000E+00
  0.00000000E+00  0.00000000E+00  0.00000000E+00  0.00000000E+00  0.00000000E+00
  0.00000000E+00  0.00000000E+00  0.00000000E+00  0.00000000E+00  0.00000000E+00
  0.00000000E+00  0.00000000E+00  0.00000000E+00  0.00000000E+00  0.00000000E+00
  0.00000000E+00  0.00000000E+00  0.00000000E+00  0.00000000E+00
Coordinates of each shell                  R   N=         168
 -4.07504996E+00  6.64466722E-01 -6.68118291E-01 -4.07504996E+00  6.64466722E-01
 -6.68118291E-01 -4.07504996E+00  6.64466722E-01 -6.68118291E-01 -4.07504996E+00
  6.64466722E-01 -6.68118291E-01  1.56575384E-01 -5.16912968E-01  2.93288435E-01
  1.56575384E-01 -5.16912968E-01  2.93288435E-01  1.56575384E-01 -5.16912968E-01
  2.93288435E-01  1.56575384E-01 -5.16912968E-01  2.93288435E-01 -2.59247405E+00
 -1.12777730E+00  6.73031358E-01 -2.59247405E+00 -1.12777730E+00  6.73031358E-01
 -2.59247405E+00 -1.12777730E+00  6.73031358E-01 -2.59247405E+00 -1.12777730E+00
  6.73031358E-01  1.93330729E+00 -2.44630985E+00 -2.76154082E-02  1.93330729E+00
 -2.44630985E+00 -2.76154082E-02  1.93330729E+00 -2.44630985E+00 -2.76154082E-02
  1.93330729E+00 -2.44630985E+00 -2.76154082E-02  9.72570040E-01  1.99920918E+00
  3.51267007E-01  9.72570040E-01  1.99920918E+00  3.51267007E-01  9.72570040E-01
  1.99920918E+00  3.51267007E-01  9.72570040E-01  1.99920918E+00  3.51267007E-01
  4.49729205E+00 -1.87618141E+00 -2.84097090E-01  4.49729205E+00 -1.87618141E+00
 -2.84097090E-01  4.49729205E+00 -1.87618141E+00 -2.84097090E-01  4.49729205E+00
 -1.87618141E+00 -2.84097090E-01  3.53057681E+00  2.57061231E+00  7.43290173E-02
  3.53057681E+00  2.57061231E+00  7.43290173E-02  3.53057681E+00  2.57061231E+00
  7.43290173E-02  3.53057681E+00  2.57061231E+00  7.43290173E-02  5.30155511E+00
  6.35269516E-01 -2.30798466E-01  5.30155511E+00  6.35269516E-01 -2.30798466E-01
  5.30155511E+00  6.35269516E-01 -2.30798466E-01  5.30155511E+00  6.35269516E-01
 -2.30798466E-01 -6.69306481E+00  2.57822962E-01 -2.58304632E-01 -6.69306481E+00
  2.57822962E-01 -2.58304632E-01 -6.69306481E+00  2.57822962E-01 -2.58304632E-01
 -6.69306481E+00  2.57822962E-01 -2.58304632E-01 -3.00222352E+00 -3.05918189E+00
  7.57206887E-03 -3.00222352E+00 -3.05918189E+00  7.57206887E-03 -3.07913537E+00
 -1.06341310E+00  2.70047261E+00 -3.07913537E+00 -1.06341310E+00  2.70047261E+00
  1.30954435E+00 -4.40614505E+00 -9.81642075E-02  1.30954435E+00 -4.40614505E+00
 -9.81642075E-02 -4.15439097E-01  3.49673446E+00  5.67630503E-01 -4.15439097E-01
  3.49673446E+00  5.67630503E-01  5.86225700E+00 -3.39125860E+00 -5.38910411E-01
  5.86225700E+00 -3.39125860E+00 -5.38910411E-01  4.14746805E+00  4.53089692E+00
  1.06308950E-01  4.14746805E+00  4.53089692E+00  1.06308950E-01  7.29544964E+00
  1.08466217E+00 -4.42456967E-01  7.29544964E+00  1.08466217E+00 -4.42456967E-01
 -7.69210836E+00  1.70420230E+00 -1.33393676E+00 -7.69210836E+00  1.70420230E+00
 -1.33393676E+00 -7.18250077E+00  4.32866990E-01  1.75241987E+00 -7.18250077E+00
  4.32866990E-01  1.75241987E+00 -7.28093916E+00 -1.61949256E+00 -9.22590657E-01
 -7.28093916E+00 -1.61949256E+00 -9.22590657E-01
Constraint Structure                       R   N=          57
 -4.07504996E+00  6.64466722E-01 -6.68118291E-01  1.56575384E-01 -5.16912968E-01
  2.93288435E-01 -2.59247405E+00 -1.12777730E+00  6.73031358E-01  1.93330729E+00
 -2.44630985E+00 -2.76154082E-02  9.72570040E-01  1.99920918E+00  3.51267007E-01
  4.49729205E+00 -1.87618141E+00 -2.84097090E-01  3.53057681E+00  2.57061231E+00
  7.43290173E-02  5.30155511E+00  6.35269516E-01 -2.30798466E-01 -6.69306481E+00
  2.57822962E-01 -2.58304632E-01 -3.00222352E+00 -3.05918189E+00  7.57206887E-03
 -3.07913537E+00 -1.06341310E+00  2.70047261E+00  1.30954435E+00 -4.40614505E+00
 -9.81642075E-02 -4.15439097E-01  3.49673446E+00  5.67630503E-01  5.86225700E+00
 -3.39125860E+00 -5.38910411E-01  4.14746805E+00  4.53089692E+00  1.06308950E-01
  7.29544964E+00  1.08466217E+00 -4.42456967E-01 -7.69210836E+00  1.70420230E+00
 -1.33393676E+00 -7.18250077E+00  4.32866990E-01  1.75241987E+00 -7.28093916E+00
 -1.61949256E+00 -9.22590657E-01
Num ILSW                                   I              100
ILSW                                       I   N=         100
           0           1           0           0           2           0
           0           0           0           0           0          -1
           0           0           0           0           0           0
           0           0           0           0           1           0
           1           0           0           0           0           0
           0           0      100000           0          -1           0
           0           0           0           0           0           0
           0           0           0           1           1           0
           0           0           1           0           0           0
           0           0           4          40           0           0
           0           0           0           0           0           0
           0           0           0           0           0           0
           0           0           0           0           0           0
           0           0           0           0           0           0
           0           0           0           0           0           0
           0           0           0           0           0           0
           0           0           0           0
Num RLSW                                   I               40
RLSW                                       R   N=          40
  1.00000000E+00  1.00000000E+00  1.00000000E+00  1.00000000E+00  1.00000000E+00
  0.00000000E+00  0.00000000E+00  1.00000000E+00  0.00000000E+00  0.00000000E+00
  0.00000000E+00  0.00000000E+00  1.00000000E+00  0.00000000E+00  0.00000000E+00
  0.00000000E+00  0.00000000E+00  1.00000000E+00  0.00000000E+00  0.00000000E+00
  0.00000000E+00  0.00000000E+00  1.00000000E+00  0.00000000E+00  0.00000000E+00
  0.00000000E+00  0.00000000E+00  1.00000000E+00  0.00000000E+00  0.00000000E+00
  0.00000000E+00  0.00000000E+00  0.00000000E+00  0.00000000E+00  0.00000000E+00
  0.00000000E+00  0.00000000E+00  0.00000000E+00  1.00000000E+00  1.00000000E+00
MxBond                                     I                4
NBond                                      I   N=          19
           2           3           4           3           3           3
           3           3           4           1           1           1
           1           1           1           1           1           1
           1
IBond                                      I   N=          76
           3           9           0           0           3           4
           5           0           1           2          10          11
           2           6          12           0           2           7
          13           0           4           8          14           0
           5           8          15           0           6           7
          16           0           1          17          18          19
           3           0           0           0           3           0
           0           0           4           0           0           0
           5           0           0           0           6           0
           0           0           7           0           0           0
           8           0           0           0           9           0
           0           0           9           0           0           0
           9           0           0           0
RBond                                      R   N=          76
  1.00000000E+00  1.00000000E+00  0.00000000E+00  0.00000000E+00  1.00000000E+00
  1.50000000E+00  1.50000000E+00  0.00000000E+00  1.00000000E+00  1.00000000E+00
  1.00000000E+00  1.00000000E+00  1.50000000E+00  1.50000000E+00  1.00000000E+00
  0.00000000E+00  1.50000000E+00  1.50000000E+00  1.00000000E+00  0.00000000E+00
  1.50000000E+00  1.50000000E+00  1.00000000E+00  0.00000000E+00  1.50000000E+00
  1.50000000E+00  1.00000000E+00  0.00000000E+00  1.50000000E+00  1.50000000E+00
  1.00000000E+00  0.00000000E+00  1.00000000E+00  1.00000000E+00  1.00000000E+00
  1.00000000E+00  1.00000000E+00  0.00000000E+00  0.00000000E+00  0.00000000E+00
  1.00000000E+00  0.00000000E+00  0.00000000E+00  0.00000000E+00  1.00000000E+00
  0.00000000E+00  0.00000000E+00  0.00000000E+00  1.00000000E+00  0.00000000E+00
  0.00000000E+00  0.00000000E+00  1.00000000E+00  0.00000000E+00  0.00000000E+00
  0.00000000E+00  1.00000000E+00  0.00000000E+00  0.00000000E+00  0.00000000E+00
  1.00000000E+00  0.00000000E+00  0.00000000E+00  0.00000000E+00  1.00000000E+00
  0.00000000E+00  0.00000000E+00  0.00000000E+00  1.00000000E+00  0.00000000E+00
  0.00000000E+00  0.00000000E+00  1.00000000E+00  0.00000000E+00  0.00000000E+00
  0.00000000E+00
Virial Ratio                               R      2.002126711088665E+00
SCF Energy                                 R     -3.836104206551420E+02
MP2 Energy                                 R     -3.848064798190419E+02
Total Energy                               R     -3.848064798190419E+02
Post-SCF wavefunction norm                 R      1.681953340485308E+00
RMS Force                                  R      3.735393007055477E-07
RMS Density                                R      1.828674346799676E-09
External E-field                           R   N=          35
  0.00000000E+00  0.00000000E+00  0.00000000E+00  0.00000000E+00  0.00000000E+00
  0.00000000E+00  0.00000000E+00  0.00000000E+00  0.00000000E+00  0.00000000E+00
  0.00000000E+00  0.00000000E+00  0.00000000E+00  0.00000000E+00  0.00000000E+00
  0.00000000E+00  0.00000000E+00  0.00000000E+00  0.00000000E+00  0.00000000E+00
  0.00000000E+00  0.00000000E+00  0.00000000E+00  0.00000000E+00  0.00000000E+00
  0.00000000E+00  0.00000000E+00  0.00000000E+00  0.00000000E+00  0.00000000E+00
  0.00000000E+00  0.00000000E+00  0.00000000E+00  0.00000000E+00  0.00000000E+00
IOpCl                                      I                0
IROHF                                      I                0
Alpha Orbital Energies                     R   N=         155
 -2.05640867E+01 -1.12820080E+01 -1.12739349E+01 -1.12353914E+01 -1.12319625E+01
 -1.12307311E+01 -1.12303619E+01 -1.12291893E+01 -1.12257736E+01 -1.37186518E+00
 -1.14384671E+00 -1.03693206E+00 -1.00477446E+00 -9.47106357E-01 -8.83616759E-01
 -8.17784320E-01 -7.90554335E-01 -6.93891496E-01 -6.65065972E-01 -6.49313454E-01
 -6.41941810E-01 -6.08789057E-01 -6.02446655E-01 -5.76951880E-01 -5.52507691E-01
 -5.44170714E-01 -4.94511059E-01 -4.85576421E-01 -4.81967155E-01 -4.74030914E-01
 -4.24571079E-01 -3.26743558E-01 -3.19864316E-01  1.44676960E-01  1.48459355E-01
  2.34605055E-01  2.44303650E-01  2.79292690E-01  2.98571255E-01  3.08515358E-01
  3.11056956E-01  3.17621051E-01  3.20722999E-01  3.35955464E-01  3.47529433E-01
  3.62304917E-01  3.87070204E-01  4.28614897E-01  4.52500329E-01  4.84600015E-01
  5.10007523E-01  5.15256805E-01  5.31603805E-01  6.76993020E-01  7.12820146E-01
  7.40551613E-01  7.52285245E-01  7.64502005E-01  7.74288482E-01  7.81984311E-01
  7.87860192E-01  8.21015222E-01  8.32102451E-01  8.36214532E-01  8.46934572E-01
  8.47951658E-01  8.63473361E-01  8.78508203E-01  9.03685586E-01  9.19183370E-01
  9.53183728E-01  1.01088336E+00  1.02325934E+00  1.03554671E+00  1.08833104E+00
  1.10992659E+00  1.11518225E+00  1.12369831E+00  1.12876841E+00  1.13974745E+00
  1.15591834E+00  1.16968792E+00  1.17950051E+00  1.20072126E+00  1.21218839E+00
  1.21977444E+00  1.25706393E+00  1.26860621E+00  1.30598153E+00  1.34819534E+00
  1.36933679E+00  1.40978482E+00  1.42716902E+00  1.47017325E+00  1.49441982E+00
  1.51012924E+00  1.56818821E+00  1.62461265E+00  1.70023876E+00  1.70492231E+00
  1.71497109E+00  1.73757005E+00  1.77285894E+00  1.78269169E+00  1.79758514E+00
  1.80946321E+00  1.89935724E+00  1.95760753E+00  2.08707562E+00  2.10279879E+00
  2.11949637E+00  2.16763017E+00  2.21841662E+00  2.23017932E+00  2.24198804E+00
  2.31125108E+00  2.36337246E+00  2.37257022E+00  2.38370214E+00  2.40771103E+00
  2.43338891E+00  2.44826571E+00  2.46693765E+00  2.47613298E+00  2.48910752E+00
  2.56392418E+00  2.58168478E+00  2.63028036E+00  2.64322489E+00  2.65189690E+00
  2.65823544E+00  2.72221509E+00  2.83610298E+00  2.89008073E+00  2.91855618E+00
  2.96083508E+00  3.00473141E+00  3.05466697E+00  3.08039591E+00  3.10415050E+00
  3.12604788E+00  3.15152079E+00  3.23811860E+00  3.33909112E+00  3.46439114E+00
  3.79503104E+00  4.37186944E+00  4.52099152E+00  4.54633922E+00  4.56039033E+00
  4.66242612E+00  4.71377047E+00  4.76093476E+00  4.84889823E+00  5.13232107E+00
Alpha MO coefficients                      R   N=       24025
  9.94670160E-01  2.12307530E-02 -5.21012763E-04 -9.33028007E-04  7.49226111E-04
  3.58634305E-03  3.35803110E-04  6.00417098E-04 -4.61267853E-04 -4.19221683E-03
 -3.97302300E-03 -3.91213149E-03  5.44645913E-05 -2.15045396E-05  1.60490517E-04
  7.68002613E-06  7.36772478E-05 -5.69153276E-06  1.42207610E-05 -1.21308804E-05
  4.50639169E-05  5.01585738E-04  2.16263901E-04  2.01414284E-05 -6.64233854E-05
  1.99696210E-05  6.93062277E-06  1.84671725E-05 -1.60045828E-05  3.16218442E-06
 -3.03676382E-05  1.70441607E-04 -2.03487181E-04  2.25736210E-04 -1.99177908E-04
  6.63861641E-04  1.01899850E-04  9.51117570E-05  7.36603803E-05  1.92670662E-05
 -2.25856345E-05 -4.20326981E-05 -5.39339805E-05  4.00417181E-05 -4.98650501E-05
  9.40105691E-07  8.38423867E-06  1.13289036E-05  2.83777895E-06  8.33116552E-06
 -2.01200369E-04 -2.11475473E-04 -1.48407857E-04 -2.79945639E-05 -1.31360760E-07
  2.12715954E-06  9.89197637E-07 -7.16386113E-06  1.61374428E-06 -1.79772054E-06
  4.64605530E-06  1.03391823E-05 -4.19327219E-05 -2.23361605E-05 -2.21654625E-05
  1.37170007E-04  3.81176694E-04  4.49029968E-04  4.55157835E-05  4.16474692E-05
 -3.17219982E-05  2.29541789E-05  1.05157296E-05 -7.94785205E-06 -2.74709459E-06
  1.54501095E-06  6.06275977E-06 -1.09856698E-05 -1.70631893E-06  1.55943767E-06
  5.92883817E-05 -1.00511157E-04 -1.00245668E-04  1.32876261E-05  5.87668458E-06
 -3.97401740E-06  5.26352429E-06  6.71687253E-07 -2.42659865E-06 -2.34208345E-06
  6.20967829E-06  3.91657547E-05  1.02216584E-05  9.52347877E-07  8.35943514E-06
 -4.04186862E-04  3.40431457E-04 -7.37133646E-06 -8.65706721E-05 -2.04616731E-05
  4.72799565E-06  1.38493493E-05 -6.14513601E-06  8.49453832E-06  3.53094073E-06