107_Methanamine Gaussian SP Calculation on node35.bme.utexas.edu        
Freq      RMP2-FC                                                     6-31G(d)            
Number of atoms                            I               11
Info1-9                                    I   N=           9
          22          21        1002           0           0         100
           6           2           1
Charge                                     I                0
Multiplicity                               I                1
Number of electrons                        I               32
Number of alpha electrons                  I               16
Number of beta electrons                   I               16
Number of basis functions                  I               74
Number of independent functions            I               74
Number of point charges in /Mol/           I                0
Number of translation vectors              I                0
Atomic numbers                             I   N=          11
           7           6           6           6           1           1
           1           1           1           1           1
Nuclear charges                            R   N=          11
  7.00000000E+00  6.00000000E+00  6.00000000E+00  6.00000000E+00  1.00000000E+00
  1.00000000E+00  1.00000000E+00  1.00000000E+00  1.00000000E+00  1.00000000E+00
  1.00000000E+00
Current cartesian coordinates              R   N=          33
  9.39576085E-01 -9.22859159E-01 -5.35937341E-06 -3.57794880E+00 -1.56493892E-01
 -3.55777132E-07 -8.76148221E-01  6.75770185E-01  6.51389364E-06  3.49055428E+00
  1.11442995E-01  1.72059740E-06 -4.56541505E+00  5.73028217E-01  1.66613424E+00
 -4.56544424E+00  5.73134694E-01 -1.66607022E+00 -3.66559986E+00 -2.21609510E+00
 -6.18186155E-05 -5.29775051E-01  2.73098093E+00 -2.16490300E-05  3.54584504E+00
  2.19061139E+00  4.04297728E-06  4.49230899E+00 -5.87979307E-01 -1.66684016E+00
  4.49230403E+00 -5.87982438E-01  1.66684580E+00
Force Field                                I                0
Int Atom Types                             I   N=          11
           0           0           0           0           0           0
           0           0           0           0           0
MM charges                                 R   N=          11
  0.00000000E+00  0.00000000E+00  0.00000000E+00  0.00000000E+00  0.00000000E+00
  0.00000000E+00  0.00000000E+00  0.00000000E+00  0.00000000E+00  0.00000000E+00
  0.00000000E+00
Integer atomic weights                     I   N=          11
          14          12          12          12           1           1
           1           1           1           1           1
Real atomic weights                        R   N=          11
  1.40030740E+01  1.20000000E+01  1.20000000E+01  1.20000000E+01  1.00782504E+00
  1.00782504E+00  1.00782504E+00  1.00782504E+00  1.00782504E+00  1.00782504E+00
  1.00782504E+00
Atom fragment info                         I   N=          11
           0           0           0           0           0           0
           0           0           0           0           0
Atom residue num                           I   N=          11
           0           0           0           0           0           0
           0           0           0           0           0
Nuclear spins                              I   N=          11
           2           0           0           0           1           1
           1           1           1           1           1
Nuclear ZEff                               R   N=          11
 -4.55000000E+00 -3.60000000E+00 -3.60000000E+00 -3.60000000E+00 -1.00000000E+00
 -1.00000000E+00 -1.00000000E+00 -1.00000000E+00 -1.00000000E+00 -1.00000000E+00
 -1.00000000E+00
Nuclear QMom                               R   N=          11
  2.04400000E+00  0.00000000E+00  0.00000000E+00  0.00000000E+00  0.00000000E+00
  0.00000000E+00  0.00000000E+00  0.00000000E+00  0.00000000E+00  0.00000000E+00
  0.00000000E+00
Nuclear GFac                               R   N=          11
  4.03761000E-01  0.00000000E+00  0.00000000E+00  0.00000000E+00  2.79284600E+00
  2.79284600E+00  2.79284600E+00  2.79284600E+00  2.79284600E+00  2.79284600E+00
  2.79284600E+00
MicOpt                                     I   N=          11
          -1          -1          -1          -1          -1          -1
          -1          -1          -1          -1          -1
Number of contracted shells                I               30
Number of primitive shells                 I               72
Pure/Cartesian d shells                    I                1
Pure/Cartesian f shells                    I                0
Highest angular momentum                   I                2
Largest degree of contraction              I                6
Shell types                                I   N=          30
           0          -1          -1           2           0          -1
          -1           2           0          -1          -1           2
           0          -1          -1           2           0           0
           0           0           0           0           0           0
           0           0           0           0           0           0
Number of primitives per shell             I   N=          30
           6           3           1           1           6           3
           1           1           6           3           1           1
           6           3           1           1           3           1
           3           1           3           1           3           1
           3           1           3           1           3           1
Shell to atom map                          I   N=          30
           1           1           1           1           2           2
           2           2           3           3           3           3
           4           4           4           4           5           5
           6           6           7           7           8           8
           9           9          10          10          11          11
Primitive exponents                        R   N=          72
  4.17351146E+03  6.27457911E+02  1.42902093E+02  4.02343293E+01  1.28202129E+01
  4.39043701E+00  1.16263619E+01  2.71627981E+00  7.72218397E-01  2.12031498E-01
  8.00000000E-01  3.04752488E+03  4.57369518E+02  1.03948685E+02  2.92101553E+01
  9.28666296E+00  3.16392696E+00  7.86827235E+00  1.88128854E+00  5.44249258E-01
  1.68714478E-01  8.00000000E-01  3.04752488E+03  4.57369518E+02  1.03948685E+02
  2.92101553E+01  9.28666296E+00  3.16392696E+00  7.86827235E+00  1.88128854E+00
  5.44249258E-01  1.68714478E-01  8.00000000E-01  3.04752488E+03  4.57369518E+02
  1.03948685E+02  2.92101553E+01  9.28666296E+00  3.16392696E+00  7.86827235E+00
  1.88128854E+00  5.44249258E-01  1.68714478E-01  8.00000000E-01  1.87311370E+01
  2.82539436E+00  6.40121692E-01  1.61277759E-01  1.87311370E+01  2.82539436E+00
  6.40121692E-01  1.61277759E-01  1.87311370E+01  2.82539436E+00  6.40121692E-01
  1.61277759E-01  1.87311370E+01  2.82539436E+00  6.40121692E-01  1.61277759E-01
  1.87311370E+01  2.82539436E+00  6.40121692E-01  1.61277759E-01  1.87311370E+01
  2.82539436E+00  6.40121692E-01  1.61277759E-01  1.87311370E+01  2.82539436E+00
  6.40121692E-01  1.61277759E-01
Contraction coefficients                   R   N=          72
  1.83477216E-03  1.39946270E-02  6.85865518E-02  2.32240873E-01  4.69069948E-01
  3.60455199E-01 -1.14961182E-01 -1.69117479E-01  1.14585195E+00  1.00000000E+00
  1.00000000E+00  1.83473713E-03  1.40373228E-02  6.88426223E-02  2.32184443E-01
  4.67941348E-01  3.62311985E-01 -1.19332420E-01 -1.60854152E-01  1.14345644E+00
  1.00000000E+00  1.00000000E+00  1.83473713E-03  1.40373228E-02  6.88426223E-02
  2.32184443E-01  4.67941348E-01  3.62311985E-01 -1.19332420E-01 -1.60854152E-01
  1.14345644E+00  1.00000000E+00  1.00000000E+00  1.83473713E-03  1.40373228E-02
  6.88426223E-02  2.32184443E-01  4.67941348E-01  3.62311985E-01 -1.19332420E-01
 -1.60854152E-01  1.14345644E+00  1.00000000E+00  1.00000000E+00  3.34946043E-02
  2.34726953E-01  8.13757326E-01  1.00000000E+00  3.34946043E-02  2.34726953E-01
  8.13757326E-01  1.00000000E+00  3.34946043E-02  2.34726953E-01  8.13757326E-01
  1.00000000E+00  3.34946043E-02  2.34726953E-01  8.13757326E-01  1.00000000E+00
  3.34946043E-02  2.34726953E-01  8.13757326E-01  1.00000000E+00  3.34946043E-02
  2.34726953E-01  8.13757326E-01  1.00000000E+00  3.34946043E-02  2.34726953E-01
  8.13757326E-01  1.00000000E+00
P(S=P) Contraction coefficients            R   N=          72
  0.00000000E+00  0.00000000E+00  0.00000000E+00  0.00000000E+00  0.00000000E+00
  0.00000000E+00  6.75797439E-02  3.23907296E-01  7.40895140E-01  1.00000000E+00
  0.00000000E+00  0.00000000E+00  0.00000000E+00  0.00000000E+00  0.00000000E+00
  0.00000000E+00  0.00000000E+00  6.89990666E-02  3.16423961E-01  7.44308291E-01
  1.00000000E+00  0.00000000E+00  0.00000000E+00  0.00000000E+00  0.00000000E+00
  0.00000000E+00  0.00000000E+00  0.00000000E+00  6.89990666E-02  3.16423961E-01
  7.44308291E-01  1.00000000E+00  0.00000000E+00  0.00000000E+00  0.00000000E+00
  0.00000000E+00  0.00000000E+00  0.00000000E+00  0.00000000E+00  6.89990666E-02
  3.16423961E-01  7.44308291E-01  1.00000000E+00  0.00000000E+00  0.00000000E+00
  0.00000000E+00  0.00000000E+00  0.00000000E+00  0.00000000E+00  0.00000000E+00
  0.00000000E+00  0.00000000E+00  0.00000000E+00  0.00000000E+00  0.00000000E+00
  0.00000000E+00  0.00000000E+00  0.00000000E+00  0.00000000E+00  0.00000000E+00
  0.00000000E+00  0.00000000E+00  0.00000000E+00  0.00000000E+00  0.00000000E+00
  0.00000000E+00  0.00000000E+00  0.00000000E+00  0.00000000E+00  0.00000000E+00
  0.00000000E+00  0.00000000E+00
Coordinates of each shell                  R   N=          90
  9.39576085E-01 -9.22859159E-01 -5.35937341E-06  9.39576085E-01 -9.22859159E-01
 -5.35937341E-06  9.39576085E-01 -9.22859159E-01 -5.35937341E-06  9.39576085E-01
 -9.22859159E-01 -5.35937341E-06 -3.57794880E+00 -1.56493892E-01 -3.55777132E-07
 -3.57794880E+00 -1.56493892E-01 -3.55777132E-07 -3.57794880E+00 -1.56493892E-01
 -3.55777132E-07 -3.57794880E+00 -1.56493892E-01 -3.55777132E-07 -8.76148221E-01
  6.75770185E-01  6.51389364E-06 -8.76148221E-01  6.75770185E-01  6.51389364E-06
 -8.76148221E-01  6.75770185E-01  6.51389364E-06 -8.76148221E-01  6.75770185E-01
  6.51389364E-06  3.49055428E+00  1.11442995E-01  1.72059740E-06  3.49055428E+00
  1.11442995E-01  1.72059740E-06  3.49055428E+00  1.11442995E-01  1.72059740E-06
  3.49055428E+00  1.11442995E-01  1.72059740E-06 -4.56541505E+00  5.73028217E-01
  1.66613424E+00 -4.56541505E+00  5.73028217E-01  1.66613424E+00 -4.56544424E+00
  5.73134694E-01 -1.66607022E+00 -4.56544424E+00  5.73134694E-01 -1.66607022E+00
 -3.66559986E+00 -2.21609510E+00 -6.18186155E-05 -3.66559986E+00 -2.21609510E+00
 -6.18186155E-05 -5.29775051E-01  2.73098093E+00 -2.16490300E-05 -5.29775051E-01
  2.73098093E+00 -2.16490300E-05  3.54584504E+00  2.19061139E+00  4.04297728E-06
  3.54584504E+00  2.19061139E+00  4.04297728E-06  4.49230899E+00 -5.87979307E-01
 -1.66684016E+00  4.49230899E+00 -5.87979307E-01 -1.66684016E+00  4.49230403E+00
 -5.87982438E-01  1.66684580E+00  4.49230403E+00 -5.87982438E-01  1.66684580E+00
Constraint Structure                       R   N=          33
  9.39576085E-01 -9.22859159E-01 -5.35937341E-06 -3.57794880E+00 -1.56493892E-01
 -3.55777132E-07 -8.76148221E-01  6.75770185E-01  6.51389364E-06  3.49055428E+00
  1.11442995E-01  1.72059740E-06 -4.56541505E+00  5.73028217E-01  1.66613424E+00
 -4.56544424E+00  5.73134694E-01 -1.66607022E+00 -3.66559986E+00 -2.21609510E+00
 -6.18186155E-05 -5.29775051E-01  2.73098093E+00 -2.16490300E-05  3.54584504E+00
  2.19061139E+00  4.04297728E-06  4.49230899E+00 -5.87979307E-01 -1.66684016E+00
  4.49230403E+00 -5.87982438E-01  1.66684580E+00
Num ILSW                                   I              100
ILSW                                       I   N=         100
           0           1           0           0           2           0
           0           0           0           0           0          -1
           0           0           0           0           0           0
           0           0           0           0           1           0
           1           0           0           0           0           0
           0           0      100000           0          -1           0
           0           0           0           0           0           0
           0           0           0           1           1           0
           0           0           1           0           0           0
           0           0           4          40           0           0
           0           0           0           0           0           0
           0           0           0           0           0           0
           0           0           0           0           0           0
           0           0           0           0           0           0
           0           0           0           0           0           0
           0           0           0           0           0           0
           0           0           0           0
Num RLSW                                   I               40
RLSW                                       R   N=          40
  1.00000000E+00  1.00000000E+00  1.00000000E+00  1.00000000E+00  1.00000000E+00
  0.00000000E+00  0.00000000E+00  1.00000000E+00  0.00000000E+00  0.00000000E+00
  0.00000000E+00  0.00000000E+00  1.00000000E+00  0.00000000E+00  0.00000000E+00
  0.00000000E+00  0.00000000E+00  1.00000000E+00  0.00000000E+00  0.00000000E+00
  0.00000000E+00  0.00000000E+00  1.00000000E+00  0.00000000E+00  0.00000000E+00
  0.00000000E+00  0.00000000E+00  1.00000000E+00  0.00000000E+00  0.00000000E+00
  0.00000000E+00  0.00000000E+00  0.00000000E+00  0.00000000E+00  0.00000000E+00
  0.00000000E+00  0.00000000E+00  0.00000000E+00  1.00000000E+00  1.00000000E+00
MxBond                                     I                4
NBond                                      I   N=          11
           2           4           3           4           1           1
           1           1           1           1           1
IBond                                      I   N=          44
           3           4           0           0           3           5
           6           7           1           2           8           0
           1           9          10          11           2           0
           0           0           2           0           0           0
           2           0           0           0           3           0
           0           0           4           0           0           0
           4           0           0           0           4           0
           0           0
RBond                                      R   N=          44
  2.00000000E+00  1.00000000E+00  0.00000000E+00  0.00000000E+00  1.00000000E+00
  1.00000000E+00  1.00000000E+00  1.00000000E+00  2.00000000E+00  1.00000000E+00
  1.00000000E+00  0.00000000E+00  1.00000000E+00  1.00000000E+00  1.00000000E+00
  1.00000000E+00  1.00000000E+00  0.00000000E+00  0.00000000E+00  0.00000000E+00
  1.00000000E+00  0.00000000E+00  0.00000000E+00  0.00000000E+00  1.00000000E+00
  0.00000000E+00  0.00000000E+00  0.00000000E+00  1.00000000E+00  0.00000000E+00
  0.00000000E+00  0.00000000E+00  1.00000000E+00  0.00000000E+00  0.00000000E+00
  0.00000000E+00  1.00000000E+00  0.00000000E+00  0.00000000E+00  0.00000000E+00
  1.00000000E+00  0.00000000E+00  0.00000000E+00  0.00000000E+00
Virial Ratio                               R      2.002182910550978E+00
SCF Energy                                 R     -1.721036159702049E+02
MP2 Energy                                 R     -1.726542736405540E+02
Total Energy                               R     -1.726542736405540E+02
Post-SCF wavefunction norm                 R      1.540701985014936E+00
RMS Force                                  R      1.797804191198310E-06
RMS Density                                R      2.628477447941697E-09
External E-field                           R   N=          35
  0.00000000E+00  0.00000000E+00  0.00000000E+00  0.00000000E+00  0.00000000E+00
  0.00000000E+00  0.00000000E+00  0.00000000E+00  0.00000000E+00  0.00000000E+00
  0.00000000E+00  0.00000000E+00  0.00000000E+00  0.00000000E+00  0.00000000E+00
  0.00000000E+00  0.00000000E+00  0.00000000E+00  0.00000000E+00  0.00000000E+00
  0.00000000E+00  0.00000000E+00  0.00000000E+00  0.00000000E+00  0.00000000E+00
  0.00000000E+00  0.00000000E+00  0.00000000E+00  0.00000000E+00  0.00000000E+00
  0.00000000E+00  0.00000000E+00  0.00000000E+00  0.00000000E+00  0.00000000E+00
IOpCl                                      I                0
IROHF                                      I                0
Alpha Orbital Energies                     R   N=          74
 -1.55577961E+01 -1.12767161E+01 -1.12436679E+01 -1.12239965E+01 -1.21817349E+00
 -1.00891758E+00 -9.09382147E-01 -7.60073151E-01 -6.44126154E-01 -6.09672810E-01
 -5.92422400E-01 -5.64390796E-01 -5.35595165E-01 -5.11675440E-01 -4.00753231E-01
 -3.93512452E-01  1.76148470E-01  2.55428949E-01  2.62918229E-01  2.90810739E-01
  3.15074655E-01  3.21101345E-01  3.34192975E-01  3.40385225E-01  3.82952630E-01
  4.30168457E-01  5.73956396E-01  7.22754835E-01  7.39296798E-01  7.72689609E-01
  7.73456642E-01  8.04165560E-01  8.88957623E-01  9.22985454E-01  9.63962328E-01
  9.91011440E-01  1.01526701E+00  1.05842403E+00  1.07804666E+00  1.13100566E+00
  1.13214511E+00  1.16381231E+00  1.17914978E+00  1.20712878E+00  1.21472593E+00
  1.22804505E+00  1.30142829E+00  1.42702383E+00  1.54231956E+00  1.65860799E+00
  1.69468077E+00  1.71673047E+00  1.94375524E+00  1.97750545E+00  2.10087354E+00
  2.20535387E+00  2.26991160E+00  2.29659113E+00  2.39197734E+00  2.46528634E+00
  2.50816214E+00  2.61035745E+00  2.61533585E+00  2.64111720E+00  2.72656328E+00
  2.80524759E+00  2.84757567E+00  3.01336279E+00  3.25266529E+00  3.32513590E+00
  4.31263714E+00  4.52937919E+00  4.68013074E+00  4.78855678E+00
Alpha MO coefficients                      R   N=        5476
  9.95189546E-01  2.46106209E-02  8.49555357E-05  1.90919468E-03  1.22253572E-08
 -4.00699974E-03 -3.29585501E-04 -1.90095040E-03 -9.84117786E-09 -2.85257678E-03
 -2.81665358E-03 -3.27510135E-03 -2.69111159E-04 -1.40972131E-09  1.18095328E-09
  4.40527563E-06  1.17077383E-05 -4.54824680E-06 -1.19160030E-05 -5.91097639E-10
 -3.75322998E-05 -2.27612993E-04  2.82594929E-04  5.84684042E-09 -3.09121304E-05
  2.85705020E-05  7.63116029E-06  5.42346489E-05  1.21709697E-09 -1.05453413E-09
  3.81679536E-05  2.55989731E-04 -5.51240442E-05  9.32230361E-05  1.90462511E-09
  2.31139106E-03  9.86539546E-04 -4.69094265E-04 -9.77948234E-09 -3.84858714E-04
 -2.90283898E-04 -1.32276844E-05  3.14002601E-04  2.70832159E-09 -3.04621234E-09
 -8.57625694E-06  2.86820790E-04 -2.54684288E-04 -8.32524972E-05 -9.98444967E-11
  1.86270309E-03 -6.66878503E-04  1.30089769E-04 -3.20857512E-09 -2.38692378E-04
 -1.52328241E-04 -5.33631786E-05 -1.26969284E-04 -6.25532858E-10 -7.10751795E-10
 -4.20414510E-07 -9.35046767E-05 -4.22489332E-07 -9.35042185E-05  4.57310024E-05
  5.17998760E-05 -1.07868811E-04 -2.09006420E-04 -1.10719839E-04 -4.17638269E-04
 -1.06645246E-04 -3.62541942E-05 -1.06645314E-04 -3.62507851E-05 -4.50019659E-04
  1.47740856E-04 -3.15564395E-06  3.37593662E-05 -7.81543671E-10  2.29635378E-04
 -1.06493490E-04 -6.20722417E-04 -1.74109729E-08 -2.74407207E-04 -2.65112349E-04
  1.33607497E-04 -4.02758351E-05  3.35430980E-09 -4.73551441E-09  6.26864022E-03
  3.55809005E-04 -1.73606667E-04 -2.60384940E-05  4.62152784E-09  2.33620471E-03
  1.39120457E-03  3.81824115E-04 -3.47041601E-08 -5.41600282E-04 -1.82445648E-04
 -6.25142131E-05 -1.49568552E-04 -2.29096831E-09 -2.47830360E-09  9.95650875E-01
  2.69310238E-02  1.09552992E-04 -1.90472273E-04 -6.57686725E-09 -9.30770142E-03
  1.27283607E-03 -4.30167704E-04  3.43259258E-08 -1.46733694E-03 -1.71781603E-03
 -2.44364484E-03 -3.41416886E-04 -4.03943853E-09 -4.20600913E-09 -3.02423896E-04
 -2.36306456E-04 -9.87244449E-05 -7.08991099E-05 -1.09687478E-09  7.36166040E-04
 -4.43051412E-04  5.41895391E-04  9.17134388E-09  2.40822927E-04 -4.71582548E-06
 -2.36323087E-05 -2.29259191E-05 -1.88740668E-10 -9.99710435E-10 -1.28821374E-04
  3.51440481E-04 -1.28820346E-04  3.51392264E-04 -5.64867839E-05  4.87324599E-05
 -1.27447826E-04  2.13157578E-03 -4.30376235E-05 -5.87761622E-04 -2.55898407E-05
  1.36232710E-04 -2.55927051E-05  1.36227971E-04 -1.85973346E-04  2.32441468E-04
  7.84998058E-05  3.63526226E-05 -9.85596996E-10  1.19867673E-03  8.19272662E-04
 -4.91422158E-04  1.92264717E-09 -5.31914148E-04 -2.19117084E-04  2.49976418E-05
 -1.49860935E-04 -1.12277214E-09 -1.59324216E-09  6.65009725E-05 -8.14110581E-05
  4.63928724E-05 -1.82697484E-05 -1.10648155E-09  1.24741269E-03  4.09711048E-04
  2.92836892E-04  1.14301849E-08 -1.60971930E-05 -3.22037771E-05 -1.48858244E-05
  3.62279085E-06  6.36929778E-10 -5.49701337E-10  2.70357787E-04 -2.42554418E-04
 -5.19852097E-05 -1.41515107E-04  1.07321404E-10  9.10411288E-04  1.80052668E-03
  3.85672658E-04 -1.03924619E-08  1.30574043E-04  8.70541006E-05 -9.38931553E-05
 -7.96264288E-05 -8.74027421E-10 -2.86885248E-10  9.95759110E-01  2.80363011E-02
 -4.32624340E-04 -1.43618086E-04 -1.01903933E-10 -1.35027290E-02  2.02252404E-04
  9.57809631E-05 -4.71440820E-09 -1.75143218E-03 -1.82345293E-03 -1.75258325E-03
  2.77355170E-05  3.24031003E-11  3.52925344E-10 -4.75960441E-05 -6.19744409E-05
 -4.75968207E-05 -6.19663391E-05  1.07035276E-06  1.03721688E-05 -1.50838913E-04
 -5.48069923E-04  1.51553554E-04  2.35489734E-03  9.11618554E-05  2.55734236E-03
  9.11626223E-05  2.55734716E-03 -8.20285720E-06 -1.26507131E-04  7.29057662E-05
  2.23301336E-05 -9.62482616E-10  2.27870726E-04 -4.55790027E-04  2.63450306E-04
  5.82761646E-09  2.37369274E-05  5.17653054E-05 -1.09357977E-04 -7.02549547E-05
 -1.19822878E-09  1.36539367E-09  9.95697787E-01  2.86496352E-02  1.25240157E-04
  1.80190121E-04  6.95444755E-09 -1.56116726E-02 -9.40147768E-04 -4.83138954E-04
 -1.73672637E-08 -1.87870462E-03 -1.86280488E-03 -1.88369938E-03 -5.78117162E-06
 -8.24337687E-11  1.25045763E-10 -6.57508007E-03 -9.35439077E-05  8.43861353E-06
  8.36128727E-05  1.40556096E-09  3.69894816E-03 -2.39600249E-03 -4.53132623E-04
 -4.91280717E-09 -5.06830943E-04 -1.81742817E-04 -1.37692979E-04 -7.56494589E-05
 -1.61476168E-09 -4.65642253E-10 -1.05173325E-04 -8.78535171E-05 -1.08691935E-05
 -3.59864640E-06 -1.14256056E-10  5.62680905E-04 -2.87648105E-04 -1.15298132E-04
 -1.07085867E-09  4.88408677E-06 -1.90968111E-05 -4.13329398E-05  1.51441137E-06
  2.27782534E-10  4.28143049E-10  1.44039535E-04  2.58887456E-03  1.44038207E-04
  2.58886693E-03  1.64500462E-04  2.45593634E-03 -1.05182732E-04  4.40352139E-05
 -3.32435846E-05  1.11507867E-04 -1.85648882E-05 -3.77069523E-05 -1.85644453E-05
 -3.77078625E-05 -1.70138965E-01  3.50355797E-01 -3.06656876E-02  1.11333452E-01
  5.98782801E-07  3.48388929E-01 -3.09768892E-03  5.21382288E-02  3.17520920E-07
  9.05865515E-03  4.40728587E-03 -1.14168792E-02 -5.13939043E-03 -2.95843787E-08
  1.21080477E-07 -3.23839540E-02  5.96739337E-02  3.59536018E-02  4.52102321E-03
  1.66949673E-08  4.22613054E-02  6.71597958E-03 -6.24448045E-03  8.79039930E-09
  7.78200624E-03  5.66039415E-07 -7.56418085E-04  1.48817145E-03  3.71422396E-09
  4.22043052E-08 -1.18105336E-01  2.28343690E-01  1.00983062E-01 -8.52811434E-02
 -8.56607142E-07  9.32488618E-02 -9.96949916E-03  1.71281235E-02 -6.26095565E-08
  1.15371399E-02  4.95944821E-03 -1.23384486E-02 -1.55253948E-02 -1.40086026E-07
  1.17110952E-08 -7.19860352E-02  1.34948824E-01 -7.74214210E-02 -2.02776981E-02
 -1.68079617E-07  6.25143274E-02  3.01938808E-03  1.54135787E-03  1.04740668E-08
  1.73935844E-02 -1.29306015E-04 -2.70224530E-03  6.29102801E-03  5.60230767E-08
  2.30558717E-08  1.27691990E-02  8.75457226E-04  1.27691602E-02  8.75556819E-04
  1.58176642E-02 -9.11256639E-04  4.35244948E-02 -2.47706620E-03  3.22154653E-02
  6.83948968E-03  2.97638642E-02  2.11416897E-03  2.97638618E-02  2.11415684E-03
  3.86753218E-02 -8.24806268E-02 -1.24528173E-01 -9.36326445E-03 -1.15391349E-07
 -8.63595631E-02 -4.61259860E-02 -8.02612574E-03 -3.69761553E-08 -5.97596095E-03
 -7.98726745E-04  3.28253601E-03 -1.13155123E-02 -4.75193406E-08 -3.26675317E-08
 -1.50241023E-01  2.80264753E-01  4.37333635E-02  1.78999741E-02  2.13605407E-07
  2.66247788E-01  3.94634104E-03  4.49918272E-03  1.52953563E-07  9.25850221E-03
  6.31347151E-03  5.67045145E-03  1.59568407E-03  2.91381567E-08 -3.06099048E-09
 -8.94335749E-02  1.78815447E-01 -1.21927664E-01 -1.47673355E-02 -4.97040170E-07
  1.29964063E-01 -2.09270301E-02  1.36740938E-02 -1.92834297E-07  1.02418012E-02
  4.69456485E-03 -7.79924474E-03  7.74820439E-03  3.56799524E-08 -8.22762579E-08
  9.51919607E-02 -1.81321785E-01  2.92455546E-02  1.85673342E-02  1.32502427E-07
 -1.53534540E-01 -2.89048571E-03 -3.88031322E-03 -2.39627501E-08 -7.39190771E-03
 -3.40135646E-03 -2.67104543E-03 -2.83686160E-03 -2.31524458E-08 -1.55152154E-08
  9.22280414E-02  1.86166002E-02  9.22281231E-02  1.86167143E-02  8.94937910E-02
  1.53158685E-02  4.72516269E-02  2.54886122E-03 -5.39275217E-02 -8.20816963E-03
 -5.86943072E-02 -1.25775647E-02 -5.86942663E-02 -1.25775418E-02  5.17088604E-02
 -1.07315304E-01  1.75845581E-01 -5.21209484E-02 -3.05539870E-07 -1.34440955E-01
  5.96621794E-02 -1.88560076E-02 -1.67351415E-07  9.53413056E-03 -3.94498731E-03
  2.21517453E-03  1.72513011E-02  1.04404708E-07 -5.55182694E-08 -1.02332232E-01
  1.89521850E-01 -4.21271064E-02  5.48713616E-03  2.02460819E-07  2.11707591E-01
 -1.20479969E-02  6.57330935E-03  9.97791504E-08 -2.32490301E-03  6.45966991E-03
  7.97345249E-03 -2.58510490E-03 -1.16173007E-09 -7.68470304E-08  4.73717356E-02
 -9.48741109E-02 -1.49719010E-01  6.92787508E-02  6.51317659E-07 -7.21691605E-02
 -1.91434901E-02  1.60109436E-03  1.88600042E-07  6.77872153E-03 -7.46088284E-03
  4.98555086E-03  1.53422063E-02  1.31252174E-07 -5.46863620E-08 -1.43191785E-01
  2.73285679E-01  5.96118506E-02  3.54706260E-04 -1.68880118E-08  2.87095071E-01
  2.13890544E-02  6.86302784E-03  5.18415227E-08 -3.77537600E-03  8.96924427E-03
  1.09142108E-02 -3.42605630E-03 -2.01614351E-08  5.28506676E-09  8.23492090E-02
  2.54614410E-02  8.23495114E-02  2.54615451E-02  6.97289396E-02  2.07855503E-02
 -1.52867464E-02  2.75139436E-03  1.03419332E-01  2.81913555E-02  1.14105063E-01
  3.39865504E-02  1.14104972E-01  3.39865029E-02 -8.52893002E-02  1.84220854E-01
  5.03350673E-02 -9.50582986E-02  4.00420099E-07  2.59782934E-01  4.00408778E-02
 -3.79217388E-02  1.94931685E-08  7.21731623E-03 -1.09300982E-02 -2.57771821E-03
  4.44916712E-03 -3.95484034E-08  2.47398749E-08 -5.22736732E-02  9.76854462E-02
 -1.18235559E-01 -9.76239005E-02  2.27211471E-07  1.18016467E-01 -4.70210101E-02
 -3.11960650E-02 -2.10248421E-07 -9.35891501E-03  9.48267031E-03  6.85791724E-03
 -9.90155661E-03 -1.59566854E-07  2.86320097E-07  1.11501505E-01 -2.26394404E-01
  2.78622781E-02 -2.17463727E-01  1.83085398E-06 -2.43226078E-01 -1.57157655E-03
 -1.01292354E-01  7.91699852E-07  4.23295432E-03 -1.97663807E-02  8.39805110E-03
 -1.00354812E-02  6.79743035E-08  4.99955539E-07  3.33766459E-02 -6.13143259E-02
 -9.26656296E-02 -1.02733747E-01 -2.74348054E-07 -1.03421621E-01 -2.09567545E-02
 -3.17321321E-02  8.44007436E-08  9.48937986E-03 -8.48709646E-03 -4.50574877E-03
  1.05059391E-02  3.52792777E-08  6.07765953E-09  5.43948236E-02  2.55982364E-02
  5.43929228E-02  2.55967015E-02  9.69955864E-02  5.07475518E-02 -2.07701824E-01
 -1.02003580E-01 -8.72535633E-02 -5.14952373E-02 -3.33691620E-02 -1.30889850E-02
 -3.33691768E-02 -1.30891053E-02 -2.42809456E-02  5.18332053E-02  3.05027895E-01
  2.20417608E-02 -1.80554029E-06  1.04253315E-01  1.41824661E-01  2.19824203E-02
 -7.52012215E-07 -7.36637007E-04  3.66337516E-03 -3.24471036E-03  1.94199814E-02
  1.74873319E-07 -1.42518078E-07 -9.02813605E-03  1.17300032E-02 -1.65207450E-01
  1.33895747E-01 -1.42696075E-06  3.31084583E-02 -6.35243455E-02  6.92667137E-02
 -1.02389501E-07 -7.16797298E-03 -5.28129258E-03  1.40823464E-02 -4.57957781E-03
  2.74461641E-07 -1.08555907E-06  2.50176014E-02 -6.10999458E-02  2.78813547E-02
  2.79520473E-01 -1.71856436E-06 -4.31176473E-02  2.01744838E-02  1.00411819E-01
 -9.73125705E-07  7.84859171E-04  6.01635789E-03  1.94918844E-03  5.32216966E-03
 -5.80128672E-08 -3.67724167E-07  2.56095837E-02 -4.31878012E-02 -2.55065910E-01
 -9.59741364E-02 -2.43789106E-06 -9.31660028E-02 -9.73605225E-02 -3.30564648E-02
 -1.23205641E-06  1.87992349E-02 -8.61828994E-03 -1.46784705E-02  1.66968287E-02
  6.88315537E-08  1.50638759E-07  8.30522600E-02  5.77631745E-02  8.30591781E-02
  5.77685222E-02 -6.65027440E-02 -3.51786186E-02  1.31100791E-01  9.56083634E-02
 -7.87830943E-02 -5.12142238E-02 -7.85350917E-02 -5.01304015E-02 -7.85368230E-02
 -5.01314013E-02  2.26930116E-02 -4.75333143E-02 -9.65781462E-02  2.27327239E-01
  1.53697105E-06 -1.20878898E-01 -3.33281609E-02  1.11402575E-01  7.36362300E-07
 -1.19892194E-02  2.00065469E-02 -3.34745415E-03 -1.63316583E-03 -2.55119155E-08
  2.08051640E-07 -1.34022514E-02  1.90881200E-02 -2.13073015E-01 -1.03753529E-01
  1.14813483E-07  6.88843779E-02 -9.01079713E-02 -4.51937173E-02 -7.90105513E-09
 -1.34180078E-02  9.46029134E-03  8.33214346E-03 -9.78097350E-03 -1.78867406E-07
  1.79864357E-07  2.80205178E-02 -5.29800083E-02  2.58338821E-01 -2.78733082E-02
  2.57592088E-07 -8.74495611E-02  1.12215459E-01 -5.69909063E-03  1.92840016E-07
 -6.88538184E-04 -1.63752710E-03 -8.56829610E-06 -9.62971565E-03 -1.16519306E-07
  5.70119510E-08 -1.87176599E-03  2.23063044E-03 -6.86765320E-02  2.95939031E-01
  2.25385074E-06  5.59853278E-03 -3.53058624E-02  1.43488362E-01  1.07357337E-06
 -2.33069794E-03  1.92185272E-02 -1.47967270E-02 -3.04626317E-03  1.00762060E-07