180_Diisopropylether Gaussian SP Calculation on node73.bme.utexas.edu   
Freq      RMP2-FC                                                     6-31G(d)            
Number of atoms                            I               21
Info1-9                                    I   N=           9
          32          31        1002           0           0         100
           6           2           1
Charge                                     I                0
Multiplicity                               I                1
Number of electrons                        I               58
Number of alpha electrons                  I               29
Number of beta electrons                   I               29
Number of basis functions                  I              133
Number of independent functions            I              133
Number of point charges in /Mol/           I                0
Number of translation vectors              I                0
Atomic numbers                             I   N=          21
           8           6           6           6           6           6
           6           1           1           1           1           1
           1           1           1           1           1           1
           1           1           1
Nuclear charges                            R   N=          21
  8.00000000E+00  6.00000000E+00  6.00000000E+00  6.00000000E+00  6.00000000E+00
  6.00000000E+00  6.00000000E+00  1.00000000E+00  1.00000000E+00  1.00000000E+00
  1.00000000E+00  1.00000000E+00  1.00000000E+00  1.00000000E+00  1.00000000E+00
  1.00000000E+00  1.00000000E+00  1.00000000E+00  1.00000000E+00  1.00000000E+00
  1.00000000E+00
Current cartesian coordinates              R   N=          63
  2.63434384E-06 -4.98627664E-05 -1.01354953E+00  2.26319914E+00 -2.52385194E-01
  4.54780678E-01 -2.26319718E+00  2.52369586E-01  4.54769932E-01  4.09786502E+00
 -1.76306485E+00 -1.15045270E+00  3.28734806E+00  2.34860461E+00  1.13733989E+00
 -4.09781220E+00  1.76310707E+00 -1.15046711E+00 -3.28740801E+00 -2.34859515E+00
  1.13732420E+00  1.84633632E+00 -1.31215631E+00  2.19517055E+00 -1.84630461E+00
  1.31212165E+00  2.19516184E+00  5.90219655E+00 -2.01567673E+00 -1.72564494E-01
  3.30390178E+00 -3.61813082E+00 -1.58678999E+00  4.44081549E+00 -7.65995444E-01
 -2.92777294E+00  5.01842898E+00  2.19336437E+00  2.25982229E+00  1.90680570E+00
  3.42926257E+00  2.23167937E+00  3.70671983E+00  3.39401137E+00 -5.95176860E-01
 -5.90214402E+00  2.01576293E+00 -1.72590284E-01 -3.30379715E+00  3.61815427E+00
 -1.58679059E+00 -4.44077916E+00  7.66056914E-01 -2.92779511E+00 -5.01848623E+00
 -2.19332102E+00  2.25980605E+00 -1.90688395E+00 -3.42928001E+00  2.23166107E+00
 -3.70679955E+00 -3.39399125E+00 -5.95193954E-01
Force Field                                I                0
Int Atom Types                             I   N=          21
           0           0           0           0           0           0
           0           0           0           0           0           0
           0           0           0           0           0           0
           0           0           0
MM charges                                 R   N=          21
  0.00000000E+00  0.00000000E+00  0.00000000E+00  0.00000000E+00  0.00000000E+00
  0.00000000E+00  0.00000000E+00  0.00000000E+00  0.00000000E+00  0.00000000E+00
  0.00000000E+00  0.00000000E+00  0.00000000E+00  0.00000000E+00  0.00000000E+00
  0.00000000E+00  0.00000000E+00  0.00000000E+00  0.00000000E+00  0.00000000E+00
  0.00000000E+00
Integer atomic weights                     I   N=          21
          16          12          12          12          12          12
          12           1           1           1           1           1
           1           1           1           1           1           1
           1           1           1
Real atomic weights                        R   N=          21
  1.59949146E+01  1.20000000E+01  1.20000000E+01  1.20000000E+01  1.20000000E+01
  1.20000000E+01  1.20000000E+01  1.00782504E+00  1.00782504E+00  1.00782504E+00
  1.00782504E+00  1.00782504E+00  1.00782504E+00  1.00782504E+00  1.00782504E+00
  1.00782504E+00  1.00782504E+00  1.00782504E+00  1.00782504E+00  1.00782504E+00
  1.00782504E+00
Atom fragment info                         I   N=          21
           0           0           0           0           0           0
           0           0           0           0           0           0
           0           0           0           0           0           0
           0           0           0
Atom residue num                           I   N=          21
           0           0           0           0           0           0
           0           0           0           0           0           0
           0           0           0           0           0           0
           0           0           0
Nuclear spins                              I   N=          21
           0           0           0           0           0           0
           0           1           1           1           1           1
           1           1           1           1           1           1
           1           1           1
Nuclear ZEff                               R   N=          21
 -5.60000000E+00 -3.60000000E+00 -3.60000000E+00 -3.60000000E+00 -3.60000000E+00
 -3.60000000E+00 -3.60000000E+00 -1.00000000E+00 -1.00000000E+00 -1.00000000E+00
 -1.00000000E+00 -1.00000000E+00 -1.00000000E+00 -1.00000000E+00 -1.00000000E+00
 -1.00000000E+00 -1.00000000E+00 -1.00000000E+00 -1.00000000E+00 -1.00000000E+00
 -1.00000000E+00
Nuclear QMom                               R   N=          21
  0.00000000E+00  0.00000000E+00  0.00000000E+00  0.00000000E+00  0.00000000E+00
  0.00000000E+00  0.00000000E+00  0.00000000E+00  0.00000000E+00  0.00000000E+00
  0.00000000E+00  0.00000000E+00  0.00000000E+00  0.00000000E+00  0.00000000E+00
  0.00000000E+00  0.00000000E+00  0.00000000E+00  0.00000000E+00  0.00000000E+00
  0.00000000E+00
Nuclear GFac                               R   N=          21
  0.00000000E+00  0.00000000E+00  0.00000000E+00  0.00000000E+00  0.00000000E+00
  0.00000000E+00  0.00000000E+00  2.79284600E+00  2.79284600E+00  2.79284600E+00
  2.79284600E+00  2.79284600E+00  2.79284600E+00  2.79284600E+00  2.79284600E+00
  2.79284600E+00  2.79284600E+00  2.79284600E+00  2.79284600E+00  2.79284600E+00
  2.79284600E+00
MicOpt                                     I   N=          21
          -1          -1          -1          -1          -1          -1
          -1          -1          -1          -1          -1          -1
          -1          -1          -1          -1          -1          -1
          -1          -1          -1
Number of contracted shells                I               56
Number of primitive shells                 I              133
Pure/Cartesian d shells                    I                1
Pure/Cartesian f shells                    I                0
Highest angular momentum                   I                2
Largest degree of contraction              I                6
Shell types                                I   N=          56
           0          -1          -1           2           0          -1
          -1           2           0          -1          -1           2
           0          -1          -1           2           0          -1
          -1           2           0          -1          -1           2
           0          -1          -1           2           0           0
           0           0           0           0           0           0
           0           0           0           0           0           0
           0           0           0           0           0           0
           0           0           0           0           0           0
           0           0
Number of primitives per shell             I   N=          56
           6           3           1           1           6           3
           1           1           6           3           1           1
           6           3           1           1           6           3
           1           1           6           3           1           1
           6           3           1           1           3           1
           3           1           3           1           3           1
           3           1           3           1           3           1
           3           1           3           1           3           1
           3           1           3           1           3           1
           3           1
Shell to atom map                          I   N=          56
           1           1           1           1           2           2
           2           2           3           3           3           3
           4           4           4           4           5           5
           5           5           6           6           6           6
           7           7           7           7           8           8
           9           9          10          10          11          11
          12          12          13          13          14          14
          15          15          16          16          17          17
          18          18          19          19          20          20
          21          21
Primitive exponents                        R   N=         133
  5.48467166E+03  8.25234946E+02  1.88046958E+02  5.29645000E+01  1.68975704E+01
  5.79963534E+00  1.55396162E+01  3.59993359E+00  1.01376175E+00  2.70005823E-01
  8.00000000E-01  3.04752488E+03  4.57369518E+02  1.03948685E+02  2.92101553E+01
  9.28666296E+00  3.16392696E+00  7.86827235E+00  1.88128854E+00  5.44249258E-01
  1.68714478E-01  8.00000000E-01  3.04752488E+03  4.57369518E+02  1.03948685E+02
  2.92101553E+01  9.28666296E+00  3.16392696E+00  7.86827235E+00  1.88128854E+00
  5.44249258E-01  1.68714478E-01  8.00000000E-01  3.04752488E+03  4.57369518E+02
  1.03948685E+02  2.92101553E+01  9.28666296E+00  3.16392696E+00  7.86827235E+00
  1.88128854E+00  5.44249258E-01  1.68714478E-01  8.00000000E-01  3.04752488E+03
  4.57369518E+02  1.03948685E+02  2.92101553E+01  9.28666296E+00  3.16392696E+00
  7.86827235E+00  1.88128854E+00  5.44249258E-01  1.68714478E-01  8.00000000E-01
  3.04752488E+03  4.57369518E+02  1.03948685E+02  2.92101553E+01  9.28666296E+00
  3.16392696E+00  7.86827235E+00  1.88128854E+00  5.44249258E-01  1.68714478E-01
  8.00000000E-01  3.04752488E+03  4.57369518E+02  1.03948685E+02  2.92101553E+01
  9.28666296E+00  3.16392696E+00  7.86827235E+00  1.88128854E+00  5.44249258E-01
  1.68714478E-01  8.00000000E-01  1.87311370E+01  2.82539436E+00  6.40121692E-01
  1.61277759E-01  1.87311370E+01  2.82539436E+00  6.40121692E-01  1.61277759E-01
  1.87311370E+01  2.82539436E+00  6.40121692E-01  1.61277759E-01  1.87311370E+01
  2.82539436E+00  6.40121692E-01  1.61277759E-01  1.87311370E+01  2.82539436E+00
  6.40121692E-01  1.61277759E-01  1.87311370E+01  2.82539436E+00  6.40121692E-01
  1.61277759E-01  1.87311370E+01  2.82539436E+00  6.40121692E-01  1.61277759E-01
  1.87311370E+01  2.82539436E+00  6.40121692E-01  1.61277759E-01  1.87311370E+01
  2.82539436E+00  6.40121692E-01  1.61277759E-01  1.87311370E+01  2.82539436E+00
  6.40121692E-01  1.61277759E-01  1.87311370E+01  2.82539436E+00  6.40121692E-01
  1.61277759E-01  1.87311370E+01  2.82539436E+00  6.40121692E-01  1.61277759E-01
  1.87311370E+01  2.82539436E+00  6.40121692E-01  1.61277759E-01  1.87311370E+01
  2.82539436E+00  6.40121692E-01  1.61277759E-01
Contraction coefficients                   R   N=         133
  1.83107443E-03  1.39501722E-02  6.84450781E-02  2.32714336E-01  4.70192898E-01
  3.58520853E-01 -1.10777550E-01 -1.48026263E-01  1.13076702E+00  1.00000000E+00
  1.00000000E+00  1.83473713E-03  1.40373228E-02  6.88426223E-02  2.32184443E-01
  4.67941348E-01  3.62311985E-01 -1.19332420E-01 -1.60854152E-01  1.14345644E+00
  1.00000000E+00  1.00000000E+00  1.83473713E-03  1.40373228E-02  6.88426223E-02
  2.32184443E-01  4.67941348E-01  3.62311985E-01 -1.19332420E-01 -1.60854152E-01
  1.14345644E+00  1.00000000E+00  1.00000000E+00  1.83473713E-03  1.40373228E-02
  6.88426223E-02  2.32184443E-01  4.67941348E-01  3.62311985E-01 -1.19332420E-01
 -1.60854152E-01  1.14345644E+00  1.00000000E+00  1.00000000E+00  1.83473713E-03
  1.40373228E-02  6.88426223E-02  2.32184443E-01  4.67941348E-01  3.62311985E-01
 -1.19332420E-01 -1.60854152E-01  1.14345644E+00  1.00000000E+00  1.00000000E+00
  1.83473713E-03  1.40373228E-02  6.88426223E-02  2.32184443E-01  4.67941348E-01
  3.62311985E-01 -1.19332420E-01 -1.60854152E-01  1.14345644E+00  1.00000000E+00
  1.00000000E+00  1.83473713E-03  1.40373228E-02  6.88426223E-02  2.32184443E-01
  4.67941348E-01  3.62311985E-01 -1.19332420E-01 -1.60854152E-01  1.14345644E+00
  1.00000000E+00  1.00000000E+00  3.34946043E-02  2.34726953E-01  8.13757326E-01
  1.00000000E+00  3.34946043E-02  2.34726953E-01  8.13757326E-01  1.00000000E+00
  3.34946043E-02  2.34726953E-01  8.13757326E-01  1.00000000E+00  3.34946043E-02
  2.34726953E-01  8.13757326E-01  1.00000000E+00  3.34946043E-02  2.34726953E-01
  8.13757326E-01  1.00000000E+00  3.34946043E-02  2.34726953E-01  8.13757326E-01
  1.00000000E+00  3.34946043E-02  2.34726953E-01  8.13757326E-01  1.00000000E+00
  3.34946043E-02  2.34726953E-01  8.13757326E-01  1.00000000E+00  3.34946043E-02
  2.34726953E-01  8.13757326E-01  1.00000000E+00  3.34946043E-02  2.34726953E-01
  8.13757326E-01  1.00000000E+00  3.34946043E-02  2.34726953E-01  8.13757326E-01
  1.00000000E+00  3.34946043E-02  2.34726953E-01  8.13757326E-01  1.00000000E+00
  3.34946043E-02  2.34726953E-01  8.13757326E-01  1.00000000E+00  3.34946043E-02
  2.34726953E-01  8.13757326E-01  1.00000000E+00
P(S=P) Contraction coefficients            R   N=         133
  0.00000000E+00  0.00000000E+00  0.00000000E+00  0.00000000E+00  0.00000000E+00
  0.00000000E+00  7.08742682E-02  3.39752839E-01  7.27158577E-01  1.00000000E+00
  0.00000000E+00  0.00000000E+00  0.00000000E+00  0.00000000E+00  0.00000000E+00
  0.00000000E+00  0.00000000E+00  6.89990666E-02  3.16423961E-01  7.44308291E-01
  1.00000000E+00  0.00000000E+00  0.00000000E+00  0.00000000E+00  0.00000000E+00
  0.00000000E+00  0.00000000E+00  0.00000000E+00  6.89990666E-02  3.16423961E-01
  7.44308291E-01  1.00000000E+00  0.00000000E+00  0.00000000E+00  0.00000000E+00
  0.00000000E+00  0.00000000E+00  0.00000000E+00  0.00000000E+00  6.89990666E-02
  3.16423961E-01  7.44308291E-01  1.00000000E+00  0.00000000E+00  0.00000000E+00
  0.00000000E+00  0.00000000E+00  0.00000000E+00  0.00000000E+00  0.00000000E+00
  6.89990666E-02  3.16423961E-01  7.44308291E-01  1.00000000E+00  0.00000000E+00
  0.00000000E+00  0.00000000E+00  0.00000000E+00  0.00000000E+00  0.00000000E+00
  0.00000000E+00  6.89990666E-02  3.16423961E-01  7.44308291E-01  1.00000000E+00
  0.00000000E+00  0.00000000E+00  0.00000000E+00  0.00000000E+00  0.00000000E+00
  0.00000000E+00  0.00000000E+00  6.89990666E-02  3.16423961E-01  7.44308291E-01
  1.00000000E+00  0.00000000E+00  0.00000000E+00  0.00000000E+00  0.00000000E+00
  0.00000000E+00  0.00000000E+00  0.00000000E+00  0.00000000E+00  0.00000000E+00
  0.00000000E+00  0.00000000E+00  0.00000000E+00  0.00000000E+00  0.00000000E+00
  0.00000000E+00  0.00000000E+00  0.00000000E+00  0.00000000E+00  0.00000000E+00
  0.00000000E+00  0.00000000E+00  0.00000000E+00  0.00000000E+00  0.00000000E+00
  0.00000000E+00  0.00000000E+00  0.00000000E+00  0.00000000E+00  0.00000000E+00
  0.00000000E+00  0.00000000E+00  0.00000000E+00  0.00000000E+00  0.00000000E+00
  0.00000000E+00  0.00000000E+00  0.00000000E+00  0.00000000E+00  0.00000000E+00
  0.00000000E+00  0.00000000E+00  0.00000000E+00  0.00000000E+00  0.00000000E+00
  0.00000000E+00  0.00000000E+00  0.00000000E+00  0.00000000E+00  0.00000000E+00
  0.00000000E+00  0.00000000E+00  0.00000000E+00  0.00000000E+00  0.00000000E+00
  0.00000000E+00  0.00000000E+00  0.00000000E+00
Coordinates of each shell                  R   N=         168
  2.63434384E-06 -4.98627664E-05 -1.01354953E+00  2.63434384E-06 -4.98627664E-05
 -1.01354953E+00  2.63434384E-06 -4.98627664E-05 -1.01354953E+00  2.63434384E-06
 -4.98627664E-05 -1.01354953E+00  2.26319914E+00 -2.52385194E-01  4.54780678E-01
  2.26319914E+00 -2.52385194E-01  4.54780678E-01  2.26319914E+00 -2.52385194E-01
  4.54780678E-01  2.26319914E+00 -2.52385194E-01  4.54780678E-01 -2.26319718E+00
  2.52369586E-01  4.54769932E-01 -2.26319718E+00  2.52369586E-01  4.54769932E-01
 -2.26319718E+00  2.52369586E-01  4.54769932E-01 -2.26319718E+00  2.52369586E-01
  4.54769932E-01  4.09786502E+00 -1.76306485E+00 -1.15045270E+00  4.09786502E+00
 -1.76306485E+00 -1.15045270E+00  4.09786502E+00 -1.76306485E+00 -1.15045270E+00
  4.09786502E+00 -1.76306485E+00 -1.15045270E+00  3.28734806E+00  2.34860461E+00
  1.13733989E+00  3.28734806E+00  2.34860461E+00  1.13733989E+00  3.28734806E+00
  2.34860461E+00  1.13733989E+00  3.28734806E+00  2.34860461E+00  1.13733989E+00
 -4.09781220E+00  1.76310707E+00 -1.15046711E+00 -4.09781220E+00  1.76310707E+00
 -1.15046711E+00 -4.09781220E+00  1.76310707E+00 -1.15046711E+00 -4.09781220E+00
  1.76310707E+00 -1.15046711E+00 -3.28740801E+00 -2.34859515E+00  1.13732420E+00
 -3.28740801E+00 -2.34859515E+00  1.13732420E+00 -3.28740801E+00 -2.34859515E+00
  1.13732420E+00 -3.28740801E+00 -2.34859515E+00  1.13732420E+00  1.84633632E+00
 -1.31215631E+00  2.19517055E+00  1.84633632E+00 -1.31215631E+00  2.19517055E+00
 -1.84630461E+00  1.31212165E+00  2.19516184E+00 -1.84630461E+00  1.31212165E+00
  2.19516184E+00  5.90219655E+00 -2.01567673E+00 -1.72564494E-01  5.90219655E+00
 -2.01567673E+00 -1.72564494E-01  3.30390178E+00 -3.61813082E+00 -1.58678999E+00
  3.30390178E+00 -3.61813082E+00 -1.58678999E+00  4.44081549E+00 -7.65995444E-01
 -2.92777294E+00  4.44081549E+00 -7.65995444E-01 -2.92777294E+00  5.01842898E+00
  2.19336437E+00  2.25982229E+00  5.01842898E+00  2.19336437E+00  2.25982229E+00
  1.90680570E+00  3.42926257E+00  2.23167937E+00  1.90680570E+00  3.42926257E+00
  2.23167937E+00  3.70671983E+00  3.39401137E+00 -5.95176860E-01  3.70671983E+00
  3.39401137E+00 -5.95176860E-01 -5.90214402E+00  2.01576293E+00 -1.72590284E-01
 -5.90214402E+00  2.01576293E+00 -1.72590284E-01 -3.30379715E+00  3.61815427E+00
 -1.58679059E+00 -3.30379715E+00  3.61815427E+00 -1.58679059E+00 -4.44077916E+00
  7.66056914E-01 -2.92779511E+00 -4.44077916E+00  7.66056914E-01 -2.92779511E+00
 -5.01848623E+00 -2.19332102E+00  2.25980605E+00 -5.01848623E+00 -2.19332102E+00
  2.25980605E+00 -1.90688395E+00 -3.42928001E+00  2.23166107E+00 -1.90688395E+00
 -3.42928001E+00  2.23166107E+00 -3.70679955E+00 -3.39399125E+00 -5.95193954E-01
 -3.70679955E+00 -3.39399125E+00 -5.95193954E-01
Constraint Structure                       R   N=          63
  2.63434384E-06 -4.98627664E-05 -1.01354953E+00  2.26319914E+00 -2.52385194E-01
  4.54780678E-01 -2.26319718E+00  2.52369586E-01  4.54769932E-01  4.09786502E+00
 -1.76306485E+00 -1.15045270E+00  3.28734806E+00  2.34860461E+00  1.13733989E+00
 -4.09781220E+00  1.76310707E+00 -1.15046711E+00 -3.28740801E+00 -2.34859515E+00
  1.13732420E+00  1.84633632E+00 -1.31215631E+00  2.19517055E+00 -1.84630461E+00
  1.31212165E+00  2.19516184E+00  5.90219655E+00 -2.01567673E+00 -1.72564494E-01
  3.30390178E+00 -3.61813082E+00 -1.58678999E+00  4.44081549E+00 -7.65995444E-01
 -2.92777294E+00  5.01842898E+00  2.19336437E+00  2.25982229E+00  1.90680570E+00
  3.42926257E+00  2.23167937E+00  3.70671983E+00  3.39401137E+00 -5.95176860E-01
 -5.90214402E+00  2.01576293E+00 -1.72590284E-01 -3.30379715E+00  3.61815427E+00
 -1.58679059E+00 -4.44077916E+00  7.66056914E-01 -2.92779511E+00 -5.01848623E+00
 -2.19332102E+00  2.25980605E+00 -1.90688395E+00 -3.42928001E+00  2.23166107E+00
 -3.70679955E+00 -3.39399125E+00 -5.95193954E-01
Num ILSW                                   I              100
ILSW                                       I   N=         100
           0           1           0           1           2           0
           0           0           0           0           0          -1
           0           0           0           0           0           0
           0           0           0           0           1           0
           1           0           0           0           0           0
           0           0      100000           0          -1           0
           0           0           0           0           0           0
           0           0           0           1           1           0
           0           0           1           0           0           0
           0           0           4          40           0           0
           0           0           0           0           0           0
           0           0           0           0           0           0
           0           0           0           0           0           0
           0           0           0           0           0           0
           0           0           0           0           0           0
           0           0           0           0           0           0
           0           0           0           0
Num RLSW                                   I               40
RLSW                                       R   N=          40
  1.00000000E+00  1.00000000E+00  1.00000000E+00  1.00000000E+00  1.00000000E+00
  0.00000000E+00  0.00000000E+00  1.00000000E+00  0.00000000E+00  0.00000000E+00
  0.00000000E+00  0.00000000E+00  1.00000000E+00  0.00000000E+00  0.00000000E+00
  0.00000000E+00  0.00000000E+00  1.00000000E+00  0.00000000E+00  0.00000000E+00
  0.00000000E+00  0.00000000E+00  1.00000000E+00  0.00000000E+00  0.00000000E+00
  0.00000000E+00  0.00000000E+00  1.00000000E+00  0.00000000E+00  0.00000000E+00
  0.00000000E+00  0.00000000E+00  0.00000000E+00  0.00000000E+00  0.00000000E+00
  0.00000000E+00  0.00000000E+00  0.00000000E+00  1.00000000E+00  1.00000000E+00
MxBond                                     I                4
NBond                                      I   N=          21
           2           4           4           4           4           4
           4           1           1           1           1           1
           1           1           1           1           1           1
           1           1           1
IBond                                      I   N=          84
           2           3           0           0           1           4
           5           8           1           6           7           9
           2          10          11          12           2          13
          14          15           3          16          17          18
           3          19          20          21           2           0
           0           0           3           0           0           0
           4           0           0           0           4           0
           0           0           4           0           0           0
           5           0           0           0           5           0
           0           0           5           0           0           0
           6           0           0           0           6           0
           0           0           6           0           0           0
           7           0           0           0           7           0
           0           0           7           0           0           0
RBond                                      R   N=          84
  1.00000000E+00  1.00000000E+00  0.00000000E+00  0.00000000E+00  1.00000000E+00
  1.00000000E+00  1.00000000E+00  1.00000000E+00  1.00000000E+00  1.00000000E+00
  1.00000000E+00  1.00000000E+00  1.00000000E+00  1.00000000E+00  1.00000000E+00
  1.00000000E+00  1.00000000E+00  1.00000000E+00  1.00000000E+00  1.00000000E+00
  1.00000000E+00  1.00000000E+00  1.00000000E+00  1.00000000E+00  1.00000000E+00
  1.00000000E+00  1.00000000E+00  1.00000000E+00  1.00000000E+00  0.00000000E+00
  0.00000000E+00  0.00000000E+00  1.00000000E+00  0.00000000E+00  0.00000000E+00
  0.00000000E+00  1.00000000E+00  0.00000000E+00  0.00000000E+00  0.00000000E+00
  1.00000000E+00  0.00000000E+00  0.00000000E+00  0.00000000E+00  1.00000000E+00
  0.00000000E+00  0.00000000E+00  0.00000000E+00  1.00000000E+00  0.00000000E+00
  0.00000000E+00  0.00000000E+00  1.00000000E+00  0.00000000E+00  0.00000000E+00
  0.00000000E+00  1.00000000E+00  0.00000000E+00  0.00000000E+00  0.00000000E+00
  1.00000000E+00  0.00000000E+00  0.00000000E+00  0.00000000E+00  1.00000000E+00
  0.00000000E+00  0.00000000E+00  0.00000000E+00  1.00000000E+00  0.00000000E+00
  0.00000000E+00  0.00000000E+00  1.00000000E+00  0.00000000E+00  0.00000000E+00
  0.00000000E+00  1.00000000E+00  0.00000000E+00  0.00000000E+00  0.00000000E+00
  1.00000000E+00  0.00000000E+00  0.00000000E+00  0.00000000E+00
Virial Ratio                               R      2.001551022308000E+00
SCF Energy                                 R     -3.102166795195771E+02
MP2 Energy                                 R     -3.111874918712604E+02
Total Energy                               R     -3.111874918712604E+02
Post-SCF wavefunction norm                 R      1.619394077194170E+00
RMS Force                                  R      1.090268815093341E-06
RMS Density                                R      1.071952360438392E-09
External E-field                           R   N=          35
  0.00000000E+00  0.00000000E+00  0.00000000E+00  0.00000000E+00  0.00000000E+00
  0.00000000E+00  0.00000000E+00  0.00000000E+00  0.00000000E+00  0.00000000E+00
  0.00000000E+00  0.00000000E+00  0.00000000E+00  0.00000000E+00  0.00000000E+00
  0.00000000E+00  0.00000000E+00  0.00000000E+00  0.00000000E+00  0.00000000E+00
  0.00000000E+00  0.00000000E+00  0.00000000E+00  0.00000000E+00  0.00000000E+00
  0.00000000E+00  0.00000000E+00  0.00000000E+00  0.00000000E+00  0.00000000E+00
  0.00000000E+00  0.00000000E+00  0.00000000E+00  0.00000000E+00  0.00000000E+00
IOpCl                                      I                0
IROHF                                      I                0
Alpha Orbital Energies                     R   N=         133
 -2.05463569E+01 -1.12754278E+01 -1.12754086E+01 -1.12116082E+01 -1.12116077E+01
 -1.12089972E+01 -1.12089965E+01 -1.35739175E+00 -1.06912453E+00 -1.01238896E+00
 -9.35629645E-01 -9.31415420E-01 -8.06180231E-01 -7.79437057E-01 -6.75484038E-01
 -6.31358536E-01 -6.19271808E-01 -5.79744845E-01 -5.75521167E-01 -5.60015489E-01
 -5.36444282E-01 -5.36000086E-01 -5.15867063E-01 -5.09688764E-01 -5.04847970E-01
 -4.83012467E-01 -4.69855031E-01 -4.48273994E-01 -4.02747509E-01  2.20206404E-01
  2.55631252E-01  2.71596089E-01  2.76684489E-01  2.85897484E-01  3.00922290E-01
  3.11019702E-01  3.11517701E-01  3.33536901E-01  3.40482857E-01  3.48615515E-01
  3.58943235E-01  3.69207753E-01  3.72105829E-01  3.89456050E-01  3.98781903E-01
  4.22972455E-01  4.33323131E-01  4.62661197E-01  4.74701665E-01  6.95546015E-01
  7.04271675E-01  7.33242340E-01  7.48175372E-01  7.75327041E-01  7.83410814E-01
  8.03448401E-01  8.20494444E-01  8.70208688E-01  8.85646640E-01  9.22371478E-01
  9.47902703E-01  9.49291630E-01  9.84634209E-01  9.90242764E-01  1.01249535E+00
  1.02379993E+00  1.07642265E+00  1.11057287E+00  1.14289162E+00  1.15895244E+00
  1.16523740E+00  1.17039017E+00  1.18608873E+00  1.18794717E+00  1.19707076E+00
  1.19773164E+00  1.21202912E+00  1.22764948E+00  1.24070681E+00  1.24079564E+00
  1.26790466E+00  1.28519407E+00  1.29545660E+00  1.40240725E+00  1.44631954E+00
  1.58225222E+00  1.60436573E+00  1.61745295E+00  1.68875070E+00  1.69121132E+00
  1.83841484E+00  1.86071985E+00  1.94766386E+00  1.97614629E+00  2.02138962E+00
  2.07046237E+00  2.11290183E+00  2.11493708E+00  2.14045880E+00  2.20380755E+00
  2.26445126E+00  2.27615729E+00  2.31191409E+00  2.33548566E+00  2.34633693E+00
  2.39674403E+00  2.40655033E+00  2.46367197E+00  2.49946020E+00  2.54235169E+00
  2.55434687E+00  2.57733547E+00  2.58855006E+00  2.60256955E+00  2.60375647E+00
  2.66173124E+00  2.77109340E+00  2.82087970E+00  2.85232334E+00  2.91135630E+00
  2.91951120E+00  2.97448325E+00  3.07580450E+00  3.12346293E+00  3.22603891E+00
  3.37817653E+00  4.38147205E+00  4.61210406E+00  4.63554306E+00  4.72710783E+00
  4.73207731E+00  4.95308682E+00  4.99025315E+00
Alpha MO coefficients                      R   N=       17689
  9.94670147E-01  2.12609063E-02  1.97002897E-09  3.67282307E-08  1.21490137E-03
  3.39456098E-03  3.97222180E-09 -2.74178869E-08 -8.39460167E-04 -4.22423061E-03
 -3.80215336E-03 -4.07079200E-03  4.95435240E-05 -4.61811088E-10 -9.55633890E-09
 -2.82491880E-05  1.33536457E-04 -3.11308147E-04  4.82173459E-05 -2.14300379E-04
  5.85116564E-04 -9.38562694E-05 -8.98004200E-05  3.31192837E-05  8.03254233E-05
 -4.09834854E-05 -6.76682783E-06 -2.57112081E-05  7.73971718E-05  2.21747565E-06
 -2.82494678E-05  1.33530635E-04  3.11306295E-04 -4.82294030E-05 -2.14300021E-04
  5.85117830E-04  9.38819217E-05  8.98109916E-05  3.31315758E-05  8.03292888E-05
 -4.09821292E-05 -6.76596682E-06 -2.57155195E-05 -7.73999667E-05 -2.21424070E-06
  1.10343077E-05  1.00545392E-04 -8.49768208E-06 -5.58430389E-06 -2.01840788E-05
 -2.43799070E-04  3.36937750E-04 -6.66072637E-05  4.41535122E-05 -5.08130959E-05
 -9.89137413E-06  7.87572804E-06  2.80786521E-05  2.06369859E-05  5.04564497E-06
  1.73187215E-06  4.72423601E-05  1.04099108E-05  1.80356244E-05  1.03418896E-05
 -7.87229961E-05  1.23144060E-04  4.36625308E-05  1.60795117E-05 -3.27513740E-05
 -1.87669924E-05 -2.07025529E-05 -2.78621917E-05 -1.33237594E-05 -9.41256376E-06
  1.10338791E-05  1.00542320E-04  8.49724378E-06  5.58424480E-06 -2.01828576E-05
 -2.43785280E-04 -3.36926765E-04  6.66044520E-05  4.41484534E-05 -5.08111505E-05
 -9.89193954E-06  7.87491518E-06  2.80793253E-05 -2.06371765E-05 -5.04559674E-06
  1.73180472E-06  4.72424904E-05 -1.04097054E-05 -1.80348347E-05  1.03407354E-05