055_Acetonitrile Gaussian SP Calculation on g2-node38.bme.utexas.edu    
Freq      RMP2-FC                                                     6-31G(d)            
Number of atoms                            I                6
Info1-9                                    I   N=           9
          17          16        1002           0           0         100
           6           2           1
Charge                                     I                0
Multiplicity                               I                1
Number of electrons                        I               22
Number of alpha electrons                  I               11
Number of beta electrons                   I               11
Number of basis functions                  I               51
Number of independent functions            I               51
Number of point charges in /Mol/           I                0
Number of translation vectors              I                0
Atomic numbers                             I   N=           6
           7           6           6           1           1           1
Nuclear charges                            R   N=           6
  7.00000000E+00  6.00000000E+00  6.00000000E+00  1.00000000E+00  1.00000000E+00
  1.00000000E+00
Current cartesian coordinates              R   N=          18
 -2.74750954E+00 -7.69700990E-07 -1.09607113E-07  2.24633814E+00 -4.35258279E-07
 -6.91546444E-07 -5.18285402E-01  1.61318530E-06  4.65919881E-07  2.95475004E+00
  1.71405356E+00 -9.03961601E-01  2.95474937E+00 -1.63988252E+00 -1.03243145E+00
  2.95475092E+00 -7.41727144E-02  1.93639517E+00
Force Field                                I                0
Int Atom Types                             I   N=           6
           0           0           0           0           0           0
MM charges                                 R   N=           6
  0.00000000E+00  0.00000000E+00  0.00000000E+00  0.00000000E+00  0.00000000E+00
  0.00000000E+00
Integer atomic weights                     I   N=           6
          14          12          12           1           1           1
Real atomic weights                        R   N=           6
  1.40030740E+01  1.20000000E+01  1.20000000E+01  1.00782504E+00  1.00782504E+00
  1.00782504E+00
Atom fragment info                         I   N=           6
           0           0           0           0           0           0
Atom residue num                           I   N=           6
           0           0           0           0           0           0
Nuclear spins                              I   N=           6
           2           0           0           1           1           1
Nuclear ZEff                               R   N=           6
 -4.55000000E+00 -3.60000000E+00 -3.60000000E+00 -1.00000000E+00 -1.00000000E+00
 -1.00000000E+00
Nuclear QMom                               R   N=           6
  2.04400000E+00  0.00000000E+00  0.00000000E+00  0.00000000E+00  0.00000000E+00
  0.00000000E+00
Nuclear GFac                               R   N=           6
  4.03761000E-01  0.00000000E+00  0.00000000E+00  2.79284600E+00  2.79284600E+00
  2.79284600E+00
MicOpt                                     I   N=           6
          -1          -1          -1          -1          -1          -1
Number of contracted shells                I               18
Number of primitive shells                 I               45
Pure/Cartesian d shells                    I                1
Pure/Cartesian f shells                    I                0
Highest angular momentum                   I                2
Largest degree of contraction              I                6
Shell types                                I   N=          18
           0          -1          -1           2           0          -1
          -1           2           0          -1          -1           2
           0           0           0           0           0           0
Number of primitives per shell             I   N=          18
           6           3           1           1           6           3
           1           1           6           3           1           1
           3           1           3           1           3           1
Shell to atom map                          I   N=          18
           1           1           1           1           2           2
           2           2           3           3           3           3
           4           4           5           5           6           6
Primitive exponents                        R   N=          45
  4.17351146E+03  6.27457911E+02  1.42902093E+02  4.02343293E+01  1.28202129E+01
  4.39043701E+00  1.16263619E+01  2.71627981E+00  7.72218397E-01  2.12031498E-01
  8.00000000E-01  3.04752488E+03  4.57369518E+02  1.03948685E+02  2.92101553E+01
  9.28666296E+00  3.16392696E+00  7.86827235E+00  1.88128854E+00  5.44249258E-01
  1.68714478E-01  8.00000000E-01  3.04752488E+03  4.57369518E+02  1.03948685E+02
  2.92101553E+01  9.28666296E+00  3.16392696E+00  7.86827235E+00  1.88128854E+00
  5.44249258E-01  1.68714478E-01  8.00000000E-01  1.87311370E+01  2.82539436E+00
  6.40121692E-01  1.61277759E-01  1.87311370E+01  2.82539436E+00  6.40121692E-01
  1.61277759E-01  1.87311370E+01  2.82539436E+00  6.40121692E-01  1.61277759E-01
Contraction coefficients                   R   N=          45
  1.83477216E-03  1.39946270E-02  6.85865518E-02  2.32240873E-01  4.69069948E-01
  3.60455199E-01 -1.14961182E-01 -1.69117479E-01  1.14585195E+00  1.00000000E+00
  1.00000000E+00  1.83473713E-03  1.40373228E-02  6.88426223E-02  2.32184443E-01
  4.67941348E-01  3.62311985E-01 -1.19332420E-01 -1.60854152E-01  1.14345644E+00
  1.00000000E+00  1.00000000E+00  1.83473713E-03  1.40373228E-02  6.88426223E-02
  2.32184443E-01  4.67941348E-01  3.62311985E-01 -1.19332420E-01 -1.60854152E-01
  1.14345644E+00  1.00000000E+00  1.00000000E+00  3.34946043E-02  2.34726953E-01
  8.13757326E-01  1.00000000E+00  3.34946043E-02  2.34726953E-01  8.13757326E-01
  1.00000000E+00  3.34946043E-02  2.34726953E-01  8.13757326E-01  1.00000000E+00
P(S=P) Contraction coefficients            R   N=          45
  0.00000000E+00  0.00000000E+00  0.00000000E+00  0.00000000E+00  0.00000000E+00
  0.00000000E+00  6.75797439E-02  3.23907296E-01  7.40895140E-01  1.00000000E+00
  0.00000000E+00  0.00000000E+00  0.00000000E+00  0.00000000E+00  0.00000000E+00
  0.00000000E+00  0.00000000E+00  6.89990666E-02  3.16423961E-01  7.44308291E-01
  1.00000000E+00  0.00000000E+00  0.00000000E+00  0.00000000E+00  0.00000000E+00
  0.00000000E+00  0.00000000E+00  0.00000000E+00  6.89990666E-02  3.16423961E-01
  7.44308291E-01  1.00000000E+00  0.00000000E+00  0.00000000E+00  0.00000000E+00
  0.00000000E+00  0.00000000E+00  0.00000000E+00  0.00000000E+00  0.00000000E+00
  0.00000000E+00  0.00000000E+00  0.00000000E+00  0.00000000E+00  0.00000000E+00
Coordinates of each shell                  R   N=          54
 -2.74750954E+00 -7.69700990E-07 -1.09607113E-07 -2.74750954E+00 -7.69700990E-07
 -1.09607113E-07 -2.74750954E+00 -7.69700990E-07 -1.09607113E-07 -2.74750954E+00
 -7.69700990E-07 -1.09607113E-07  2.24633814E+00 -4.35258279E-07 -6.91546444E-07
  2.24633814E+00 -4.35258279E-07 -6.91546444E-07  2.24633814E+00 -4.35258279E-07
 -6.91546444E-07  2.24633814E+00 -4.35258279E-07 -6.91546444E-07 -5.18285402E-01
  1.61318530E-06  4.65919881E-07 -5.18285402E-01  1.61318530E-06  4.65919881E-07
 -5.18285402E-01  1.61318530E-06  4.65919881E-07 -5.18285402E-01  1.61318530E-06
  4.65919881E-07  2.95475004E+00  1.71405356E+00 -9.03961601E-01  2.95475004E+00
  1.71405356E+00 -9.03961601E-01  2.95474937E+00 -1.63988252E+00 -1.03243145E+00
  2.95474937E+00 -1.63988252E+00 -1.03243145E+00  2.95475092E+00 -7.41727144E-02
  1.93639517E+00  2.95475092E+00 -7.41727144E-02  1.93639517E+00
Constraint Structure                       R   N=          18
 -2.74750954E+00 -7.69700990E-07 -1.09607113E-07  2.24633814E+00 -4.35258279E-07
 -6.91546444E-07 -5.18285402E-01  1.61318530E-06  4.65919881E-07  2.95475004E+00
  1.71405356E+00 -9.03961601E-01  2.95474937E+00 -1.63988252E+00 -1.03243145E+00
  2.95475092E+00 -7.41727144E-02  1.93639517E+00
Num ILSW                                   I              100
ILSW                                       I   N=         100
           0           1           0           0           2           0
           0           0           0           0           0          -1
           0           0           0           0           0           0
           0           0           0           0           1           0
           1           0           0           0           0           0
           0           0      100000           0          -1           0
           0           0           0           0           0           0
           0           0           0           1           1           0
           0           0           1           0           0           0
           0           0           4          40           0           0
           0           0           0           0           0           0
           0           0           0           0           0           0
           0           0           0           0           0           0
           0           0           0           0           0           0
           0           0           0           0           0           0
           0           0           0           0           0           0
           0           0           0           0
Num RLSW                                   I               40
RLSW                                       R   N=          40
  1.00000000E+00  1.00000000E+00  1.00000000E+00  1.00000000E+00  1.00000000E+00
  0.00000000E+00  0.00000000E+00  1.00000000E+00  0.00000000E+00  0.00000000E+00
  0.00000000E+00  0.00000000E+00  1.00000000E+00  0.00000000E+00  0.00000000E+00
  0.00000000E+00  0.00000000E+00  1.00000000E+00  0.00000000E+00  0.00000000E+00
  0.00000000E+00  0.00000000E+00  1.00000000E+00  0.00000000E+00  0.00000000E+00
  0.00000000E+00  0.00000000E+00  1.00000000E+00  0.00000000E+00  0.00000000E+00
  0.00000000E+00  0.00000000E+00  0.00000000E+00  0.00000000E+00  0.00000000E+00
  0.00000000E+00  0.00000000E+00  0.00000000E+00  1.00000000E+00  1.00000000E+00
MxBond                                     I                4
NBond                                      I   N=           6
           1           4           2           1           1           1
IBond                                      I   N=          24
           3           0           0           0           3           4
           5           6           1           2           0           0
           2           0           0           0           2           0
           0           0           2           0           0           0
RBond                                      R   N=          24
  2.00000000E+00  0.00000000E+00  0.00000000E+00  0.00000000E+00  1.00000000E+00
  1.00000000E+00  1.00000000E+00  1.00000000E+00  2.00000000E+00  1.00000000E+00
  0.00000000E+00  0.00000000E+00  1.00000000E+00  0.00000000E+00  0.00000000E+00
  0.00000000E+00  1.00000000E+00  0.00000000E+00  0.00000000E+00  0.00000000E+00
  1.00000000E+00  0.00000000E+00  0.00000000E+00  0.00000000E+00
Virial Ratio                               R      2.003563418954828E+00
SCF Energy                                 R     -1.319222002136134E+02
MP2 Energy                                 R     -1.323382449428658E+02
Total Energy                               R     -1.323382449428658E+02
Post-SCF wavefunction norm                 R      1.518046492914510E+00
RMS Force                                  R      3.498563182001445E-07
RMS Density                                R      4.743346428748625E-10
External E-field                           R   N=          35
  0.00000000E+00  0.00000000E+00  0.00000000E+00  0.00000000E+00  0.00000000E+00
  0.00000000E+00  0.00000000E+00  0.00000000E+00  0.00000000E+00  0.00000000E+00
  0.00000000E+00  0.00000000E+00  0.00000000E+00  0.00000000E+00  0.00000000E+00
  0.00000000E+00  0.00000000E+00  0.00000000E+00  0.00000000E+00  0.00000000E+00
  0.00000000E+00  0.00000000E+00  0.00000000E+00  0.00000000E+00  0.00000000E+00
  0.00000000E+00  0.00000000E+00  0.00000000E+00  0.00000000E+00  0.00000000E+00
  0.00000000E+00  0.00000000E+00  0.00000000E+00  0.00000000E+00  0.00000000E+00
IOpCl                                      I                0
IROHF                                      I                0
Alpha Orbital Energies                     R   N=          51
 -1.55835844E+01 -1.12893217E+01 -1.12871083E+01 -1.20630186E+00 -1.03875379E+00
 -6.99372933E-01 -6.27814839E-01 -6.27814365E-01 -5.50484409E-01 -4.50734930E-01
 -4.50734872E-01  1.96016160E-01  1.96016273E-01  2.21855709E-01  3.17303060E-01
  3.17303213E-01  3.61403083E-01  4.35404747E-01  7.40252178E-01  7.40252410E-01
  7.95109692E-01  8.40993276E-01  8.40993537E-01  8.80920717E-01  1.02105387E+00
  1.08085574E+00  1.08085595E+00  1.10393671E+00  1.10393729E+00  1.15899880E+00
  1.31096917E+00  1.61076959E+00  1.67090433E+00  1.67090447E+00  1.79685049E+00
  1.79685054E+00  1.83008001E+00  2.18820746E+00  2.18820832E+00  2.26317691E+00
  2.26317779E+00  2.46153420E+00  2.53510302E+00  2.53510336E+00  3.06572675E+00
  3.07894255E+00  3.07894278E+00  3.52497974E+00  4.38681805E+00  4.51190787E+00
  4.96410668E+00
Alpha MO coefficients                      R   N=        2601
  9.95371166E-01  2.43282674E-02  2.51183304E-03  3.39724704E-09  9.29881034E-10
 -6.46410000E-03 -2.50128034E-03 -3.85332793E-09 -1.07219108E-09 -1.73301177E-03
 -3.15685017E-03 -3.15685011E-03  1.44524039E-09  3.54126369E-10 -2.91919681E-11
 -5.94635885E-07 -2.06736818E-04 -3.05093276E-04  1.70776742E-10  7.97588984E-11
  2.63546405E-03 -1.12524608E-03  3.92351321E-09  1.72504176E-09  3.77395298E-04
  1.87306640E-05  1.87306671E-05 -9.78105383E-10 -4.19330286E-10 -1.89815597E-10
  7.54474992E-05  2.61941582E-04  8.10235763E-04  9.97615953E-10  2.49692535E-10
  2.62714537E-03 -4.88114248E-03 -2.61426786E-09 -3.34285088E-10 -1.30677632E-03
  1.04771206E-04  1.04771206E-04 -1.03127410E-09 -1.52663156E-10 -1.22628041E-11
 -4.02736461E-05 -2.09330974E-05 -4.02731790E-05 -2.09312314E-05 -4.02735496E-05
 -2.09327175E-05 -6.84176380E-04  4.36681012E-04 -1.63874775E-05 -1.16580028E-10
 -2.11878297E-11 -8.89835182E-03 -3.20016339E-03 -7.82890372E-09 -2.49149908E-09
  3.86654089E-04  2.34411253E-04  2.34411244E-04 -1.22239578E-09 -4.88546090E-10
 -5.81595001E-13  1.67083062E-01  4.63684414E-03  3.27605416E-04 -6.13837276E-10
 -2.16123028E-10  6.15491702E-03 -3.77083102E-03  5.82494909E-09  2.36293780E-09
 -1.44407368E-03 -5.33648191E-04 -5.33648783E-04  6.91141655E-10  3.33314675E-10
 -1.30955555E-10  9.81398932E-01  2.67193324E-02  5.27368773E-04 -7.88668282E-10
 -3.16243504E-10 -4.45541330E-03 -1.02558326E-02 -6.50301519E-10  1.24495102E-09
 -4.21927015E-04 -2.70734057E-03 -2.70734055E-03  1.21742932E-09  1.03464449E-10
  2.05609118E-11 -2.40366275E-04  6.04434125E-04 -2.40365611E-04  6.04435178E-04
 -2.40365942E-04  6.04433969E-04  1.53025559E-04  1.22159016E-04  2.46690051E-04
  4.30835768E-10  2.19765368E-10  2.11741203E-03  5.10846858E-04  3.33904414E-09
  4.41543815E-10  1.28453235E-04 -2.35036342E-05 -2.35036496E-05  1.22726379E-09
  3.20445740E-10 -3.41696262E-12  9.81614425E-01  2.82796013E-02 -7.80614845E-04
  8.75875459E-10  1.32730219E-09 -1.77546331E-02  2.28331524E-03 -3.03311033E-09
 -6.33080903E-09 -1.49206981E-03 -1.78050769E-03 -1.78050958E-03 -4.32878352E-10
 -7.48299333E-10  2.95660387E-10 -1.67519782E-01 -4.36531125E-03 -1.67090554E-04
  6.27017215E-10  1.91659224E-10  5.45699091E-03  4.88355792E-03 -3.14211468E-09
 -1.15284642E-10 -9.68154857E-04  2.91909675E-04  2.91909913E-04  3.36531453E-10
  4.60676419E-10  1.63583169E-11  2.51505836E-04  2.44578405E-03  2.51505379E-04
  2.44578329E-03  2.51507328E-04  2.44578417E-03 -1.74637521E-01  3.48481903E-01
  1.74198182E-01  1.47476152E-07  3.35661763E-08  4.05923034E-01  8.15073273E-02
  1.00540728E-07  2.87266650E-08  1.65917590E-02 -1.38578040E-02 -1.38578039E-02
  3.42860201E-08  8.45965038E-09 -1.93146752E-10 -3.78664439E-02  7.41599984E-02
 -3.36561738E-02  1.38732467E-08  4.23043841E-09 -1.18769149E-02  2.65522650E-02
 -8.22512852E-08 -2.48919758E-08  6.44227173E-03  2.01925525E-04  2.01912589E-04
  1.41334697E-09  4.90039902E-10  2.46181812E-09 -1.53687098E-01  2.89379421E-01
 -1.76171764E-01 -2.28725590E-07 -6.36209515E-08  1.06490870E-01  1.08103875E-01
  4.14241370E-08 -4.15851491E-09  2.63686562E-02 -1.64645140E-02 -1.64645159E-02
  3.75294045E-08  6.44539955E-09  2.39765039E-11  1.88443204E-02 -6.44739031E-04
  1.88443148E-02 -6.44770428E-04  1.88442975E-02 -6.44747520E-04  6.20998888E-02
 -1.30825060E-01 -4.78643046E-02 -8.05464020E-08 -2.58375890E-08 -1.32339659E-01
 -1.41578387E-02 -3.16018360E-08 -2.51120279E-09 -8.49568957E-03  5.01488884E-03
  5.01488875E-03 -2.81114600E-08 -7.99603409E-09  1.86907258E-10 -1.84120647E-01
  3.44766641E-01 -3.35074726E-02  6.38718679E-08 -1.23827802E-08  3.55296965E-01
 -1.08353155E-02  4.48777238E-08  7.96125293E-08  6.73193474E-03  8.11781356E-03
  8.11773240E-03 -1.66584448E-08  6.34110652E-10  2.50266759E-09 -3.92918291E-02
  8.45686207E-02  2.24820817E-01  5.04629514E-09 -3.04518522E-08  5.00306766E-02
  7.88515415E-03  7.80258800E-09 -1.89382156E-08  1.74875941E-02 -2.14471437E-03
 -2.14471609E-03 -2.93966180E-08 -1.62405022E-08 -8.93066078E-10  1.15477394E-01
  2.14877716E-02  1.15477386E-01  2.14877807E-02  1.15477253E-01  2.14877388E-02
 -6.89298263E-02  1.54939079E-01 -7.34182679E-02 -4.71904421E-08 -1.47694346E-09
  1.66851520E-01 -5.19267855E-02 -7.23166512E-08 -5.57232718E-09 -1.74441876E-03
 -1.42432691E-03 -1.42432667E-03  1.01061606E-09  2.54189767E-09 -2.58795478E-10
 -4.17599722E-02  7.27928537E-02  3.75375349E-01 -6.58108703E-07 -2.85924752E-07
  1.60608529E-01  1.40740436E-01 -2.87750265E-07 -5.38136614E-08 -3.03673323E-02
  1.93634329E-02  1.93633595E-02  2.11164647E-08  2.44897741E-08  3.74396150E-08
  1.18487157E-01 -2.49459913E-01 -2.43090318E-01 -6.30176537E-08  2.26493092E-08
 -2.51224451E-01 -1.13805686E-01 -3.57166477E-08 -1.68966585E-08 -1.29845964E-02
  6.02025867E-03  6.02025769E-03  1.07439033E-08  6.10926075E-09  1.21418943E-09
  1.13510167E-01  6.57469658E-02  1.13510687E-01  6.57472369E-02  1.13510210E-01
  6.57469852E-02 -1.32957071E-07  2.94225036E-07 -4.38012943E-07  9.27941486E-02
  4.68053902E-03  3.34550221E-07 -2.71250448E-07  5.50905545E-02  2.77877560E-03
 -5.07075379E-08 -5.55277463E-06  5.58537738E-06  1.24739212E-02  6.29184720E-04
  9.98348452E-05 -1.25139723E-08 -1.42159820E-08  5.96489423E-07  4.29788636E-01
  2.16786126E-02  2.20528659E-07  2.22977103E-07  2.30898552E-01  1.16465781E-02
 -4.07113804E-08  1.57139323E-03 -1.57135121E-03  1.19729517E-02  6.03912324E-04
 -2.81100333E-02  1.15498306E-07 -2.59035381E-07 -1.85128084E-07  1.48707164E-01
  7.50079523E-03 -2.12354080E-07 -2.52978809E-07  5.51110144E-02  2.77978888E-03
  2.73584734E-08  8.30314561E-05 -8.30443802E-05  6.00203356E-03  3.02740309E-04
 -1.48567879E-03  2.16036124E-01  1.47912908E-01 -2.19078722E-01 -1.49996032E-01
  3.04295147E-03  2.08339943E-03 -2.20660860E-08  6.41558326E-08 -8.42585896E-08
 -4.68057948E-03  9.27945146E-02 -1.02836245E-07 -9.87848245E-08 -2.77878577E-03
  5.50907648E-02 -6.71589912E-09  8.64594285E-05 -8.64454106E-05 -6.29189828E-04
  1.24739576E-02  6.45724160E-06  2.42958641E-08 -1.57519552E-07  1.73016258E-07
 -2.16785769E-02  4.29788429E-01  3.67365369E-07  2.34715418E-08 -1.16465345E-02
  2.30898570E-01 -1.24243538E-09 -2.43440278E-02  2.43440465E-02 -6.03920752E-04
  1.19729180E-02 -1.81446104E-03  1.55322524E-08 -2.21122562E-08 -1.54757025E-08
 -7.50084492E-03  1.48707544E-01 -6.10324899E-08 -2.51500723E-07 -2.77983986E-03
  5.51112909E-02  6.96291016E-09 -1.28662692E-03  1.28662368E-03 -3.02745669E-04
  6.00201611E-03 -9.59120787E-05 -1.28241848E-01 -8.78032294E-02 -1.22971529E-01
 -8.41947677E-02  2.51213574E-01  1.71998154E-01  1.01418924E-01 -2.28474522E-01
  4.97729418E-01  6.85069111E-07  1.88866431E-07 -3.79614282E-01  2.91378735E-01
  4.27921227E-07  1.23007981E-07  3.78161102E-02 -8.10466958E-03 -8.10466986E-03
  8.63387056E-08  2.40526358E-08  9.65051976E-11  8.01649855E-03 -1.50883230E-02
  1.48916739E-01  8.31892419E-08 -3.45877525E-08 -7.81090630E-02  1.02459147E-01
 -2.04507126E-08 -3.85701509E-08 -7.17122564E-03  6.05139572E-03  6.05138396E-03
  1.61175039E-08  9.24186180E-09 -7.86263889E-09 -5.19143910E-02  1.14551256E-01
 -2.87738116E-01  9.50671771E-08  5.55389195E-08  4.01304813E-02  2.67597050E-02
  1.31704472E-07  2.91960412E-08 -1.09636198E-02 -3.83954240E-03 -3.83954354E-03
  7.16053909E-09  2.53547275E-09 -5.04787825E-10  3.00085258E-02  2.53343209E-02
  3.00083748E-02  2.53341448E-02  3.00084407E-02  2.53342454E-02  1.31634449E-08
 -2.75496511E-08 -8.11950354E-07  4.30961845E-01  4.11972379E-02 -2.30536926E-07
 -5.87401827E-07  2.84675339E-01  2.72131642E-02 -9.80763086E-08 -1.77888542E-07
  2.76862356E-07  3.96034978E-02  3.78584570E-03  1.56378144E-05 -3.92524320E-09
 -1.32326238E-08 -1.39958682E-07 -1.32946243E-01 -1.27088260E-02  4.04154636E-07
 -2.73954034E-07 -1.03852396E-01 -9.92766012E-03 -2.23969958E-08 -1.92810379E-04
  1.92807863E-04 -1.84272553E-02 -1.76152768E-03  1.13856599E-02 -1.05518377E-07
  2.31876285E-07  5.61137421E-08  3.56855411E-01  3.41131431E-02  4.62171221E-07
 -4.45285603E-07  2.48266476E-01  2.37327277E-02  6.46098116E-08 -1.38363413E-05
  1.37962978E-05 -3.43958977E-02 -3.28802929E-03  8.13873948E-04 -8.74633785E-02
 -8.22645939E-02  9.34245641E-02  8.78713929E-02 -5.96127827E-03 -5.60693310E-03
  1.39600109E-10 -5.97978375E-09 -1.51406462E-07 -4.11972511E-02  4.30961794E-01
  1.13335134E-08 -9.41244291E-08 -2.72131860E-02  2.84675336E-01 -1.85971530E-08
  1.35230464E-05 -1.35088024E-05 -3.78584476E-03  3.96034864E-02  3.48435588E-07
 -1.52328503E-08  6.03755543E-08 -3.31034167E-08  1.27088600E-02 -1.32946593E-01
  1.95651162E-08 -7.03171374E-08  9.92763510E-03 -1.03852615E-01 -1.26033167E-08
  9.86030213E-03 -9.86030205E-03  1.76153242E-03 -1.84272577E-02  2.22654943E-04
 -2.33422024E-08  4.81762233E-08  5.49702648E-08 -3.41131146E-02  3.56855236E-01
  9.33119843E-08 -2.06566960E-08 -2.37326947E-02  2.48266362E-01  1.18610334E-08
  7.04860198E-04 -7.04865287E-04  3.28803561E-03 -3.43959094E-02  1.58773604E-05
  5.73805294E-02  5.39699406E-02  4.70553480E-02  4.42584297E-02 -1.04435950E-01
 -9.82284715E-02 -6.27662624E-08  1.70410036E-07  7.95655297E-08  9.91150417E-02
  3.34991471E-01  4.76064015E-07  1.73105259E-07  1.53034254E-01  5.17228924E-01
  3.63338044E-08 -6.01506972E-04  6.01491286E-04 -1.64627706E-03 -5.56413186E-03
 -2.95724965E-04 -1.85104732E-07  2.85233051E-07 -5.66080452E-07 -2.61828374E-02
 -8.84938912E-02  2.85960512E-06 -8.00389297E-07 -1.66672606E-01 -5.63323814E-01
  2.51785032E-08 -1.12002265E-02  1.12002064E-02  1.17603632E-02  3.97480020E-02
 -5.50645786E-03  1.79535097E-07 -7.74888216E-08 -1.98906994E-07 -9.77165063E-02
 -3.30264641E-01 -2.54407085E-06 -2.83285183E-07 -1.47334530E-01 -4.97964944E-01
  7.70384471E-08 -3.68641231E-03  3.68639789E-03 -1.08364435E-02 -3.66252946E-02
 -1.81239029E-03 -2.53842230E-02 -1.75745427E-01 -9.70811571E-02 -6.72132181E-01
  1.22465444E-01  8.47875403E-01 -1.61268140E-07  3.26360349E-07  2.47142807E-07
  3.34991690E-01 -9.91150081E-02  2.11283077E-06  9.26683856E-07  5.17229369E-01
 -1.53034213E-01  7.21664728E-08  2.56052693E-04 -2.56136295E-04 -5.56414330E-03
  1.64628112E-03 -6.94548155E-04 -7.42512142E-07  8.51707705E-07 -4.51333546E-07
 -8.84934781E-02  2.61829787E-02  1.08755373E-05  2.26657314E-07 -5.63323823E-01
  1.66672215E-01 -1.54586908E-08  4.76865384E-03 -4.76872687E-03  3.97480280E-02
 -1.17603801E-02 -1.29328476E-02  3.20206582E-07  4.43819902E-08 -3.24840970E-07
 -3.30264941E-01  9.77164827E-02 -5.99300837E-06  1.86621086E-07 -4.97965540E-01
  1.47334591E-01  1.76247046E-07  1.56952846E-03 -1.56955125E-03 -3.66252954E-02
  1.08364416E-02 -4.25667163E-03  1.26755172E-01  8.77571882E-01 -8.53608652E-02
 -5.90991994E-01 -4.13943166E-02 -2.86593388E-01 -2.83896314E-02  2.65569467E-02
  6.33095984E-02 -1.29117501E-06  2.88802011E-07  6.70442108E-01  3.18689114E-01
 -1.65474459E-06  6.78951111E-07  5.25657282E-03 -1.24200599E-02 -1.24200543E-02
  5.90437204E-08  6.18174430E-09  4.39581980E-09 -1.46738170E-01  1.50102577E-01
  6.95168213E-02  7.55893865E-07  3.64056992E-07  2.28417607E+00  5.33544505E-01
  3.64365003E-06  1.18193288E-06 -6.81496790E-03 -8.08393908E-03 -8.08391874E-03
 -1.89610704E-07  3.32913534E-08  7.47001028E-08  2.08795948E-02  5.17280198E-02
 -2.66257530E-02  1.37854041E-06 -2.71252687E-07 -7.91864933E-01  3.94654978E-01
  2.30918691E-06 -7.51518305E-07  2.00435754E-02  8.73244448E-04  8.73265543E-04
  1.45534912E-07 -2.75985583E-08  2.92008582E-08 -1.82671030E-03 -1.15364702E+00
 -1.82566250E-03 -1.15363751E+00 -1.82605525E-03 -1.15364208E+00 -4.04241013E-08
  5.38922740E-08  3.67776796E-08  9.14365214E-02 -1.72232702E-01  1.04786887E-06
  3.48650167E-07  2.06850704E-01 -3.89630152E-01  9.75973085E-09 -1.43028893E-03
  1.43026314E-03 -2.09926357E-03  3.95426504E-03  6.46661094E-04 -2.71370428E-08
  1.65097224E-07 -1.81420281E-07  1.63541193E-01 -3.08050636E-01  4.11969127E-07
  2.36855302E-07  6.81580037E-01 -1.28384013E+00  1.06725007E-09 -5.88870414E-03
  5.88869620E-03  1.01781588E-02 -1.91718914E-02  2.66237276E-03  2.64473739E-08
  1.88109789E-08  2.07837522E-08 -9.34635428E-02  1.76051060E-01 -7.77667436E-07
  1.09269374E-06 -3.39006864E-01  6.38562960E-01  3.55777176E-08 -7.58775284E-03
  7.58773399E-03 -3.19265788E-03  6.01379440E-03  3.43056640E-03  1.33638998E-02
 -1.41143739E+00  1.19216301E-03 -1.25923559E-01 -1.45561880E-02  1.53736035E+00
 -1.55805016E-07  7.15686997E-07  5.97544739E-07  1.72232421E-01  9.14367872E-02
 -1.04123520E-06  1.84738797E-07  3.89629689E-01  2.06851049E-01  1.23804324E-07
  5.60050908E-04 -5.59956646E-04 -3.95424531E-03 -2.09929053E-03  1.65151553E-03
 -1.66531696E-08  8.85647271E-08 -1.40921703E-06  3.08050751E-01  1.63541265E-01
 -5.78954192E-07 -6.49788142E-06  1.28384287E+00  6.81578830E-01 -2.74629625E-08
  2.30573798E-03 -2.30562428E-03  1.91718719E-02  1.01781862E-02  6.79960210E-03
  4.69919780E-07 -2.09489893E-07 -6.02125623E-07 -1.76050514E-01 -9.34638860E-02
 -8.32692556E-06 -4.15132352E-06 -6.38562721E-01 -3.39007203E-01  1.66086316E-07
  2.97088322E-03 -2.97096207E-03 -6.01376977E-03 -3.19266334E-03  8.76151827E-03
  9.09278349E-03 -9.60298092E-01 -1.61198038E-02  1.70249479E+00  7.02748240E-03
 -7.42187272E-01  4.98874382E-02 -1.54563571E-01 -1.82000399E-01  9.47527778E-07
  4.19381600E-07 -3.34551555E-01 -3.97012520E-01  2.75993985E-06  1.19281735E-06
 -3.26606209E-02  5.05338104E-04  5.05336539E-04 -9.20607077E-08 -2.66164687E-08
  4.59466367E-09  6.14073928E-02 -6.79933348E-02  2.92590705E-01  9.87629037E-07
  5.87256321E-07 -9.99389690E-01  1.86452402E+00  2.78807700E-06  1.24798495E-06
  2.97450312E-02 -2.00373563E-02 -2.00372730E-02  1.63229352E-07  4.79110740E-08
 -8.55741710E-09 -1.24722769E-01  8.95625693E-02  2.33935574E-01 -1.37196484E-06
 -5.40765339E-07  2.69344086E+00  8.15319450E-01 -5.22829282E-06 -2.27910927E-06
 -1.30328780E-02  7.04862210E-03  7.04861793E-03 -1.02354085E-07 -2.71245765E-08
  2.45180392E-08 -6.30654881E-02 -3.42503755E-01 -6.30660593E-02 -3.42496734E-01
 -6.30654563E-02 -3.42502970E-01 -1.18725896E-01 -2.92546777E-03  2.09540153E-02
 -1.07218789E-07 -3.46356348E-08  5.03454279E+00  1.93220033E+00  3.19783165E-06
  9.38042167E-07  1.18922286E-02 -6.49090649E-02 -6.49090658E-02  1.31483737E-07
  3.84538209E-08 -3.05476471E-09  6.10220600E-02  2.49821142E-01 -3.16641394E-01
 -1.18874349E-07  1.35766364E-07 -4.07831802E+00  2.29414233E+00 -5.08966517E-06
 -2.02916136E-06  2.02175110E-02  1.26091266E-02  1.26091786E-02 -1.12583732E-07
 -4.45736919E-08  1.20756855E-08 -1.57105692E-02  1.83528665E-01  1.31057314E-01
  8.84141807E-08  3.28846088E-08 -1.44325302E+00  5.38283484E+00  2.34315009E-06
  6.13181319E-08  4.83529235E-02  3.62011403E-03  3.62011260E-03 -8.82551595E-08
 -3.49273238E-08 -1.68827599E-08 -2.98542292E-02  2.18924400E-01 -2.98538968E-02
  2.18920107E-01 -2.98540924E-02  2.18922449E-01 -1.93540225E-08  3.51672182E-08
 -3.27697688E-07  4.72949726E-03 -8.95653189E-02  2.59564165E-06  1.17410658E-06
 -9.19659118E-03  1.74161681E-01  1.95761537E-07  1.05614000E-03 -1.05620301E-03
  3.83715490E-03 -7.26676098E-02  7.57293918E-05  1.41236903E-07  5.85122542E-07
  9.39410195E-07  2.68342268E-02 -5.08174937E-01 -4.18785251E-06  1.47506469E-07
 -6.22847577E-02  1.17952397E+00  1.67460753E-07  7.51349589E-02 -7.51349456E-02
  1.42085896E-04 -2.69015574E-03  5.39466445E-03 -1.40770867E-07  4.95817957E-07
  3.00888426E-07  3.89341280E-02 -7.37330762E-01 -9.63241802E-07  2.99709176E-06
 -1.94458614E-02  3.68268697E-01 -2.55211579E-07  1.19784178E-02 -1.19782175E-02
 -2.42074927E-04  4.58486063E-03  8.60042720E-04  1.91794130E-01  1.69560233E-01
  1.82414581E-01  1.61268098E-01 -3.74207444E-01 -3.30827495E-01  6.66408091E-08
  8.42818827E-08  3.47332236E-07 -8.95656985E-02 -4.72943914E-03 -2.46247966E-06
 -1.58663073E-06  1.74161811E-01  9.19648105E-03  2.21660750E-07 -6.58071654E-05
  6.57139579E-05 -7.26677757E-02 -3.83721767E-03  1.21950062E-03  2.48153040E-08
 -1.08031446E-07  3.39176449E-07 -5.08173538E-01 -2.68336177E-02  1.01623019E-06
 -9.99558685E-07  1.17952473E+00  6.22837952E-02  9.87076846E-08 -4.67201813E-03
  4.67196516E-03 -2.69013992E-03 -1.42018305E-04  8.67581294E-02 -3.80380989E-09
 -4.61415414E-07  1.44718251E-07 -7.37332466E-01 -3.89348302E-02  1.42150734E-06
 -2.35199401E-06  3.68270737E-01  1.94467869E-02 -2.58083347E-07 -7.44841504E-04
  7.44813318E-04  4.58500889E-03  2.42136086E-04  1.38313811E-02 -3.21365164E-01