
    -----------------------------------------------------------------------
          Psi4: An Open-Source Ab Initio Electronic Structure Package
                               Psi4 1.3.2 release

                         Git: Rev {HEAD} ecbda83 


    R. M. Parrish, L. A. Burns, D. G. A. Smith, A. C. Simmonett,
    A. E. DePrince III, E. G. Hohenstein, U. Bozkaya, A. Yu. Sokolov,
    R. Di Remigio, R. M. Richard, J. F. Gonthier, A. M. James,
    H. R. McAlexander, A. Kumar, M. Saitow, X. Wang, B. P. Pritchard,
    P. Verma, H. F. Schaefer III, K. Patkowski, R. A. King, E. F. Valeev,
    F. A. Evangelista, J. M. Turney, T. D. Crawford, and C. D. Sherrill,
    J. Chem. Theory Comput. 13(7) pp 3185--3197 (2017).
    (doi: 10.1021/acs.jctc.7b00174)


                         Additional Contributions by
    P. Kraus, H. Kruse, M. H. Lechner, M. C. Schieber, R. A. Shaw,
    A. Alenaizan, R. Galvelis, Z. L. Glick, S. Lehtola, and J. P. Misiewicz

    -----------------------------------------------------------------------


    Psi4 started on: Tuesday, 02 February 2021 01:04PM

    Process ID: 2129418
    Host:       node57.bme.utexas.edu
    PSIDATADIR: /home/xy3866/psi4conda/share/psi4
    Memory:     500.0 MiB
    Threads:    8
    
  ==> Input File <==

--------------------------------------------------------------------------
#psi4
#
memory 32 gb

molecule  {
0 1
  O        1.5353870    -1.6551020    -0.6345320
  N        1.0046660     0.4022290     0.2352610
  C       -0.5932490     0.1372393     0.0880038
  C       -0.9676930    -1.0124890     0.5938810
  C       -1.2114290     1.1495920    -0.4744810
  C        1.4334500     1.7470840     0.6117170
  C        1.9002030    -0.5546920    -0.2186930
  C       -2.3437090    -1.2082300     0.4876030
  C       -2.5901160     0.9502090    -0.5611550
  C       -3.1615570    -0.2292440    -0.0824530
  C        3.3698180    -0.1837380    -0.1580780
  H       -0.3333780    -1.7703900     1.0389010
  H       -0.7697760     2.0586490    -0.8748040
  H        2.3549360     1.7005960     1.1924500
  H        0.6579290     2.1862960     1.2404600
  H        1.5971270     2.4005710    -0.2540720
  H       -2.7807830    -2.1295030     0.8652160
  H       -3.2150400     1.7168070    -1.0131720
  H       -4.2346400    -0.3865090    -0.1557870
  H        3.7069390    -0.0577910     0.8753960
  H        3.5849000     0.7417310    -0.6992960
  H        3.9227600    -1.0051460    -0.6125730
units angstrom
no_reorient  #important for SAPT in psi4, default
symmetry c1  #important for SAPT in psi4, default
}

set PROPERTIES_ORIGIN ["COM"]
properties('MP2/aug-cc-pvtz', properties = ['dipole'])
--------------------------------------------------------------------------

  Memory set to  29.802 GiB by Python driver.
    SCF Algorithm Type (re)set to DF.

*** tstart() called on node57.bme.utexas.edu
*** at Tue Feb  2 13:04:18 2021

   => Loading Basis Set <=

    Name: AUG-CC-PVTZ
    Role: ORBITAL
    Keyword: BASIS
    atoms 1     entry O          line   327 file /home/xy3866/psi4conda/share/psi4/basis/aug-cc-pvtz.gbs 
    atoms 2     entry N          line   281 file /home/xy3866/psi4conda/share/psi4/basis/aug-cc-pvtz.gbs 
    atoms 3-11  entry C          line   235 file /home/xy3866/psi4conda/share/psi4/basis/aug-cc-pvtz.gbs 
    atoms 12-22 entry H          line    36 file /home/xy3866/psi4conda/share/psi4/basis/aug-cc-pvtz.gbs 


         ---------------------------------------------------------
                                   SCF
               by Justin Turney, Rob Parrish, Andy Simmonett
                          and Daniel G. A. Smith
                              RHF Reference
                        8 Threads,  30517 MiB Core
         ---------------------------------------------------------

  ==> Geometry <==

    Molecular point group: c1
    Full point group: C1

    Geometry (in Angstrom), charge = 0, multiplicity = 1:

       Center              X                  Y                   Z               Mass       
    ------------   -----------------  -----------------  -----------------  -----------------
         O            1.581122751233    -1.616238033028    -0.622434730888    15.994914619570
         N            1.050401751233     0.441092966972     0.247358269112    14.003074004430
         C           -0.547513248767     0.176103266972     0.100101069112    12.000000000000
         C           -0.921957248767    -0.973625033028     0.605978269112    12.000000000000
         C           -1.165693248767     1.188455966972    -0.462383730888    12.000000000000
         C            1.479185751233     1.785947966972     0.623814269112    12.000000000000
         C            1.945938751233    -0.515828033028    -0.206595730888    12.000000000000
         C           -2.297973248767    -1.169366033028     0.499700269112    12.000000000000
         C           -2.544380248767     0.989072966972    -0.549057730888    12.000000000000
         C           -3.115821248767    -0.190380033028    -0.070355730888    12.000000000000
         C            3.415553751233    -0.144874033028    -0.145980730888    12.000000000000
         H           -0.287642248767    -1.731526033028     1.050998269112     1.007825032230
         H           -0.724040248767     2.097512966972    -0.862706730888     1.007825032230
         H            2.400671751233     1.739459966972     1.204547269112     1.007825032230
         H            0.703664751233     2.225159966972     1.252557269112     1.007825032230
         H            1.642862751233     2.439434966972    -0.241974730888     1.007825032230
         H           -2.735047248767    -2.090639033028     0.877313269112     1.007825032230
         H           -3.169304248767     1.755670966972    -1.001074730888     1.007825032230
         H           -4.188904248767    -0.347645033028    -0.143689730888     1.007825032230
         H            3.752674751233    -0.018927033028     0.887493269112     1.007825032230
         H            3.630635751233     0.780594966972    -0.687198730888     1.007825032230
         H            3.968495751233    -0.966282033028    -0.600475730888     1.007825032230

  Running in c1 symmetry.

  Rotational constants: A =      0.08079  B =      0.02487  C =      0.02062 [cm^-1]
  Rotational constants: A =   2422.14386  B =    745.50035  C =    618.29021 [MHz]
  Nuclear repulsion =  588.938247184618035

  Charge       = 0
  Multiplicity = 1
  Electrons    = 80
  Nalpha       = 40
  Nbeta        = 40

  ==> Algorithm <==

  SCF Algorithm Type is DF.
  DIIS enabled.
  MOM disabled.
  Fractional occupation disabled.
  Guess Type is SAD.
  Energy threshold   = 1.00e-10
  Density threshold  = 1.00e-10
  Integral threshold = 0.00e+00

  ==> Primary Basis <==

  Basis Set: AUG-CC-PVTZ
    Blend: AUG-CC-PVTZ
    Number of shells: 253
    Number of basis function: 759
    Number of Cartesian functions: 880
    Spherical Harmonics?: true
    Max angular momentum: 3

   => Loading Basis Set <=

    Name: (AUG-CC-PVTZ AUX)
    Role: JKFIT
    Keyword: DF_BASIS_SCF
    atoms 1     entry O          line   286 file /home/xy3866/psi4conda/share/psi4/basis/aug-cc-pvtz-jkfit.gbs 
    atoms 2     entry N          line   224 file /home/xy3866/psi4conda/share/psi4/basis/aug-cc-pvtz-jkfit.gbs 
    atoms 3-11  entry C          line   162 file /home/xy3866/psi4conda/share/psi4/basis/aug-cc-pvtz-jkfit.gbs 
    atoms 12-22 entry H          line    70 file /home/xy3866/psi4conda/share/psi4/basis/aug-cc-pvtz-jkfit.gbs 

  ==> Pre-Iterations <==

   -------------------------------------------------------
    Irrep   Nso     Nmo     Nalpha   Nbeta   Ndocc  Nsocc
   -------------------------------------------------------
     A        759     759       0       0       0       0
   -------------------------------------------------------
    Total     759     759      40      40      40       0
   -------------------------------------------------------

  ==> Integral Setup <==

  DFHelper Memory: AOs need 6.736 GiB; user supplied 22.352 GiB. Using in-core AOs.

  ==> MemDFJK: Density-Fitted J/K Matrices <==

    J tasked:                   Yes
    K tasked:                   Yes
    wK tasked:                   No
    OpenMP threads:               8
    Memory [MiB]:             22888
    Algorithm:                 Disk
    Schwarz Cutoff:           1E-12
    Mask sparsity (%):       7.2976
    Fitting Condition:        1E-10

   => Auxiliary Basis Set <=

  Basis Set: (AUG-CC-PVTZ AUX)
    Blend: AUG-CC-PVTZ-JKFIT
    Number of shells: 484
    Number of basis function: 1650
    Number of Cartesian functions: 2046
    Spherical Harmonics?: true
    Max angular momentum: 4

  Minimum eigenvalue in the overlap matrix is 5.2829830740E-07.
  Using Symmetric Orthogonalization.

  SCF Guess: Superposition of Atomic Densities via on-the-fly atomic UHF.

  ==> Iterations <==

                           Total Energy        Delta E     RMS |[F,P]|

   @DF-RHF iter SAD:  -475.99569769718522   -4.75996e+02   0.00000e+00 
   @DF-RHF iter   1:  -476.31480536656716   -3.19108e-01   1.03418e-03 DIIS
   @DF-RHF iter   2:  -476.58501235670133   -2.70207e-01   5.55949e-04 DIIS
   @DF-RHF iter   3:  -476.65445904850480   -6.94467e-02   1.30761e-04 DIIS
   @DF-RHF iter   4:  -476.65969219315411   -5.23314e-03   5.51310e-05 DIIS
   @DF-RHF iter   5:  -476.66067364205867   -9.81449e-04   9.41259e-06 DIIS
   @DF-RHF iter   6:  -476.66073077873239   -5.71367e-05   4.85627e-06 DIIS
   @DF-RHF iter   7:  -476.66074307122290   -1.22925e-05   1.75316e-06 DIIS
   @DF-RHF iter   8:  -476.66074577122157   -2.70000e-06   8.09181e-07 DIIS
   @DF-RHF iter   9:  -476.66074629593368   -5.24712e-07   2.96665e-07 DIIS
   @DF-RHF iter  10:  -476.66074636472462   -6.87909e-08   7.80236e-08 DIIS
   @DF-RHF iter  11:  -476.66074636967937   -4.95476e-09   2.64380e-08 DIIS
   @DF-RHF iter  12:  -476.66074637008649   -4.07113e-10   1.11079e-08 DIIS
   @DF-RHF iter  13:  -476.66074637015441   -6.79279e-11   2.86594e-09 DIIS
   @DF-RHF iter  14:  -476.66074637016072   -6.30962e-12   1.21547e-09 DIIS
   @DF-RHF iter  15:  -476.66074637016277   -2.04636e-12   5.21569e-10 DIIS
   @DF-RHF iter  16:  -476.66074637016385   -1.08002e-12   2.49084e-10 DIIS
   @DF-RHF iter  17:  -476.66074637015998    3.86535e-12   1.21692e-10 DIIS
   @DF-RHF iter  18:  -476.66074637016203   -2.04636e-12   4.60710e-11 DIIS
  Energy and wave function converged.


  ==> Post-Iterations <==

    Orbital Energies [Eh]
    ---------------------

    Doubly Occupied:                                                      

       1A    -20.506138     2A    -15.581158     3A    -11.343709  
       4A    -11.278587     5A    -11.266487     6A    -11.245584  
       7A    -11.242805     8A    -11.237564     9A    -11.237024  
      10A    -11.232309    11A    -11.229977    12A     -1.360960  
      13A     -1.225223    14A     -1.167186    15A     -1.038593  
      16A     -1.028749    17A     -0.991322    18A     -0.937574  
      19A     -0.848115    20A     -0.823946    21A     -0.746495  
      22A     -0.698008    23A     -0.667069    24A     -0.652648  
      25A     -0.642741    26A     -0.635362    27A     -0.621093  
      28A     -0.596495    29A     -0.577050    30A     -0.566525  
      31A     -0.553827    32A     -0.549920    33A     -0.528865  
      34A     -0.519030    35A     -0.501872    36A     -0.479899  
      37A     -0.409432    38A     -0.388432    39A     -0.346672  
      40A     -0.336426  

    Virtual:                                                              

      41A      0.024557    42A      0.029541    43A      0.034172  
      44A      0.038670    45A      0.043490    46A      0.046151  
      47A      0.055433    48A      0.061026    49A      0.063360  
      50A      0.068818    51A      0.072677    52A      0.091477  
      53A      0.092765    54A      0.100091    55A      0.103075  
      56A      0.104556    57A      0.108508    58A      0.112784  
      59A      0.116050    60A      0.122953    61A      0.123720  
      62A      0.125423    63A      0.128775    64A      0.131554  
      65A      0.136738    66A      0.141096    67A      0.142176  
      68A      0.146235    69A      0.150462    70A      0.154774  
      71A      0.156628    72A      0.159486    73A      0.162448  
      74A      0.166678    75A      0.168557    76A      0.173811  
      77A      0.179598    78A      0.188701    79A      0.189628  
      80A      0.195899    81A      0.203531    82A      0.207873  
      83A      0.216931    84A      0.222996    85A      0.228101  
      86A      0.235099    87A      0.236738    88A      0.246680  
      89A      0.250571    90A      0.256549    91A      0.263300  
      92A      0.270650    93A      0.272458    94A      0.275104  
      95A      0.281999    96A      0.287039    97A      0.290078  
      98A      0.295133    99A      0.300455   100A      0.302264  
     101A      0.306638   102A      0.309840   103A      0.313333  
     104A      0.317843   105A      0.321773   106A      0.327705  
     107A      0.328861   108A      0.332255   109A      0.333669  
     110A      0.342699   111A      0.350293   112A      0.352311  
     113A      0.358512   114A      0.360201   115A      0.362421  
     116A      0.367586   117A      0.375547   118A      0.376841  
     119A      0.386150   120A      0.389127   121A      0.390294  
     122A      0.394306   123A      0.400993   124A      0.406778  
     125A      0.408558   126A      0.412286   127A      0.420397  
     128A      0.421812   129A      0.425996   130A      0.433411  
     131A      0.437751   132A      0.438843   133A      0.449989  
     134A      0.452514   135A      0.453594   136A      0.461004  
     137A      0.463835   138A      0.464930   139A      0.471097  
     140A      0.473366   141A      0.474944   142A      0.482967  
     143A      0.488921   144A      0.490909   145A      0.494904  
     146A      0.498548   147A      0.501411   148A      0.505480  
     149A      0.509111   150A      0.512790   151A      0.517409  
     152A      0.523036   153A      0.523530   154A      0.527021  
     155A      0.531114   156A      0.535735   157A      0.540835  
     158A      0.544050   159A      0.546325   160A      0.551653  
     161A      0.554728   162A      0.558912   163A      0.563434  
     164A      0.569891   165A      0.575991   166A      0.582321  
     167A      0.589431   168A      0.593140   169A      0.596626  
     170A      0.605076   171A      0.616953   172A      0.618777  
     173A      0.628232   174A      0.631525   175A      0.637994  
     176A      0.645176   177A      0.652088   178A      0.656240  
     179A      0.659883   180A      0.666250   181A      0.670837  
     182A      0.677827   183A      0.682386   184A      0.689331  
     185A      0.697633   186A      0.700715   187A      0.702907  
     188A      0.709545   189A      0.717413   190A      0.725430  
     191A      0.731188   192A      0.738612   193A      0.744944  
     194A      0.751289   195A      0.755939   196A      0.759180  
     197A      0.771257   198A      0.773112   199A      0.785781  
     200A      0.788698   201A      0.796848   202A      0.804481  
     203A      0.812982   204A      0.823205   205A      0.831236  
     206A      0.834030   207A      0.838996   208A      0.848615  
     209A      0.853773   210A      0.857792   211A      0.860686  
     212A      0.866244   213A      0.872586   214A      0.880932  
     215A      0.883083   216A      0.888012   217A      0.892322  
     218A      0.895597   219A      0.902268   220A      0.903916  
     221A      0.908218   222A      0.915005   223A      0.918964  
     224A      0.920551   225A      0.923164   226A      0.927297  
     227A      0.936947   228A      0.939438   229A      0.945202  
     230A      0.950289   231A      0.953521   232A      0.965361  
     233A      0.968202   234A      0.970222   235A      0.971954  
     236A      0.981726   237A      0.983495   238A      0.997063  
     239A      0.998415   240A      1.005312   241A      1.012873  
     242A      1.019573   243A      1.025461   244A      1.029878  
     245A      1.037940   246A      1.039930   247A      1.043402  
     248A      1.048229   249A      1.052537   250A      1.065681  
     251A      1.072649   252A      1.075354   253A      1.080972  
     254A      1.086910   255A      1.088942   256A      1.095751  
     257A      1.104613   258A      1.106629   259A      1.109564  
     260A      1.112107   261A      1.120627   262A      1.130178  
     263A      1.136107   264A      1.137281   265A      1.142296  
     266A      1.147019   267A      1.151646   268A      1.154299  
     269A      1.158010   270A      1.162239   271A      1.174683  
     272A      1.177248   273A      1.180935   274A      1.184306  
     275A      1.189747   276A      1.193516   277A      1.196393  
     278A      1.202805   279A      1.209828   280A      1.217293  
     281A      1.223813   282A      1.229624   283A      1.231935  
     284A      1.244471   285A      1.246719   286A      1.249666  
     287A      1.255923   288A      1.264567   289A      1.276532  
     290A      1.277407   291A      1.282316   292A      1.286131  
     293A      1.294919   294A      1.305992   295A      1.309656  
     296A      1.320316   297A      1.326052   298A      1.329664  
     299A      1.340217   300A      1.348961   301A      1.357414  
     302A      1.364013   303A      1.368849   304A      1.373234  
     305A      1.382425   306A      1.385450   307A      1.402877  
     308A      1.406166   309A      1.410283   310A      1.415366  
     311A      1.428256   312A      1.430630   313A      1.442512  
     314A      1.447894   315A      1.455840   316A      1.468162  
     317A      1.470549   318A      1.479438   319A      1.493125  
     320A      1.495151   321A      1.502294   322A      1.508834  
     323A      1.515755   324A      1.524785   325A      1.527811  
     326A      1.541568   327A      1.549331   328A      1.553606  
     329A      1.555454   330A      1.564260   331A      1.575656  
     332A      1.580936   333A      1.590849   334A      1.597598  
     335A      1.611437   336A      1.615496   337A      1.619096  
     338A      1.624468   339A      1.638523   340A      1.643937  
     341A      1.648753   342A      1.661282   343A      1.666521  
     344A      1.670861   345A      1.678457   346A      1.692645  
     347A      1.693521   348A      1.702014   349A      1.704996  
     350A      1.711548   351A      1.714828   352A      1.727660  
     353A      1.733274   354A      1.738745   355A      1.744705  
     356A      1.752895   357A      1.760340   358A      1.773977  
     359A      1.780270   360A      1.787952   361A      1.801428  
     362A      1.807388   363A      1.811539   364A      1.813209  
     365A      1.816446   366A      1.831155   367A      1.842757  
     368A      1.851951   369A      1.857865   370A      1.862694  
     371A      1.869799   372A      1.875296   373A      1.879343  
     374A      1.890021   375A      1.897185   376A      1.907601  
     377A      1.914239   378A      1.920754   379A      1.924464  
     380A      1.933937   381A      1.945299   382A      1.950473  
     383A      1.963657   384A      1.977393   385A      1.984657  
     386A      1.995986   387A      2.000753   388A      2.012163  
     389A      2.017846   390A      2.028072   391A      2.032365  
     392A      2.035748   393A      2.043464   394A      2.057784  
     395A      2.063665   396A      2.066853   397A      2.075812  
     398A      2.080057   399A      2.087504   400A      2.093493  
     401A      2.107224   402A      2.111440   403A      2.129170  
     404A      2.131415   405A      2.152935   406A      2.157506  
     407A      2.162693   408A      2.173528   409A      2.177333  
     410A      2.182513   411A      2.198399   412A      2.219096  
     413A      2.224628   414A      2.228520   415A      2.237030  
     416A      2.255291   417A      2.264926   418A      2.272361  
     419A      2.275279   420A      2.289232   421A      2.303882  
     422A      2.309712   423A      2.315860   424A      2.328391  
     425A      2.341721   426A      2.351747   427A      2.358863  
     428A      2.368049   429A      2.371710   430A      2.383792  
     431A      2.396584   432A      2.402844   433A      2.419020  
     434A      2.428750   435A      2.430333   436A      2.434593  
     437A      2.457548   438A      2.478422   439A      2.503786  
     440A      2.517479   441A      2.526013   442A      2.534021  
     443A      2.544103   444A      2.566211   445A      2.583832  
     446A      2.592907   447A      2.605119   448A      2.613365  
     449A      2.630335   450A      2.650605   451A      2.654117  
     452A      2.674743   453A      2.676683   454A      2.694922  
     455A      2.709419   456A      2.746035   457A      2.749546  
     458A      2.755399   459A      2.771984   460A      2.782804  
     461A      2.800687   462A      2.811993   463A      2.837536  
     464A      2.861430   465A      2.873809   466A      2.889263  
     467A      2.901234   468A      2.928015   469A      2.936366  
     470A      2.952149   471A      2.993942   472A      3.022016  
     473A      3.035175   474A      3.068972   475A      3.078876  
     476A      3.096703   477A      3.118930   478A      3.150324  
     479A      3.170918   480A      3.204966   481A      3.211869  
     482A      3.238745   483A      3.244075   484A      3.257773  
     485A      3.270524   486A      3.303724   487A      3.326671  
     488A      3.332493   489A      3.358366   490A      3.368832  
     491A      3.378077   492A      3.381897   493A      3.395327  
     494A      3.407697   495A      3.422069   496A      3.441777  
     497A      3.449790   498A      3.459340   499A      3.469920  
     500A      3.484315   501A      3.494997   502A      3.499744  
     503A      3.511454   504A      3.515996   505A      3.531655  
     506A      3.552311   507A      3.563364   508A      3.568577  
     509A      3.575710   510A      3.587685   511A      3.600062  
     512A      3.613063   513A      3.619088   514A      3.632185  
     515A      3.637300   516A      3.643834   517A      3.651336  
     518A      3.663960   519A      3.670878   520A      3.677484  
     521A      3.680629   522A      3.699440   523A      3.710014  
     524A      3.720147   525A      3.733164   526A      3.741792  
     527A      3.743156   528A      3.762143   529A      3.776539  
     530A      3.793613   531A      3.803287   532A      3.828766  
     533A      3.830662   534A      3.839019   535A      3.848394  
     536A      3.859515   537A      3.867120   538A      3.871982  
     539A      3.874441   540A      3.891604   541A      3.910769  
     542A      3.917878   543A      3.923880   544A      3.930167  
     545A      3.937757   546A      3.942707   547A      3.952421  
     548A      3.956101   549A      3.959943   550A      3.966563  
     551A      3.973464   552A      3.981108   553A      3.991152  
     554A      3.992778   555A      4.006461   556A      4.009456  
     557A      4.016645   558A      4.024542   559A      4.031335  
     560A      4.053329   561A      4.069690   562A      4.074745  
     563A      4.078469   564A      4.091708   565A      4.107411  
     566A      4.117623   567A      4.121298   568A      4.136776  
     569A      4.143085   570A      4.160281   571A      4.167058  
     572A      4.168195   573A      4.190279   574A      4.195713  
     575A      4.210365   576A      4.213186   577A      4.226019  
     578A      4.252373   579A      4.255737   580A      4.267062  
     581A      4.272355   582A      4.276331   583A      4.280100  
     584A      4.310748   585A      4.313158   586A      4.328041  
     587A      4.332551   588A      4.339021   589A      4.350451  
     590A      4.366348   591A      4.366701   592A      4.384218  
     593A      4.391207   594A      4.404159   595A      4.415499  
     596A      4.418454   597A      4.432577   598A      4.444034  
     599A      4.461598   600A      4.464925   601A      4.468784  
     602A      4.480172   603A      4.480949   604A      4.488271  
     605A      4.514919   606A      4.525775   607A      4.532025  
     608A      4.538473   609A      4.548723   610A      4.561727  
     611A      4.569710   612A      4.586903   613A      4.602503  
     614A      4.614361   615A      4.623360   616A      4.651224  
     617A      4.661579   618A      4.696964   619A      4.708774  
     620A      4.712013   621A      4.718684   622A      4.746662  
     623A      4.756576   624A      4.764495   625A      4.771697  
     626A      4.785224   627A      4.797314   628A      4.808576  
     629A      4.830746   630A      4.842536   631A      4.859293  
     632A      4.865446   633A      4.870231   634A      4.899240  
     635A      4.929810   636A      4.953150   637A      4.964148  
     638A      4.973923   639A      4.984590   640A      4.998805  
     641A      5.014117   642A      5.023399   643A      5.029622  
     644A      5.053934   645A      5.062641   646A      5.066341  
     647A      5.093604   648A      5.100363   649A      5.105183  
     650A      5.129376   651A      5.130102   652A      5.135155  
     653A      5.158270   654A      5.166305   655A      5.173967  
     656A      5.184304   657A      5.192060   658A      5.198212  
     659A      5.215122   660A      5.233127   661A      5.259420  
     662A      5.269212   663A      5.276536   664A      5.289417  
     665A      5.300151   666A      5.307650   667A      5.318325  
     668A      5.334997   669A      5.341560   670A      5.372023  
     671A      5.374755   672A      5.395073   673A      5.408131  
     674A      5.439079   675A      5.452761   676A      5.476521  
     677A      5.483667   678A      5.510071   679A      5.531509  
     680A      5.549833   681A      5.558673   682A      5.581208  
     683A      5.606543   684A      5.625816   685A      5.638495  
     686A      5.658107   687A      5.690657   688A      5.695238  
     689A      5.696342   690A      5.723150   691A      5.768201  
     692A      5.779255   693A      5.786911   694A      5.797013  
     695A      5.822680   696A      5.847309   697A      5.879898  
     698A      5.890324   699A      5.918802   700A      5.970983  
     701A      5.992389   702A      5.994724   703A      6.062822  
     704A      6.089246   705A      6.112358   706A      6.128812  
     707A      6.188864   708A      6.199049   709A      6.245381  
     710A      6.252660   711A      6.260606   712A      6.271520  
     713A      6.289485   714A      6.307746   715A      6.337081  
     716A      6.350736   717A      6.391432   718A      6.425672  
     719A      6.480754   720A      6.498459   721A      6.535970  
     722A      6.636034   723A      6.665436   724A      6.743258  
     725A      6.757100   726A      6.774012   727A      6.812337  
     728A      6.828812   729A      6.854455   730A      6.894119  
     731A      6.901615   732A      6.927592   733A      6.992548  
     734A      7.004822   735A      7.033211   736A      7.088606  
     737A      7.124464   738A      7.205868   739A      7.283219  
     740A      7.292205   741A      7.449234   742A      7.486261  
     743A      7.534849   744A      7.681660   745A      7.723736  
     746A      7.789275   747A      7.965792   748A      8.104230  
     749A     15.784218   750A     16.159893   751A     16.857745  
     752A     17.344385   753A     17.678680   754A     18.839886  
     755A     19.172537   756A     20.012847   757A     20.095775  
     758A     20.380063   759A     21.024563  

    Final Occupation by Irrep:
              A 
    DOCC [    40 ]

  @DF-RHF Final Energy:  -476.66074637016203

   => Energetics <=

    Nuclear Repulsion Energy =            588.9382471846180351
    One-Electron Energy =               -1815.5162421723448460
    Two-Electron Energy =                 749.9172486175648373
    Total Energy =                       -476.6607463701620873

Computation Completed

*** tstop() called on node57.bme.utexas.edu at Tue Feb  2 13:06:35 2021
Module time:
	user time   =     474.73 seconds =       7.91 minutes
	system time =      75.06 seconds =       1.25 minutes
	total time  =        137 seconds =       2.28 minutes
Total time:
	user time   =     474.73 seconds =       7.91 minutes
	system time =      75.06 seconds =       1.25 minutes
	total time  =        137 seconds =       2.28 minutes
   => Loading Basis Set <=

    Name: (AUG-CC-PVTZ AUX)
    Role: RIFIT
    Keyword: DF_BASIS_MP2
    atoms 1     entry O          line   264 file /home/xy3866/psi4conda/share/psi4/basis/aug-cc-pvtz-ri.gbs 
    atoms 2     entry N          line   206 file /home/xy3866/psi4conda/share/psi4/basis/aug-cc-pvtz-ri.gbs 
    atoms 3-11  entry C          line   148 file /home/xy3866/psi4conda/share/psi4/basis/aug-cc-pvtz-ri.gbs 
    atoms 12-22 entry H          line    30 file /home/xy3866/psi4conda/share/psi4/basis/aug-cc-pvtz-ri.gbs 


*** tstart() called on node57.bme.utexas.edu
*** at Tue Feb  2 13:06:36 2021


  //>>>>>>>>>>>>>>>>>>>>>>>>>>>>>>>>>>>//
  //               DFMP2               //
  //<<<<<<<<<<<<<<<<<<<<<<<<<<<<<<<<<<<//

	 --------------------------------------------------------
	                          DF-MP2                         
	      2nd-Order Density-Fitted Moller-Plesset Theory     
	              RMP2 Wavefunction,   8 Threads             
	                                                         
	        Rob Parrish, Justin Turney, Andy Simmonett,      
	           Ed Hohenstein, and C. David Sherrill          
	 --------------------------------------------------------

   => Auxiliary Basis Set <=

  Basis Set: (AUG-CC-PVTZ AUX)
    Blend: AUG-CC-PVTZ-RI
    Number of shells: 462
    Number of basis function: 1672
    Number of Cartesian functions: 2101
    Spherical Harmonics?: true
    Max angular momentum: 4

	 --------------------------------------------------------
	                 NBF =   759, NAUX =  1672
	 --------------------------------------------------------
	   CLASS    FOCC     OCC    AOCC    AVIR     VIR    FVIR
	   PAIRS       0      40      40     719     719       0
	 --------------------------------------------------------

  DFHelper Memory: AOs need 6.736 GiB; user supplied 22.352 GiB. Using in-core AOs.


         ------------------------------------------------------------
                                     CPHF                           
                                  Rob Parrish                       
         ------------------------------------------------------------

  ==> Geometry <==

    Molecular point group: c1
    Full point group: C1

    Geometry (in Angstrom), charge = 0, multiplicity = 1:

       Center              X                  Y                   Z               Mass       
    ------------   -----------------  -----------------  -----------------  -----------------
         O            1.581122751233    -1.616238033028    -0.622434730888    15.994914619570
         N            1.050401751233     0.441092966972     0.247358269112    14.003074004430
         C           -0.547513248767     0.176103266972     0.100101069112    12.000000000000
         C           -0.921957248767    -0.973625033028     0.605978269112    12.000000000000
         C           -1.165693248767     1.188455966972    -0.462383730888    12.000000000000
         C            1.479185751233     1.785947966972     0.623814269112    12.000000000000
         C            1.945938751233    -0.515828033028    -0.206595730888    12.000000000000
         C           -2.297973248767    -1.169366033028     0.499700269112    12.000000000000
         C           -2.544380248767     0.989072966972    -0.549057730888    12.000000000000
         C           -3.115821248767    -0.190380033028    -0.070355730888    12.000000000000
         C            3.415553751233    -0.144874033028    -0.145980730888    12.000000000000
         H           -0.287642248767    -1.731526033028     1.050998269112     1.007825032230
         H           -0.724040248767     2.097512966972    -0.862706730888     1.007825032230
         H            2.400671751233     1.739459966972     1.204547269112     1.007825032230
         H            0.703664751233     2.225159966972     1.252557269112     1.007825032230
         H            1.642862751233     2.439434966972    -0.241974730888     1.007825032230
         H           -2.735047248767    -2.090639033028     0.877313269112     1.007825032230
         H           -3.169304248767     1.755670966972    -1.001074730888     1.007825032230
         H           -4.188904248767    -0.347645033028    -0.143689730888     1.007825032230
         H            3.752674751233    -0.018927033028     0.887493269112     1.007825032230
         H            3.630635751233     0.780594966972    -0.687198730888     1.007825032230
         H            3.968495751233    -0.966282033028    -0.600475730888     1.007825032230

  Nuclear repulsion =  588.938247184618035
  Reference energy  = -476.660746370162030

  ==> Basis Set <==

  Basis Set: AUG-CC-PVTZ
    Blend: AUG-CC-PVTZ
    Number of shells: 253
    Number of basis function: 759
    Number of Cartesian functions: 880
    Spherical Harmonics?: true
    Max angular momentum: 3

  ==> CGRSolver (by Rob Parrish) <==

   Number of roots    =         1
   Preconditioning    =    JACOBI
   Convergence cutoff =     1E-06
   Maximum iterations =       100

  ==> CPHFRHamiltonian (by Rob Parrish) <== 

  ==> MemDFJK: Density-Fitted J/K Matrices <==

    J tasked:                   Yes
    K tasked:                   Yes
    wK tasked:                   No
    OpenMP threads:               8
    Memory [MiB]:             22888
    Algorithm:                 Disk
    Schwarz Cutoff:           1E-12
    Mask sparsity (%):       7.2976
    Fitting Condition:        1E-10

   => Auxiliary Basis Set <=

  Basis Set: (AUG-CC-PVTZ AUX)
    Blend: AUG-CC-PVTZ-JKFIT
    Number of shells: 484
    Number of basis function: 1650
    Number of Cartesian functions: 2046
    Spherical Harmonics?: true
    Max angular momentum: 4

  ==> CPHF Iterations <==

  => Iterations <=

             Iter  Converged  Remaining    Residual
  CGR           1          0          1   1.114E-01
  CGR           2          0          1   3.248E-02
  CGR           3          0          1   1.405E-02
  CGR           4          0          1   4.811E-03
  CGR           5          0          1   1.987E-03
  CGR           6          0          1   9.958E-04
  CGR           7          0          1   3.877E-04
  CGR           8          0          1   1.638E-04
  CGR           9          0          1   5.478E-05
  CGR          10          0          1   1.624E-05
  CGR          11          0          1   6.153E-06
  CGR          12          0          1   1.890E-06
  CGR          13          1          0   7.879E-07

    CGRSolver converged.

	-----------------------------------------------------------
	 ==================> DF-MP2 Energies <==================== 
	-----------------------------------------------------------
	 Reference Energy          =    -476.6607463701620304 [Eh]
	 Singles Energy            =      -0.0000000000000000 [Eh]
	 Same-Spin Energy          =      -0.5119661280685397 [Eh]
	 Opposite-Spin Energy      =      -1.6161899701499531 [Eh]
	 Correlation Energy        =      -2.1281560982184926 [Eh]
	 Total Energy              =    -478.7889024683805133 [Eh]
	-----------------------------------------------------------
	 ================> DF-SCS-MP2 Energies <================== 
	-----------------------------------------------------------
	 SCS Same-Spin Scale       =       0.3333333333333333 [-]
	 SCS Opposite-Spin Scale   =       1.2000000000000000 [-]
	 SCS Same-Spin Energy      =      -0.1706553760228466 [Eh]
	 SCS Opposite-Spin Energy  =      -1.9394279641799437 [Eh]
	 SCS Correlation Energy    =      -2.1100833402027903 [Eh]
	 SCS Total Energy          =    -478.7708297103648079 [Eh]
	-----------------------------------------------------------



Properties will be evaluated at   0.000000,   0.000000,  -0.000000 [a0]

Properties computed using the MP2 density matrix

  Nuclear Dipole Moment: [e a0]
     X:     4.6863      Y:     5.5059      Z:     1.6235

  Electronic Dipole Moment: [e a0]
     X:    -4.8300      Y:    -4.2044      Z:    -1.1276

  Dipole Moment: [e a0]
     X:    -0.1437      Y:     1.3015      Z:     0.4960     Total:     1.4002

  Dipole Moment: [D]
     X:    -0.3651      Y:     3.3082      Z:     1.2606     Total:     3.5590


*** tstop() called on node57.bme.utexas.edu at Tue Feb  2 13:11:40 2021
Module time:
	user time   =    1556.71 seconds =      25.95 minutes
	system time =     149.72 seconds =       2.50 minutes
	total time  =        304 seconds =       5.07 minutes
Total time:
	user time   =    2031.62 seconds =      33.86 minutes
	system time =     224.78 seconds =       3.75 minutes
	total time  =        442 seconds =       7.37 minutes

    Psi4 stopped on: Tuesday, 02 February 2021 01:11PM
    Psi4 wall time for execution: 0:07:21.89

*** Psi4 exiting successfully. Buy a developer a beer!
