
    -----------------------------------------------------------------------
          Psi4: An Open-Source Ab Initio Electronic Structure Package
                               Psi4 1.3.2 release

                         Git: Rev {HEAD} ecbda83 


    R. M. Parrish, L. A. Burns, D. G. A. Smith, A. C. Simmonett,
    A. E. DePrince III, E. G. Hohenstein, U. Bozkaya, A. Yu. Sokolov,
    R. Di Remigio, R. M. Richard, J. F. Gonthier, A. M. James,
    H. R. McAlexander, A. Kumar, M. Saitow, X. Wang, B. P. Pritchard,
    P. Verma, H. F. Schaefer III, K. Patkowski, R. A. King, E. F. Valeev,
    F. A. Evangelista, J. M. Turney, T. D. Crawford, and C. D. Sherrill,
    J. Chem. Theory Comput. 13(7) pp 3185--3197 (2017).
    (doi: 10.1021/acs.jctc.7b00174)


                         Additional Contributions by
    P. Kraus, H. Kruse, M. H. Lechner, M. C. Schieber, R. A. Shaw,
    A. Alenaizan, R. Galvelis, Z. L. Glick, S. Lehtola, and J. P. Misiewicz

    -----------------------------------------------------------------------


    Psi4 started on: Tuesday, 02 February 2021 11:41AM

    Process ID: 2119348
    Host:       node57.bme.utexas.edu
    PSIDATADIR: /home/xy3866/psi4conda/share/psi4
    Memory:     500.0 MiB
    Threads:    8
    
  ==> Input File <==

--------------------------------------------------------------------------
#psi4
#
memory 32 gb

molecule  {
0 1
  O        1.5353870    -1.6551020    -0.6345320
  N        1.0070505     0.3802047     0.2466199
  C       -0.3967540     0.1698250     0.1061120
  C       -0.9676930    -1.0124890     0.5938810
  C       -1.2114290     1.1495920    -0.4744810
  C        1.4334500     1.7470840     0.6117170
  C        1.9002030    -0.5546920    -0.2186930
  C       -2.3437090    -1.2082300     0.4876030
  C       -2.5901160     0.9502090    -0.5611550
  C       -3.1615570    -0.2292440    -0.0824530
  C        3.3698180    -0.1837380    -0.1580780
  H       -0.3333780    -1.7703900     1.0389010
  H       -0.7697760     2.0586490    -0.8748040
  H        2.3549360     1.7005960     1.1924500
  H        0.6579290     2.1862960     1.2404600
  H        1.5971270     2.4005710    -0.2540720
  H       -2.7807830    -2.1295030     0.8652160
  H       -3.2150400     1.7168070    -1.0131720
  H       -4.2346400    -0.3865090    -0.1557870
  H        3.7069390    -0.0577910     0.8753960
  H        3.5849000     0.7417310    -0.6992960
  H        3.9227600    -1.0051460    -0.6125730
units angstrom
no_reorient  #important for SAPT in psi4, default
symmetry c1  #important for SAPT in psi4, default
}

set PROPERTIES_ORIGIN ["COM"]
properties('MP2/aug-cc-pvtz', properties = ['dipole'])
--------------------------------------------------------------------------

  Memory set to  29.802 GiB by Python driver.
    SCF Algorithm Type (re)set to DF.

*** tstart() called on node57.bme.utexas.edu
*** at Tue Feb  2 11:41:55 2021

   => Loading Basis Set <=

    Name: AUG-CC-PVTZ
    Role: ORBITAL
    Keyword: BASIS
    atoms 1     entry O          line   327 file /home/xy3866/psi4conda/share/psi4/basis/aug-cc-pvtz.gbs 
    atoms 2     entry N          line   281 file /home/xy3866/psi4conda/share/psi4/basis/aug-cc-pvtz.gbs 
    atoms 3-11  entry C          line   235 file /home/xy3866/psi4conda/share/psi4/basis/aug-cc-pvtz.gbs 
    atoms 12-22 entry H          line    36 file /home/xy3866/psi4conda/share/psi4/basis/aug-cc-pvtz.gbs 


         ---------------------------------------------------------
                                   SCF
               by Justin Turney, Rob Parrish, Andy Simmonett
                          and Daniel G. A. Smith
                              RHF Reference
                        8 Threads,  30517 MiB Core
         ---------------------------------------------------------

  ==> Geometry <==

    Molecular point group: c1
    Full point group: C1

    Geometry (in Angstrom), charge = 0, multiplicity = 1:

       Center              X                  Y                   Z               Mass       
    ------------   -----------------  -----------------  -----------------  -----------------
         O            1.565082604043    -1.616792220343    -0.624959198677    15.994914619570
         N            1.036746104043     0.418514479657     0.256192701323    14.003074004430
         C           -0.367058395957     0.208134779657     0.115684801323    12.000000000000
         C           -0.937997395957    -0.974179220343     0.603453801323    12.000000000000
         C           -1.181733395957     1.187901779657    -0.464908198677    12.000000000000
         C            1.463145604043     1.785393779657     0.621289801323    12.000000000000
         C            1.929898604043    -0.516382220343    -0.209120198677    12.000000000000
         C           -2.314013395957    -1.169920220343     0.497175801323    12.000000000000
         C           -2.560420395957     0.988518779657    -0.551582198677    12.000000000000
         C           -3.131861395957    -0.190934220343    -0.072880198677    12.000000000000
         C            3.399513604043    -0.145428220343    -0.148505198677    12.000000000000
         H           -0.303682395957    -1.732080220343     1.048473801323     1.007825032230
         H           -0.740080395957     2.096958779657    -0.865231198677     1.007825032230
         H            2.384631604043     1.738905779657     1.202022801323     1.007825032230
         H            0.687624604043     2.224605779657     1.250032801323     1.007825032230
         H            1.626822604043     2.438880779657    -0.244499198677     1.007825032230
         H           -2.751087395957    -2.091193220343     0.874788801323     1.007825032230
         H           -3.185344395957     1.755116779657    -1.003599198677     1.007825032230
         H           -4.204944395957    -0.348199220343    -0.146214198677     1.007825032230
         H            3.736634604043    -0.019481220343     0.884968801323     1.007825032230
         H            3.614595604043     0.780040779657    -0.689723198677     1.007825032230
         H            3.952455604043    -0.966836220343    -0.603000198677     1.007825032230

  Running in c1 symmetry.

  Rotational constants: A =      0.08079  B =      0.02494  C =      0.02068 [cm^-1]
  Rotational constants: A =   2421.98474  B =    747.66323  C =    619.96037 [MHz]
  Nuclear repulsion =  589.107241201991883

  Charge       = 0
  Multiplicity = 1
  Electrons    = 80
  Nalpha       = 40
  Nbeta        = 40

  ==> Algorithm <==

  SCF Algorithm Type is DF.
  DIIS enabled.
  MOM disabled.
  Fractional occupation disabled.
  Guess Type is SAD.
  Energy threshold   = 1.00e-10
  Density threshold  = 1.00e-10
  Integral threshold = 0.00e+00

  ==> Primary Basis <==

  Basis Set: AUG-CC-PVTZ
    Blend: AUG-CC-PVTZ
    Number of shells: 253
    Number of basis function: 759
    Number of Cartesian functions: 880
    Spherical Harmonics?: true
    Max angular momentum: 3

   => Loading Basis Set <=

    Name: (AUG-CC-PVTZ AUX)
    Role: JKFIT
    Keyword: DF_BASIS_SCF
    atoms 1     entry O          line   286 file /home/xy3866/psi4conda/share/psi4/basis/aug-cc-pvtz-jkfit.gbs 
    atoms 2     entry N          line   224 file /home/xy3866/psi4conda/share/psi4/basis/aug-cc-pvtz-jkfit.gbs 
    atoms 3-11  entry C          line   162 file /home/xy3866/psi4conda/share/psi4/basis/aug-cc-pvtz-jkfit.gbs 
    atoms 12-22 entry H          line    70 file /home/xy3866/psi4conda/share/psi4/basis/aug-cc-pvtz-jkfit.gbs 

  ==> Pre-Iterations <==

   -------------------------------------------------------
    Irrep   Nso     Nmo     Nalpha   Nbeta   Ndocc  Nsocc
   -------------------------------------------------------
     A        759     759       0       0       0       0
   -------------------------------------------------------
    Total     759     759      40      40      40       0
   -------------------------------------------------------

  ==> Integral Setup <==

  DFHelper Memory: AOs need 6.738 GiB; user supplied 22.352 GiB. Using in-core AOs.

  ==> MemDFJK: Density-Fitted J/K Matrices <==

    J tasked:                   Yes
    K tasked:                   Yes
    wK tasked:                   No
    OpenMP threads:               8
    Memory [MiB]:             22888
    Algorithm:                 Disk
    Schwarz Cutoff:           1E-12
    Mask sparsity (%):       7.2667
    Fitting Condition:        1E-10

   => Auxiliary Basis Set <=

  Basis Set: (AUG-CC-PVTZ AUX)
    Blend: AUG-CC-PVTZ-JKFIT
    Number of shells: 484
    Number of basis function: 1650
    Number of Cartesian functions: 2046
    Spherical Harmonics?: true
    Max angular momentum: 4

  Minimum eigenvalue in the overlap matrix is 5.0782434524E-07.
  Using Symmetric Orthogonalization.

  SCF Guess: Superposition of Atomic Densities via on-the-fly atomic UHF.

  ==> Iterations <==

                           Total Energy        Delta E     RMS |[F,P]|

   @DF-RHF iter SAD:  -475.98699327444081   -4.75987e+02   0.00000e+00 
   @DF-RHF iter   1:  -476.35971389596347   -3.72721e-01   1.02220e-03 DIIS
   @DF-RHF iter   2:  -476.62409647039766   -2.64383e-01   5.59317e-04 DIIS
   @DF-RHF iter   3:  -476.69408568924069   -6.99892e-02   1.31698e-04 DIIS
   @DF-RHF iter   4:  -476.69939638629984   -5.31070e-03   5.58168e-05 DIIS
   @DF-RHF iter   5:  -476.70038977434064   -9.93388e-04   9.08527e-06 DIIS
   @DF-RHF iter   6:  -476.70044521179580   -5.54375e-05   4.54576e-06 DIIS
   @DF-RHF iter   7:  -476.70045682477382   -1.16130e-05   1.77951e-06 DIIS
   @DF-RHF iter   8:  -476.70045927787623   -2.45310e-06   8.14857e-07 DIIS
   @DF-RHF iter   9:  -476.70045979941460   -5.21538e-07   2.94354e-07 DIIS
   @DF-RHF iter  10:  -476.70045987116634   -7.17517e-08   7.94585e-08 DIIS
   @DF-RHF iter  11:  -476.70045987747312   -6.30678e-09   3.00315e-08 DIIS
   @DF-RHF iter  12:  -476.70045987822874   -7.55620e-10   1.36715e-08 DIIS
   @DF-RHF iter  13:  -476.70045987841263   -1.83888e-10   5.46297e-09 DIIS
   @DF-RHF iter  14:  -476.70045987846180   -4.91696e-11   2.66232e-09 DIIS
   @DF-RHF iter  15:  -476.70045987847493   -1.31308e-11   1.17520e-09 DIIS
   @DF-RHF iter  16:  -476.70045987847880   -3.86535e-12   4.82053e-10 DIIS
   @DF-RHF iter  17:  -476.70045987848226   -3.46745e-12   1.85924e-10 DIIS
   @DF-RHF iter  18:  -476.70045987847612    6.13909e-12   6.03195e-11 DIIS
  Energy and wave function converged.


  ==> Post-Iterations <==

    Orbital Energies [Eh]
    ---------------------

    Doubly Occupied:                                                      

       1A    -20.516644     2A    -15.599251     3A    -11.354473  
       4A    -11.278585     5A    -11.278320     6A    -11.240728  
       7A    -11.238463     8A    -11.237141     9A    -11.234853  
      10A    -11.232129    11A    -11.230224    12A     -1.376354  
      13A     -1.257728    14A     -1.142251    15A     -1.030399  
      16A     -1.016067    17A     -0.992212    18A     -0.954802  
      19A     -0.842378    20A     -0.827333    21A     -0.755060  
      22A     -0.694633    23A     -0.678945    24A     -0.661333  
      25A     -0.656787    26A     -0.618642    27A     -0.612703  
      28A     -0.587873    29A     -0.584154    30A     -0.575546  
      31A     -0.564693    32A     -0.558175    33A     -0.524459  
      34A     -0.510639    35A     -0.496640    36A     -0.495706  
      37A     -0.422862    38A     -0.405601    39A     -0.335891  
      40A     -0.315851  

    Virtual:                                                              

      41A      0.023251    42A      0.030294    43A      0.034740  
      44A      0.037564    45A      0.043586    46A      0.046190  
      47A      0.054688    48A      0.060768    49A      0.063222  
      50A      0.068067    51A      0.071565    52A      0.092081  
      53A      0.092552    54A      0.102377    55A      0.102907  
      56A      0.106591    57A      0.108052    58A      0.114929  
      59A      0.115823    60A      0.123027    61A      0.125647  
      62A      0.125819    63A      0.129220    64A      0.131029  
      65A      0.136938    66A      0.140938    67A      0.142925  
      68A      0.146036    69A      0.149609    70A      0.152818  
      71A      0.156617    72A      0.158236    73A      0.161481  
      74A      0.167021    75A      0.169441    76A      0.174191  
      77A      0.178700    78A      0.187083    79A      0.188862  
      80A      0.194802    81A      0.201654    82A      0.208046  
      83A      0.216735    84A      0.224986    85A      0.230013  
      86A      0.233187    87A      0.237261    88A      0.247502  
      89A      0.249725    90A      0.262168    91A      0.264805  
      92A      0.269410    93A      0.272619    94A      0.274765  
      95A      0.281785    96A      0.288824    97A      0.295549  
      98A      0.296599    99A      0.301997   100A      0.303135  
     101A      0.306333   102A      0.314128   103A      0.316522  
     104A      0.317404   105A      0.320849   106A      0.329937  
     107A      0.330806   108A      0.334298   109A      0.338433  
     110A      0.342241   111A      0.348524   112A      0.352295  
     113A      0.355737   114A      0.358942   115A      0.361708  
     116A      0.369863   117A      0.372449   118A      0.375596  
     119A      0.385612   120A      0.388154   121A      0.390838  
     122A      0.395510   123A      0.402168   124A      0.404792  
     125A      0.410143   126A      0.416962   127A      0.419543  
     128A      0.423666   129A      0.427262   130A      0.434723  
     131A      0.440804   132A      0.446716   133A      0.448994  
     134A      0.453346   135A      0.454886   136A      0.457872  
     137A      0.461005   138A      0.469707   139A      0.470070  
     140A      0.474237   141A      0.477102   142A      0.485921  
     143A      0.489208   144A      0.490202   145A      0.494737  
     146A      0.498366   147A      0.500910   148A      0.505716  
     149A      0.509991   150A      0.512440   151A      0.518380  
     152A      0.523050   153A      0.524007   154A      0.527253  
     155A      0.530133   156A      0.535368   157A      0.537544  
     158A      0.541704   159A      0.545990   160A      0.549432  
     161A      0.553245   162A      0.556805   163A      0.564413  
     164A      0.571310   165A      0.576329   166A      0.581264  
     167A      0.590177   168A      0.593056   169A      0.598732  
     170A      0.602525   171A      0.613628   172A      0.617143  
     173A      0.626859   174A      0.631322   175A      0.639485  
     176A      0.645279   177A      0.649792   178A      0.655586  
     179A      0.658392   180A      0.670401   181A      0.673475  
     182A      0.678094   183A      0.685750   184A      0.692922  
     185A      0.697680   186A      0.700910   187A      0.705963  
     188A      0.713683   189A      0.723961   190A      0.729288  
     191A      0.732228   192A      0.739377   193A      0.744282  
     194A      0.747599   195A      0.757998   196A      0.760832  
     197A      0.772268   198A      0.781297   199A      0.791571  
     200A      0.793422   201A      0.800261   202A      0.804578  
     203A      0.813573   204A      0.821731   205A      0.828849  
     206A      0.834242   207A      0.839222   208A      0.848021  
     209A      0.852610   210A      0.855532   211A      0.862580  
     212A      0.870072   213A      0.872345   214A      0.874852  
     215A      0.879262   216A      0.883512   217A      0.891490  
     218A      0.893264   219A      0.897976   220A      0.902903  
     221A      0.904686   222A      0.910159   223A      0.912749  
     224A      0.916048   225A      0.919031   226A      0.924668  
     227A      0.932288   228A      0.939250   229A      0.943640  
     230A      0.945604   231A      0.950439   232A      0.951625  
     233A      0.965437   234A      0.970167   235A      0.973436  
     236A      0.974887   237A      0.980721   238A      0.988567  
     239A      0.996046   240A      1.006342   241A      1.015119  
     242A      1.020368   243A      1.023092   244A      1.027936  
     245A      1.035615   246A      1.042150   247A      1.042571  
     248A      1.045163   249A      1.053628   250A      1.064518  
     251A      1.070785   252A      1.074367   253A      1.077404  
     254A      1.083901   255A      1.088263   256A      1.093186  
     257A      1.105852   258A      1.107943   259A      1.108914  
     260A      1.110591   261A      1.113524   262A      1.121907  
     263A      1.128674   264A      1.134335   265A      1.141743  
     266A      1.146679   267A      1.148626   268A      1.155710  
     269A      1.164677   270A      1.164759   271A      1.171380  
     272A      1.178203   273A      1.181052   274A      1.185050  
     275A      1.187842   276A      1.195626   277A      1.198493  
     278A      1.202235   279A      1.211931   280A      1.219285  
     281A      1.223146   282A      1.227313   283A      1.229840  
     284A      1.239455   285A      1.244466   286A      1.256365  
     287A      1.258695   288A      1.259585   289A      1.265212  
     290A      1.276563   291A      1.281662   292A      1.289985  
     293A      1.293105   294A      1.304959   295A      1.315848  
     296A      1.320039   297A      1.328611   298A      1.331955  
     299A      1.342246   300A      1.350425   301A      1.363086  
     302A      1.365519   303A      1.369490   304A      1.372008  
     305A      1.377711   306A      1.386869   307A      1.399056  
     308A      1.407521   309A      1.415660   310A      1.417811  
     311A      1.427187   312A      1.435172   313A      1.442393  
     314A      1.447597   315A      1.456583   316A      1.462482  
     317A      1.469425   318A      1.472188   319A      1.482921  
     320A      1.491188   321A      1.498032   322A      1.507441  
     323A      1.509806   324A      1.521126   325A      1.529152  
     326A      1.541114   327A      1.547566   328A      1.552131  
     329A      1.556644   330A      1.557973   331A      1.570851  
     332A      1.575833   333A      1.583824   334A      1.598827  
     335A      1.609127   336A      1.611843   337A      1.615088  
     338A      1.617536   339A      1.635032   340A      1.638736  
     341A      1.645383   342A      1.656688   343A      1.659894  
     344A      1.671090   345A      1.677629   346A      1.686230  
     347A      1.689461   348A      1.697250   349A      1.703237  
     350A      1.706154   351A      1.722365   352A      1.732581  
     353A      1.736275   354A      1.742025   355A      1.743606  
     356A      1.752041   357A      1.759238   358A      1.771240  
     359A      1.779650   360A      1.783580   361A      1.797498  
     362A      1.804716   363A      1.807616   364A      1.810597  
     365A      1.827240   366A      1.832227   367A      1.843853  
     368A      1.849688   369A      1.854016   370A      1.865374  
     371A      1.872407   372A      1.879003   373A      1.884634  
     374A      1.891532   375A      1.895508   376A      1.902729  
     377A      1.907388   378A      1.920009   379A      1.924039  
     380A      1.936473   381A      1.948001   382A      1.955067  
     383A      1.967094   384A      1.975661   385A      1.983113  
     386A      1.999860   387A      2.009009   388A      2.012516  
     389A      2.017519   390A      2.024889   391A      2.031294  
     392A      2.039112   393A      2.044859   394A      2.051715  
     395A      2.061915   396A      2.068971   397A      2.077827  
     398A      2.083020   399A      2.089863   400A      2.095032  
     401A      2.106643   402A      2.122315   403A      2.131079  
     404A      2.133905   405A      2.151134   406A      2.157320  
     407A      2.165591   408A      2.170145   409A      2.181852  
     410A      2.185644   411A      2.202583   412A      2.214639  
     413A      2.220284   414A      2.232000   415A      2.236332  
     416A      2.259711   417A      2.266656   418A      2.278836  
     419A      2.292994   420A      2.295288   421A      2.305152  
     422A      2.314815   423A      2.319704   424A      2.325181  
     425A      2.343788   426A      2.347080   427A      2.362965  
     428A      2.367471   429A      2.376218   430A      2.378967  
     431A      2.394049   432A      2.398506   433A      2.421838  
     434A      2.427301   435A      2.435307   436A      2.448311  
     437A      2.452623   438A      2.484094   439A      2.496338  
     440A      2.518920   441A      2.530018   442A      2.540638  
     443A      2.551869   444A      2.561774   445A      2.577379  
     446A      2.586419   447A      2.608835   448A      2.609641  
     449A      2.621226   450A      2.648521   451A      2.655908  
     452A      2.677294   453A      2.683895   454A      2.705773  
     455A      2.722617   456A      2.754440   457A      2.757014  
     458A      2.763609   459A      2.790831   460A      2.809880  
     461A      2.814145   462A      2.830804   463A      2.842158  
     464A      2.862707   465A      2.876209   466A      2.893028  
     467A      2.918462   468A      2.929835   469A      2.944852  
     470A      2.966704   471A      3.016949   472A      3.027564  
     473A      3.037955   474A      3.076599   475A      3.078793  
     476A      3.088667   477A      3.114795   478A      3.144384  
     479A      3.157581   480A      3.195921   481A      3.217904  
     482A      3.231480   483A      3.246282   484A      3.258335  
     485A      3.273247   486A      3.287498   487A      3.323200  
     488A      3.352373   489A      3.359166   490A      3.384868  
     491A      3.386614   492A      3.391698   493A      3.407394  
     494A      3.417874   495A      3.421357   496A      3.448616  
     497A      3.455281   498A      3.467279   499A      3.482974  
     500A      3.487068   501A      3.497049   502A      3.507222  
     503A      3.518811   504A      3.523715   505A      3.551676  
     506A      3.559842   507A      3.565185   508A      3.573748  
     509A      3.577243   510A      3.594608   511A      3.596725  
     512A      3.607690   513A      3.611783   514A      3.630852  
     515A      3.633667   516A      3.639696   517A      3.644738  
     518A      3.651897   519A      3.667274   520A      3.676114  
     521A      3.681792   522A      3.694119   523A      3.709502  
     524A      3.727300   525A      3.731465   526A      3.744882  
     527A      3.759924   528A      3.764448   529A      3.768173  
     530A      3.782388   531A      3.795751   532A      3.807010  
     533A      3.822902   534A      3.838191   535A      3.846456  
     536A      3.853447   537A      3.858442   538A      3.862820  
     539A      3.872180   540A      3.889514   541A      3.900933  
     542A      3.911869   543A      3.915876   544A      3.919066  
     545A      3.927257   546A      3.936977   547A      3.948342  
     548A      3.951310   549A      3.960372   550A      3.966980  
     551A      3.969496   552A      3.982242   553A      3.991700  
     554A      3.998886   555A      4.004748   556A      4.011659  
     557A      4.022142   558A      4.029746   559A      4.036286  
     560A      4.046367   561A      4.060590   562A      4.066319  
     563A      4.076762   564A      4.095493   565A      4.105905  
     566A      4.110395   567A      4.119779   568A      4.140623  
     569A      4.146200   570A      4.167177   571A      4.169883  
     572A      4.196460   573A      4.198352   574A      4.204830  
     575A      4.217047   576A      4.218313   577A      4.222986  
     578A      4.254227   579A      4.257697   580A      4.266765  
     581A      4.272555   582A      4.282390   583A      4.298245  
     584A      4.307784   585A      4.315154   586A      4.322184  
     587A      4.328340   588A      4.340721   589A      4.346654  
     590A      4.361338   591A      4.380278   592A      4.390129  
     593A      4.401852   594A      4.408386   595A      4.417173  
     596A      4.426262   597A      4.436318   598A      4.440148  
     599A      4.458252   600A      4.463048   601A      4.471919  
     602A      4.476058   603A      4.482482   604A      4.497851  
     605A      4.506844   606A      4.518646   607A      4.532394  
     608A      4.536260   609A      4.544496   610A      4.551592  
     611A      4.572232   612A      4.592457   613A      4.597181  
     614A      4.613529   615A      4.630206   616A      4.661068  
     617A      4.671558   618A      4.691920   619A      4.704652  
     620A      4.718794   621A      4.729069   622A      4.745328  
     623A      4.750214   624A      4.763435   625A      4.769014  
     626A      4.784420   627A      4.786545   628A      4.803552  
     629A      4.826785   630A      4.839825   631A      4.857068  
     632A      4.867984   633A      4.873743   634A      4.899939  
     635A      4.930838   636A      4.936617   637A      4.949905  
     638A      4.962061   639A      4.970428   640A      4.983257  
     641A      5.006596   642A      5.012749   643A      5.023451  
     644A      5.034028   645A      5.054295   646A      5.061971  
     647A      5.084201   648A      5.097007   649A      5.109725  
     650A      5.117816   651A      5.125377   652A      5.128441  
     653A      5.150014   654A      5.162465   655A      5.168644  
     656A      5.178975   657A      5.187589   658A      5.197112  
     659A      5.208760   660A      5.224305   661A      5.235965  
     662A      5.261215   663A      5.267933   664A      5.292549  
     665A      5.302948   666A      5.313903   667A      5.326405  
     668A      5.329206   669A      5.350694   670A      5.364141  
     671A      5.377679   672A      5.381257   673A      5.398408  
     674A      5.404940   675A      5.436031   676A      5.450885  
     677A      5.464504   678A      5.476580   679A      5.499218  
     680A      5.513831   681A      5.556457   682A      5.570541  
     683A      5.604043   684A      5.612554   685A      5.629486  
     686A      5.642969   687A      5.659613   688A      5.690137  
     689A      5.698245   690A      5.712516   691A      5.767454  
     692A      5.775660   693A      5.794914   694A      5.818856  
     695A      5.833219   696A      5.852883   697A      5.862500  
     698A      5.901040   699A      5.911161   700A      5.959264  
     701A      5.967321   702A      6.009061   703A      6.076758  
     704A      6.105257   705A      6.118685   706A      6.158000  
     707A      6.181459   708A      6.201522   709A      6.211967  
     710A      6.230312   711A      6.265520   712A      6.267116  
     713A      6.290801   714A      6.310577   715A      6.349711  
     716A      6.389936   717A      6.397758   718A      6.427068  
     719A      6.459743   720A      6.513980   721A      6.544602  
     722A      6.682807   723A      6.705253   724A      6.738956  
     725A      6.750605   726A      6.796582   727A      6.815182  
     728A      6.832735   729A      6.857011   730A      6.906445  
     731A      6.912537   732A      6.963474   733A      7.002534  
     734A      7.013832   735A      7.039517   736A      7.064366  
     737A      7.107153   738A      7.274114   739A      7.283398  
     740A      7.308463   741A      7.396094   742A      7.486810  
     743A      7.528335   744A      7.687219   745A      7.722586  
     746A      7.785327   747A      7.958469   748A      8.099528  
     749A     15.668218   750A     16.187811   751A     16.429527  
     752A     16.943568   753A     17.846479   754A     18.894026  
     755A     19.108032   756A     19.714905   757A     20.044838  
     758A     20.484933   759A     21.807626  

    Final Occupation by Irrep:
              A 
    DOCC [    40 ]

  @DF-RHF Final Energy:  -476.70045987847612

   => Energetics <=

    Nuclear Repulsion Energy =            589.1072412019918829
    One-Electron Energy =               -1815.7423473423034466
    Two-Electron Energy =                 749.9346462618353826
    Total Energy =                       -476.7004598784761811

Computation Completed

*** tstop() called on node57.bme.utexas.edu at Tue Feb  2 11:44:11 2021
Module time:
	user time   =     473.41 seconds =       7.89 minutes
	system time =      68.48 seconds =       1.14 minutes
	total time  =        136 seconds =       2.27 minutes
Total time:
	user time   =     473.41 seconds =       7.89 minutes
	system time =      68.48 seconds =       1.14 minutes
	total time  =        136 seconds =       2.27 minutes
   => Loading Basis Set <=

    Name: (AUG-CC-PVTZ AUX)
    Role: RIFIT
    Keyword: DF_BASIS_MP2
    atoms 1     entry O          line   264 file /home/xy3866/psi4conda/share/psi4/basis/aug-cc-pvtz-ri.gbs 
    atoms 2     entry N          line   206 file /home/xy3866/psi4conda/share/psi4/basis/aug-cc-pvtz-ri.gbs 
    atoms 3-11  entry C          line   148 file /home/xy3866/psi4conda/share/psi4/basis/aug-cc-pvtz-ri.gbs 
    atoms 12-22 entry H          line    30 file /home/xy3866/psi4conda/share/psi4/basis/aug-cc-pvtz-ri.gbs 


*** tstart() called on node57.bme.utexas.edu
*** at Tue Feb  2 11:44:11 2021


  //>>>>>>>>>>>>>>>>>>>>>>>>>>>>>>>>>>>//
  //               DFMP2               //
  //<<<<<<<<<<<<<<<<<<<<<<<<<<<<<<<<<<<//

	 --------------------------------------------------------
	                          DF-MP2                         
	      2nd-Order Density-Fitted Moller-Plesset Theory     
	              RMP2 Wavefunction,   8 Threads             
	                                                         
	        Rob Parrish, Justin Turney, Andy Simmonett,      
	           Ed Hohenstein, and C. David Sherrill          
	 --------------------------------------------------------

   => Auxiliary Basis Set <=

  Basis Set: (AUG-CC-PVTZ AUX)
    Blend: AUG-CC-PVTZ-RI
    Number of shells: 462
    Number of basis function: 1672
    Number of Cartesian functions: 2101
    Spherical Harmonics?: true
    Max angular momentum: 4

	 --------------------------------------------------------
	                 NBF =   759, NAUX =  1672
	 --------------------------------------------------------
	   CLASS    FOCC     OCC    AOCC    AVIR     VIR    FVIR
	   PAIRS       0      40      40     719     719       0
	 --------------------------------------------------------

  DFHelper Memory: AOs need 6.738 GiB; user supplied 22.352 GiB. Using in-core AOs.


         ------------------------------------------------------------
                                     CPHF                           
                                  Rob Parrish                       
         ------------------------------------------------------------

  ==> Geometry <==

    Molecular point group: c1
    Full point group: C1

    Geometry (in Angstrom), charge = 0, multiplicity = 1:

       Center              X                  Y                   Z               Mass       
    ------------   -----------------  -----------------  -----------------  -----------------
         O            1.565082604043    -1.616792220343    -0.624959198677    15.994914619570
         N            1.036746104043     0.418514479657     0.256192701323    14.003074004430
         C           -0.367058395957     0.208134779657     0.115684801323    12.000000000000
         C           -0.937997395957    -0.974179220343     0.603453801323    12.000000000000
         C           -1.181733395957     1.187901779657    -0.464908198677    12.000000000000
         C            1.463145604043     1.785393779657     0.621289801323    12.000000000000
         C            1.929898604043    -0.516382220343    -0.209120198677    12.000000000000
         C           -2.314013395957    -1.169920220343     0.497175801323    12.000000000000
         C           -2.560420395957     0.988518779657    -0.551582198677    12.000000000000
         C           -3.131861395957    -0.190934220343    -0.072880198677    12.000000000000
         C            3.399513604043    -0.145428220343    -0.148505198677    12.000000000000
         H           -0.303682395957    -1.732080220343     1.048473801323     1.007825032230
         H           -0.740080395957     2.096958779657    -0.865231198677     1.007825032230
         H            2.384631604043     1.738905779657     1.202022801323     1.007825032230
         H            0.687624604043     2.224605779657     1.250032801323     1.007825032230
         H            1.626822604043     2.438880779657    -0.244499198677     1.007825032230
         H           -2.751087395957    -2.091193220343     0.874788801323     1.007825032230
         H           -3.185344395957     1.755116779657    -1.003599198677     1.007825032230
         H           -4.204944395957    -0.348199220343    -0.146214198677     1.007825032230
         H            3.736634604043    -0.019481220343     0.884968801323     1.007825032230
         H            3.614595604043     0.780040779657    -0.689723198677     1.007825032230
         H            3.952455604043    -0.966836220343    -0.603000198677     1.007825032230

  Nuclear repulsion =  589.107241201991883
  Reference energy  = -476.700459878476124

  ==> Basis Set <==

  Basis Set: AUG-CC-PVTZ
    Blend: AUG-CC-PVTZ
    Number of shells: 253
    Number of basis function: 759
    Number of Cartesian functions: 880
    Spherical Harmonics?: true
    Max angular momentum: 3

  ==> CGRSolver (by Rob Parrish) <==

   Number of roots    =         1
   Preconditioning    =    JACOBI
   Convergence cutoff =     1E-06
   Maximum iterations =       100

  ==> CPHFRHamiltonian (by Rob Parrish) <== 

  ==> MemDFJK: Density-Fitted J/K Matrices <==

    J tasked:                   Yes
    K tasked:                   Yes
    wK tasked:                   No
    OpenMP threads:               8
    Memory [MiB]:             22888
    Algorithm:                 Disk
    Schwarz Cutoff:           1E-12
    Mask sparsity (%):       7.2667
    Fitting Condition:        1E-10

   => Auxiliary Basis Set <=

  Basis Set: (AUG-CC-PVTZ AUX)
    Blend: AUG-CC-PVTZ-JKFIT
    Number of shells: 484
    Number of basis function: 1650
    Number of Cartesian functions: 2046
    Spherical Harmonics?: true
    Max angular momentum: 4

  ==> CPHF Iterations <==

  => Iterations <=

             Iter  Converged  Remaining    Residual
  CGR           1          0          1   1.102E-01
  CGR           2          0          1   3.279E-02
  CGR           3          0          1   1.328E-02
  CGR           4          0          1   4.324E-03
  CGR           5          0          1   1.682E-03
  CGR           6          0          1   9.008E-04
  CGR           7          0          1   4.256E-04
  CGR           8          0          1   1.750E-04
  CGR           9          0          1   5.529E-05
  CGR          10          0          1   1.551E-05
  CGR          11          0          1   5.440E-06
  CGR          12          0          1   1.819E-06
  CGR          13          0          1   1.003E-06
  CGR          14          1          0   4.266E-07

    CGRSolver converged.

	-----------------------------------------------------------
	 ==================> DF-MP2 Energies <==================== 
	-----------------------------------------------------------
	 Reference Energy          =    -476.7004598784761242 [Eh]
	 Singles Energy            =      -0.0000000000000000 [Eh]
	 Same-Spin Energy          =      -0.5114941820591954 [Eh]
	 Opposite-Spin Energy      =      -1.6153129767727155 [Eh]
	 Correlation Energy        =      -2.1268071588319106 [Eh]
	 Total Energy              =    -478.8272670373080473 [Eh]
	-----------------------------------------------------------
	 ================> DF-SCS-MP2 Energies <================== 
	-----------------------------------------------------------
	 SCS Same-Spin Scale       =       0.3333333333333333 [-]
	 SCS Opposite-Spin Scale   =       1.2000000000000000 [-]
	 SCS Same-Spin Energy      =      -0.1704980606863984 [Eh]
	 SCS Opposite-Spin Energy  =      -1.9383755721272584 [Eh]
	 SCS Correlation Energy    =      -2.1088736328136570 [Eh]
	 SCS Total Energy          =    -478.8093335112897648 [Eh]
	-----------------------------------------------------------



Properties will be evaluated at  -0.000000,  -0.000000,  -0.000000 [a0]

Properties computed using the MP2 density matrix

  Nuclear Dipole Moment: [e a0]
     X:     4.5209      Y:     5.5003      Z:     1.5975

  Electronic Dipole Moment: [e a0]
     X:    -4.2587      Y:    -4.1626      Z:    -1.0964

  Dipole Moment: [e a0]
     X:     0.2622      Y:     1.3377      Z:     0.5011     Total:     1.4523

  Dipole Moment: [D]
     X:     0.6664      Y:     3.4001      Z:     1.2736     Total:     3.6914


*** tstop() called on node57.bme.utexas.edu at Tue Feb  2 11:49:28 2021
Module time:
	user time   =    1595.12 seconds =      26.59 minutes
	system time =     159.66 seconds =       2.66 minutes
	total time  =        317 seconds =       5.28 minutes
Total time:
	user time   =    2068.72 seconds =      34.48 minutes
	system time =     228.14 seconds =       3.80 minutes
	total time  =        453 seconds =       7.55 minutes

    Psi4 stopped on: Tuesday, 02 February 2021 11:49AM
    Psi4 wall time for execution: 0:07:33.78

*** Psi4 exiting successfully. Buy a developer a beer!
