opt=Tight                                                               
Freq      RMP2-FC                                                     6-31G(d)            
Number of atoms                            I               12
Info1-9                                    I   N=           9
          21          21        1002           0           0         100
           6           2           1
Charge                                     I               -1
Multiplicity                               I                1
Number of electrons                        I               54
Number of alpha electrons                  I               27
Number of beta electrons                   I               27
Number of basis functions                  I              115
Number of independent functions            I              115
Number of point charges in /Mol/           I                0
Number of translation vectors              I                0
Atomic numbers                             I   N=          12
           8           8           8           6           6           6
           6           1           1           1           1           1
Nuclear charges                            R   N=          12
  8.00000000E+00  8.00000000E+00  8.00000000E+00  6.00000000E+00  6.00000000E+00
  6.00000000E+00  6.00000000E+00  1.00000000E+00  1.00000000E+00  1.00000000E+00
  1.00000000E+00  1.00000000E+00
Current cartesian coordinates              R   N=          36
 -7.53216734E-01  2.85949431E+00 -5.37757994E-01  4.16999146E+00  1.35102474E+00
  5.97365929E-01  2.84943011E+00 -2.62403121E+00 -4.56070045E-01 -2.27772261E+00
 -1.34561672E+00  2.16944966E-01 -4.93659029E+00 -2.53735441E-01  1.98735442E-01
 -2.32362778E-01  6.22884138E-01 -1.29049006E-01  2.55026612E+00 -2.99601452E-01
  2.50240021E-02 -2.02262205E+00 -2.76641812E+00 -1.26686633E+00 -1.88348773E+00
 -2.35201503E+00  1.98676233E+00 -5.33402955E+00  6.86592932E-01 -1.59576354E+00
 -6.33957777E+00 -1.74570959E+00  4.74557817E-01 -5.17146428E+00  1.14206404E+00
  1.70307418E+00
Force Field                                I                0
Int Atom Types                             I   N=          12
           0           0           0           0           0           0
           0           0           0           0           0           0
MM charges                                 R   N=          12
  0.00000000E+00  0.00000000E+00  0.00000000E+00  0.00000000E+00  0.00000000E+00
  0.00000000E+00  0.00000000E+00  0.00000000E+00  0.00000000E+00  0.00000000E+00
  0.00000000E+00  0.00000000E+00
Integer atomic weights                     I   N=          12
          16          16          16          12          12          12
          12           1           1           1           1           1
Real atomic weights                        R   N=          12
  1.59949146E+01  1.59949146E+01  1.59949146E+01  1.20000000E+01  1.20000000E+01
  1.20000000E+01  1.20000000E+01  1.00782504E+00  1.00782504E+00  1.00782504E+00
  1.00782504E+00  1.00782504E+00
Atom fragment info                         I   N=          12
           0           0           0           0           0           0
           0           0           0           0           0           0
Atom residue num                           I   N=          12
           0           0           0           0           0           0
           0           0           0           0           0           0
Nuclear spins                              I   N=          12
           0           0           0           0           0           0
           0           1           1           1           1           1
Nuclear ZEff                               R   N=          12
 -5.60000000E+00 -5.60000000E+00 -5.60000000E+00 -3.60000000E+00 -3.60000000E+00
 -3.60000000E+00 -3.60000000E+00 -1.00000000E+00 -1.00000000E+00 -1.00000000E+00
 -1.00000000E+00 -1.00000000E+00
Nuclear QMom                               R   N=          12
  0.00000000E+00  0.00000000E+00  0.00000000E+00  0.00000000E+00  0.00000000E+00
  0.00000000E+00  0.00000000E+00  0.00000000E+00  0.00000000E+00  0.00000000E+00
  0.00000000E+00  0.00000000E+00
Nuclear GFac                               R   N=          12
  0.00000000E+00  0.00000000E+00  0.00000000E+00  0.00000000E+00  0.00000000E+00
  0.00000000E+00  0.00000000E+00  2.79284600E+00  2.79284600E+00  2.79284600E+00
  2.79284600E+00  2.79284600E+00
MicOpt                                     I   N=          12
          -1          -1          -1          -1          -1          -1
          -1          -1          -1          -1          -1          -1
Number of contracted shells                I               38
Number of primitive shells                 I               97
Pure/Cartesian d shells                    I                1
Pure/Cartesian f shells                    I                0
Highest angular momentum                   I                2
Largest degree of contraction              I                6
Shell types                                I   N=          38
           0          -1          -1           2           0          -1
          -1           2           0          -1          -1           2
           0          -1          -1           2           0          -1
          -1           2           0          -1          -1           2
           0          -1          -1           2           0           0
           0           0           0           0           0           0
           0           0
Number of primitives per shell             I   N=          38
           6           3           1           1           6           3
           1           1           6           3           1           1
           6           3           1           1           6           3
           1           1           6           3           1           1
           6           3           1           1           3           1
           3           1           3           1           3           1
           3           1
Shell to atom map                          I   N=          38
           1           1           1           1           2           2
           2           2           3           3           3           3
           4           4           4           4           5           5
           5           5           6           6           6           6
           7           7           7           7           8           8
           9           9          10          10          11          11
          12          12
Primitive exponents                        R   N=          97
  5.48467166E+03  8.25234946E+02  1.88046958E+02  5.29645000E+01  1.68975704E+01
  5.79963534E+00  1.55396162E+01  3.59993359E+00  1.01376175E+00  2.70005823E-01
  8.00000000E-01  5.48467166E+03  8.25234946E+02  1.88046958E+02  5.29645000E+01
  1.68975704E+01  5.79963534E+00  1.55396162E+01  3.59993359E+00  1.01376175E+00
  2.70005823E-01  8.00000000E-01  5.48467166E+03  8.25234946E+02  1.88046958E+02
  5.29645000E+01  1.68975704E+01  5.79963534E+00  1.55396162E+01  3.59993359E+00
  1.01376175E+00  2.70005823E-01  8.00000000E-01  3.04752488E+03  4.57369518E+02
  1.03948685E+02  2.92101553E+01  9.28666296E+00  3.16392696E+00  7.86827235E+00
  1.88128854E+00  5.44249258E-01  1.68714478E-01  8.00000000E-01  3.04752488E+03
  4.57369518E+02  1.03948685E+02  2.92101553E+01  9.28666296E+00  3.16392696E+00
  7.86827235E+00  1.88128854E+00  5.44249258E-01  1.68714478E-01  8.00000000E-01
  3.04752488E+03  4.57369518E+02  1.03948685E+02  2.92101553E+01  9.28666296E+00
  3.16392696E+00  7.86827235E+00  1.88128854E+00  5.44249258E-01  1.68714478E-01
  8.00000000E-01  3.04752488E+03  4.57369518E+02  1.03948685E+02  2.92101553E+01
  9.28666296E+00  3.16392696E+00  7.86827235E+00  1.88128854E+00  5.44249258E-01
  1.68714478E-01  8.00000000E-01  1.87311370E+01  2.82539436E+00  6.40121692E-01
  1.61277759E-01  1.87311370E+01  2.82539436E+00  6.40121692E-01  1.61277759E-01
  1.87311370E+01  2.82539436E+00  6.40121692E-01  1.61277759E-01  1.87311370E+01
  2.82539436E+00  6.40121692E-01  1.61277759E-01  1.87311370E+01  2.82539436E+00
  6.40121692E-01  1.61277759E-01
Contraction coefficients                   R   N=          97
  1.83107443E-03  1.39501722E-02  6.84450781E-02  2.32714336E-01  4.70192898E-01
  3.58520853E-01 -1.10777550E-01 -1.48026263E-01  1.13076702E+00  1.00000000E+00
  1.00000000E+00  1.83107443E-03  1.39501722E-02  6.84450781E-02  2.32714336E-01
  4.70192898E-01  3.58520853E-01 -1.10777550E-01 -1.48026263E-01  1.13076702E+00
  1.00000000E+00  1.00000000E+00  1.83107443E-03  1.39501722E-02  6.84450781E-02
  2.32714336E-01  4.70192898E-01  3.58520853E-01 -1.10777550E-01 -1.48026263E-01
  1.13076702E+00  1.00000000E+00  1.00000000E+00  1.83473713E-03  1.40373228E-02
  6.88426223E-02  2.32184443E-01  4.67941348E-01  3.62311985E-01 -1.19332420E-01
 -1.60854152E-01  1.14345644E+00  1.00000000E+00  1.00000000E+00  1.83473713E-03
  1.40373228E-02  6.88426223E-02  2.32184443E-01  4.67941348E-01  3.62311985E-01
 -1.19332420E-01 -1.60854152E-01  1.14345644E+00  1.00000000E+00  1.00000000E+00
  1.83473713E-03  1.40373228E-02  6.88426223E-02  2.32184443E-01  4.67941348E-01
  3.62311985E-01 -1.19332420E-01 -1.60854152E-01  1.14345644E+00  1.00000000E+00
  1.00000000E+00  1.83473713E-03  1.40373228E-02  6.88426223E-02  2.32184443E-01
  4.67941348E-01  3.62311985E-01 -1.19332420E-01 -1.60854152E-01  1.14345644E+00
  1.00000000E+00  1.00000000E+00  3.34946043E-02  2.34726953E-01  8.13757326E-01
  1.00000000E+00  3.34946043E-02  2.34726953E-01  8.13757326E-01  1.00000000E+00
  3.34946043E-02  2.34726953E-01  8.13757326E-01  1.00000000E+00  3.34946043E-02
  2.34726953E-01  8.13757326E-01  1.00000000E+00  3.34946043E-02  2.34726953E-01
  8.13757326E-01  1.00000000E+00
P(S=P) Contraction coefficients            R   N=          97
  0.00000000E+00  0.00000000E+00  0.00000000E+00  0.00000000E+00  0.00000000E+00
  0.00000000E+00  7.08742682E-02  3.39752839E-01  7.27158577E-01  1.00000000E+00
  0.00000000E+00  0.00000000E+00  0.00000000E+00  0.00000000E+00  0.00000000E+00
  0.00000000E+00  0.00000000E+00  7.08742682E-02  3.39752839E-01  7.27158577E-01
  1.00000000E+00  0.00000000E+00  0.00000000E+00  0.00000000E+00  0.00000000E+00
  0.00000000E+00  0.00000000E+00  0.00000000E+00  7.08742682E-02  3.39752839E-01
  7.27158577E-01  1.00000000E+00  0.00000000E+00  0.00000000E+00  0.00000000E+00
  0.00000000E+00  0.00000000E+00  0.00000000E+00  0.00000000E+00  6.89990666E-02
  3.16423961E-01  7.44308291E-01  1.00000000E+00  0.00000000E+00  0.00000000E+00
  0.00000000E+00  0.00000000E+00  0.00000000E+00  0.00000000E+00  0.00000000E+00
  6.89990666E-02  3.16423961E-01  7.44308291E-01  1.00000000E+00  0.00000000E+00
  0.00000000E+00  0.00000000E+00  0.00000000E+00  0.00000000E+00  0.00000000E+00
  0.00000000E+00  6.89990666E-02  3.16423961E-01  7.44308291E-01  1.00000000E+00
  0.00000000E+00  0.00000000E+00  0.00000000E+00  0.00000000E+00  0.00000000E+00
  0.00000000E+00  0.00000000E+00  6.89990666E-02  3.16423961E-01  7.44308291E-01
  1.00000000E+00  0.00000000E+00  0.00000000E+00  0.00000000E+00  0.00000000E+00
  0.00000000E+00  0.00000000E+00  0.00000000E+00  0.00000000E+00  0.00000000E+00
  0.00000000E+00  0.00000000E+00  0.00000000E+00  0.00000000E+00  0.00000000E+00
  0.00000000E+00  0.00000000E+00  0.00000000E+00  0.00000000E+00  0.00000000E+00
  0.00000000E+00  0.00000000E+00
Coordinates of each shell                  R   N=         114
 -7.53216734E-01  2.85949431E+00 -5.37757994E-01 -7.53216734E-01  2.85949431E+00
 -5.37757994E-01 -7.53216734E-01  2.85949431E+00 -5.37757994E-01 -7.53216734E-01
  2.85949431E+00 -5.37757994E-01  4.16999146E+00  1.35102474E+00  5.97365929E-01
  4.16999146E+00  1.35102474E+00  5.97365929E-01  4.16999146E+00  1.35102474E+00
  5.97365929E-01  4.16999146E+00  1.35102474E+00  5.97365929E-01  2.84943011E+00
 -2.62403121E+00 -4.56070045E-01  2.84943011E+00 -2.62403121E+00 -4.56070045E-01
  2.84943011E+00 -2.62403121E+00 -4.56070045E-01  2.84943011E+00 -2.62403121E+00
 -4.56070045E-01 -2.27772261E+00 -1.34561672E+00  2.16944966E-01 -2.27772261E+00
 -1.34561672E+00  2.16944966E-01 -2.27772261E+00 -1.34561672E+00  2.16944966E-01
 -2.27772261E+00 -1.34561672E+00  2.16944966E-01 -4.93659029E+00 -2.53735441E-01
  1.98735442E-01 -4.93659029E+00 -2.53735441E-01  1.98735442E-01 -4.93659029E+00
 -2.53735441E-01  1.98735442E-01 -4.93659029E+00 -2.53735441E-01  1.98735442E-01
 -2.32362778E-01  6.22884138E-01 -1.29049006E-01 -2.32362778E-01  6.22884138E-01
 -1.29049006E-01 -2.32362778E-01  6.22884138E-01 -1.29049006E-01 -2.32362778E-01
  6.22884138E-01 -1.29049006E-01  2.55026612E+00 -2.99601452E-01  2.50240021E-02
  2.55026612E+00 -2.99601452E-01  2.50240021E-02  2.55026612E+00 -2.99601452E-01
  2.50240021E-02  2.55026612E+00 -2.99601452E-01  2.50240021E-02 -2.02262205E+00
 -2.76641812E+00 -1.26686633E+00 -2.02262205E+00 -2.76641812E+00 -1.26686633E+00
 -1.88348773E+00 -2.35201503E+00  1.98676233E+00 -1.88348773E+00 -2.35201503E+00
  1.98676233E+00 -5.33402955E+00  6.86592932E-01 -1.59576354E+00 -5.33402955E+00
  6.86592932E-01 -1.59576354E+00 -6.33957777E+00 -1.74570959E+00  4.74557817E-01
 -6.33957777E+00 -1.74570959E+00  4.74557817E-01 -5.17146428E+00  1.14206404E+00
  1.70307418E+00 -5.17146428E+00  1.14206404E+00  1.70307418E+00
Constraint Structure                       R   N=          36
 -7.53216734E-01  2.85949431E+00 -5.37757994E-01  4.16999146E+00  1.35102474E+00
  5.97365929E-01  2.84943011E+00 -2.62403121E+00 -4.56070045E-01 -2.27772261E+00
 -1.34561672E+00  2.16944966E-01 -4.93659029E+00 -2.53735441E-01  1.98735442E-01
 -2.32362778E-01  6.22884138E-01 -1.29049006E-01  2.55026612E+00 -2.99601452E-01
  2.50240021E-02 -2.02262205E+00 -2.76641812E+00 -1.26686633E+00 -1.88348773E+00
 -2.35201503E+00  1.98676233E+00 -5.33402955E+00  6.86592932E-01 -1.59576354E+00
 -6.33957777E+00 -1.74570959E+00  4.74557817E-01 -5.17146428E+00  1.14206404E+00
  1.70307418E+00
Num ILSW                                   I              100
ILSW                                       I   N=         100
           0           1           0           0           2           0
           0           0           0           0           0          -1
           0           0           0           0           0           0
           0           0           0           0           1           0
           1           0           0           0           0           0
           0           0      100000           0          -1           0
           0           0           0           0           0           0
           0           0           0           1           1           0
           0           0           1           0           0           0
           0           0           4          40           0           0
           0           0           0           0           0           0
           0           0           0           0           0           0
           0           0           0           0           0           0
           0           0           0           0           0           0
           0           0           0           0           0           0
           0           0           0           0           0           0
           0           0           0           0
Num RLSW                                   I               40
RLSW                                       R   N=          40
  1.00000000E+00  1.00000000E+00  1.00000000E+00  1.00000000E+00  1.00000000E+00
  0.00000000E+00  0.00000000E+00  1.00000000E+00  0.00000000E+00  0.00000000E+00
  0.00000000E+00  0.00000000E+00  1.00000000E+00  0.00000000E+00  0.00000000E+00
  0.00000000E+00  0.00000000E+00  1.00000000E+00  0.00000000E+00  0.00000000E+00
  0.00000000E+00  0.00000000E+00  1.00000000E+00  0.00000000E+00  0.00000000E+00
  0.00000000E+00  0.00000000E+00  1.00000000E+00  0.00000000E+00  0.00000000E+00
  0.00000000E+00  0.00000000E+00  0.00000000E+00  0.00000000E+00  0.00000000E+00
  0.00000000E+00  0.00000000E+00  0.00000000E+00  1.00000000E+00  1.00000000E+00
MxBond                                     I                4
NBond                                      I   N=          12
           1           1           1           4           4           3
           3           1           1           1           1           1
IBond                                      I   N=          48
           6           0           0           0           7           0
           0           0           7           0           0           0
           5           6           8           9           4          10
          11          12           1           4           7           0
           2           3           6           0           4           0
           0           0           4           0           0           0
           5           0           0           0           5           0
           0           0           5           0           0           0
RBond                                      R   N=          48
  2.00000000E+00  0.00000000E+00  0.00000000E+00  0.00000000E+00  2.00000000E+00
  0.00000000E+00  0.00000000E+00  0.00000000E+00  2.00000000E+00  0.00000000E+00
  0.00000000E+00  0.00000000E+00  1.00000000E+00  1.00000000E+00  1.00000000E+00
  1.00000000E+00  1.00000000E+00  1.00000000E+00  1.00000000E+00  1.00000000E+00
  2.00000000E+00  1.00000000E+00  1.00000000E+00  0.00000000E+00  2.00000000E+00
  2.00000000E+00  1.00000000E+00  0.00000000E+00  1.00000000E+00  0.00000000E+00
  0.00000000E+00  0.00000000E+00  1.00000000E+00  0.00000000E+00  0.00000000E+00
  0.00000000E+00  1.00000000E+00  0.00000000E+00  0.00000000E+00  0.00000000E+00
  1.00000000E+00  0.00000000E+00  0.00000000E+00  0.00000000E+00  1.00000000E+00
  0.00000000E+00  0.00000000E+00  0.00000000E+00
Virial Ratio                               R      2.002919967056005E+00
SCF Energy                                 R     -3.790998238714527E+02
MP2 Energy                                 R     -3.801456231042596E+02
Total Energy                               R     -3.801456231042596E+02
Post-SCF wavefunction norm                 R      1.627685842741667E+00
RMS Force                                  R      1.275817275554873E-05
RMS Density                                R      7.893227357403019E-10
External E-field                           R   N=          35
  0.00000000E+00  0.00000000E+00  0.00000000E+00  0.00000000E+00  0.00000000E+00
  0.00000000E+00  0.00000000E+00  0.00000000E+00  0.00000000E+00  0.00000000E+00
  0.00000000E+00  0.00000000E+00  0.00000000E+00  0.00000000E+00  0.00000000E+00
  0.00000000E+00  0.00000000E+00  0.00000000E+00  0.00000000E+00  0.00000000E+00
  0.00000000E+00  0.00000000E+00  0.00000000E+00  0.00000000E+00  0.00000000E+00
  0.00000000E+00  0.00000000E+00  0.00000000E+00  0.00000000E+00  0.00000000E+00
  0.00000000E+00  0.00000000E+00  0.00000000E+00  0.00000000E+00  0.00000000E+00
IOpCl                                      I                0
IROHF                                      I                0
Alpha Orbital Energies                     R   N=         115
 -2.05528589E+01 -2.04845208E+01 -2.04828833E+01 -1.13258530E+01 -1.13202391E+01
 -1.12235608E+01 -1.12119748E+01 -1.37529210E+00 -1.33878829E+00 -1.24863724E+00
 -1.04231492E+00 -9.04628487E-01 -8.00484338E-01 -6.87592173E-01 -6.38755574E-01
 -6.18594106E-01 -6.17547544E-01 -5.74085152E-01 -5.46453873E-01 -5.24809955E-01
 -5.05947673E-01 -4.98310626E-01 -4.72604739E-01 -4.60741578E-01 -3.93292530E-01
 -3.74884480E-01 -3.61010134E-01  1.34795778E-01  2.51314627E-01  2.84288652E-01
  3.07186436E-01  3.20988787E-01  3.29035393E-01  3.70969689E-01  4.12001425E-01
  4.44315402E-01  4.89898667E-01  5.11111727E-01  5.66601328E-01  6.24323392E-01
  7.47771528E-01  7.68440226E-01  7.95283578E-01  8.23286422E-01  8.63310032E-01
  8.71893060E-01  8.76954513E-01  9.24269363E-01  9.56232566E-01  9.93843130E-01
  1.00854037E+00  1.03186855E+00  1.08914072E+00  1.10871242E+00  1.12812325E+00
  1.15157837E+00  1.17002329E+00  1.18537876E+00  1.20574004E+00  1.22233523E+00
  1.24637132E+00  1.28113518E+00  1.30296895E+00  1.33084451E+00  1.35329054E+00
  1.37558118E+00  1.41964595E+00  1.45098222E+00  1.50129145E+00  1.64932462E+00
  1.69837576E+00  1.75091500E+00  1.79351460E+00  1.83191718E+00  1.87416306E+00
  1.94676068E+00  1.98993078E+00  2.02746468E+00  2.05258574E+00  2.10210348E+00
  2.14215192E+00  2.16680041E+00  2.20201653E+00  2.21899032E+00  2.23838386E+00
  2.26264490E+00  2.29040522E+00  2.30974063E+00  2.33762954E+00  2.38064746E+00
  2.44268412E+00  2.46192072E+00  2.58564579E+00  2.65806285E+00  2.66398739E+00
  2.67685970E+00  2.70596923E+00  2.81428492E+00  2.85524941E+00  2.94529322E+00
  3.00853848E+00  3.08803319E+00  3.13376879E+00  3.25566293E+00  3.32098489E+00
  3.32907794E+00  3.47582126E+00  3.57418598E+00  4.25256346E+00  4.42800229E+00
  4.52453347E+00  4.66227032E+00  4.77974374E+00  4.87654323E+00  5.02252655E+00
Alpha MO coefficients                      R   N=       13225
  9.94690208E-01  2.09114567E-02  3.03833448E-04 -1.34948894E-03  2.35937299E-04
  4.61824077E-03  1.23333604E-06  6.54763314E-06  4.79349182E-06 -3.88448241E-03
 -3.69910053E-03 -4.16677251E-03 -5.27466968E-05  1.30986649E-05 -1.05587274E-04
 -2.99602999E-05  6.24663080E-06 -3.80723499E-06  1.00090210E-05 -9.62284861E-07
 -4.72115790E-05  8.70961159E-06 -3.57238662E-06  1.72033098E-05  1.28696148E-05
  3.87643592E-06  1.35733733E-05 -2.63314635E-06 -5.37023428E-06 -7.18246221E-06
  1.28364459E-05  1.67966989E-05 -3.84290644E-06  8.71345785E-06  2.91239023E-07
 -1.75296591E-05  3.17132358E-05 -7.46391369E-06  1.32369900E-05 -9.88838548E-06
  1.42377383E-05  1.24096524E-05  2.01375965E-05  4.08913585E-06  5.01712767E-06
 -3.17312710E-06  3.67008227E-06 -7.09287956E-06 -2.65495351E-05  5.61273345E-06
 -7.49232108E-05 -1.91001060E-04 -1.58159908E-05  4.88478143E-06  2.11127888E-05
 -5.55506271E-05 -2.54768500E-05 -1.45127338E-05  2.03298331E-06  7.24650366E-06
  3.09298877E-06  2.16271077E-05  7.90345861E-06  1.70547117E-05 -2.52296851E-06
 -7.62525921E-05 -1.06781538E-04 -1.87322848E-05  8.35426449E-06 -3.44564082E-06
 -6.35187480E-06  1.96091016E-06  9.23475608E-06 -7.63936341E-08  9.90814103E-07
 -5.48028907E-06  4.50146631E-04  6.47088692E-06  8.76636830E-06 -1.37333159E-06
 -2.07137683E-04  8.18633101E-05 -6.60160006E-04  1.19202907E-04 -8.98418431E-05
 -6.37634935E-04 -6.67827804E-05  1.63522182E-04 -2.86658975E-05  1.24687436E-04
  2.10682740E-06  1.82895754E-05  2.10047347E-05 -1.07747300E-05  3.36585499E-06
 -1.23516271E-04  6.34534786E-05  4.35581578E-05 -2.02306503E-05  1.01915105E-05
 -2.72340038E-05 -9.47832012E-06  4.61526697E-05 -3.29822195E-06  3.11512798E-06
  5.99875289E-06 -2.03760774E-05  8.18094162E-06 -2.36182054E-05  2.61033145E-05
 -3.62096694E-05 -3.27991116E-06 -5.10166377E-05  2.40309994E-05 -2.84748265E-05
 -1.64901446E-05 -1.72402610E-05  4.31253982E-06 -1.07506195E-05  5.82081859E-06
  1.69417239E-04  4.75641047E-06 -5.95610688E-05  3.64924520E-06 -2.52366193E-05
  1.50740914E-05 -1.32153920E-05  6.13378122E-06 -4.39733000E-06 -6.79213051E-06
 -9.86178758E-03 -2.59205640E-04 -1.77536141E-05  2.68866167E-05  4.51132993E-06
  2.78884991E-04 -1.45543971E-04 -8.73754119E-05 -3.83880132E-05  1.25461146E-04
 -7.13194773E-05 -3.09800303E-05  4.79345956E-05  3.46950437E-05 -4.27661482E-06
  9.94644074E-01  2.09900019E-02 -1.59169003E-04  1.26775207E-03  2.60360909E-04
  4.17099675E-03  2.41122817E-05 -1.67548300E-04 -2.19821357E-05 -3.88204863E-03
 -3.78481637E-03 -4.02807212E-03 -2.95375134E-05  1.09405191E-05  6.41123070E-05
  3.27190390E-07  1.16226978E-05  2.18970207E-05 -8.35097523E-06  4.48829781E-06
  3.01961739E-05 -2.81457005E-04  1.40423875E-05 -2.04775329E-05 -5.08556579E-06
 -5.83383131E-06 -7.51871521E-06 -1.46633230E-05  4.27094601E-06  9.66788819E-07
  4.43366150E-06  2.37627431E-05 -7.58498958E-06  4.14449980E-06  2.13233262E-06
 -2.39059662E-04 -8.17302024E-05  5.12453781E-05 -6.07653773E-06 -1.08994170E-06
  2.19724574E-06  8.54796895E-06  6.01582087E-06  1.21368304E-06  8.56049303E-08
 -5.69087233E-06  6.89264346E-07 -2.42951301E-05  1.73005943E-05  3.21856684E-06
  2.28140890E-05 -3.78190496E-05 -1.91124794E-04  4.52064036E-05 -2.90011857E-05
 -5.64740076E-05 -2.13879844E-05  6.91265106E-05  4.62430215E-06  1.03754470E-06
 -8.19845620E-06  5.02636206E-04 -2.65717477E-07 -1.45984492E-04 -3.49316407E-05
 -4.30392459E-04 -1.76823108E-04  1.89826338E-04  7.20019483E-06 -5.82116356E-05
 -5.88783802E-04 -8.23277667E-05  2.21928332E-05  6.46004314E-06 -1.34929061E-04
  3.55088175E-05 -8.94301279E-05  2.58363412E-05 -6.43500717E-06  5.32179550E-06
  6.17869445E-06  9.74156719E-06  9.40963617E-06  6.14721946E-06  1.23997852E-05
  3.68856838E-05  7.02296060E-06  1.07041730E-05  6.38082971E-06  4.38217972E-07
 -8.06642859E-06 -6.67500955E-06  4.46310547E-06 -9.93239021E-06  9.32780693E-06
  4.12881507E-06  1.87677616E-05  3.55677549E-07 -3.81701498E-06  7.45814697E-06
  9.94645265E-01  2.09955826E-02 -8.94868863E-04 -9.23733257E-04 -3.16709560E-04
  4.17402741E-03  1.13601094E-04  8.35474436E-05  3.33099600E-05 -3.81201936E-03
 -3.82642258E-03 -4.02393541E-03  7.34405715E-05  5.13486418E-05  6.28767197E-05
  9.84061775E-03  1.57132681E-04 -3.22580647E-05  1.43459442E-05 -3.49080070E-06
  3.51357575E-04 -5.38849522E-05  1.42693341E-04  3.40739917E-05 -6.20350992E-05
 -3.42203380E-05 -1.15351655E-04 -1.21831566E-04 -2.12365573E-05  6.20641257E-06
  4.15170045E-06  1.90525611E-05  1.15040328E-05 -6.08064648E-07 -2.98626248E-06
 -1.39628675E-04 -1.49202256E-04 -1.11431874E-05  2.21399980E-05  2.42620227E-06
  1.39706170E-05  4.85536061E-06 -2.30287536E-06  1.61524690E-06 -3.28738609E-06
  2.41588727E-06  1.14276748E-05 -4.36552839E-08  7.50314023E-07  1.41941087E-06
 -8.94762328E-05 -3.96894243E-05  1.56720623E-05 -1.12409879E-05 -2.88063993E-07
  1.78420250E-06  5.38568161E-06  6.04161767E-07 -4.11386239E-07  2.06767722E-07
  5.60322458E-07  2.14762963E-05 -3.10271030E-05  1.12364696E-05 -5.46999429E-06
 -6.04485379E-06 -1.46934968E-04 -1.12375736E-04  1.03790181E-05 -6.22665585E-05
  1.70604112E-05 -1.41027531E-05 -2.13391285E-05 -1.42081095E-05  1.82202632E-06
 -8.17992077E-06  5.12400611E-04  7.17552715E-05  1.05433178E-04  3.14403165E-05
 -3.61377755E-04 -3.05022898E-04 -8.00803478E-06 -5.20291779E-05 -2.88855661E-04
 -3.85368955E-04 -9.20952848E-05 -3.18423074E-04 -1.03493250E-04 -1.26142479E-04
  1.90661469E-05  4.73193916E-06  1.06576208E-05  9.45595702E-06  2.30601958E-06
 -4.13192589E-06  4.28062952E-06 -4.74069913E-06  3.45227810E-06  6.74543149E-06
 -3.38254806E-05 -1.13233341E-04 -4.82448367E-05 -3.59085157E-07  1.97528214E-06
  8.68620521E-05 -2.65680989E-04 -1.18510801E-04  1.85492523E-05 -3.96283682E-05
  3.20447736E-05 -1.52129892E-04  3.34847358E-05 -6.79834973E-06 -4.41082357E-05
 -2.07114723E-04  5.22978281E-04 -6.64285520E-05 -1.99887177E-04 -5.64186824E-05
 -2.02679944E-03  5.58978268E-04  1.57777125E-03  4.23717408E-04  1.58930883E-05
 -6.14387663E-05  3.72069153E-04 -2.35412824E-04 -1.11967477E-04 -1.47269262E-04
 -1.96643609E-04  5.21806206E-04  5.46702132E-05  1.86550374E-04  6.65701695E-05
 -1.97693056E-03 -4.77257113E-04 -1.53306424E-03 -4.64997586E-04  1.94680176E-04
 -2.40419191E-04  3.86410850E-04  3.22129742E-05 -1.43791929E-05 -1.72313851E-04
  1.38152137E-05 -2.21426164E-04 -1.41732929E-04  1.71578168E-05  8.98759788E-06
  9.08671538E-04  1.18597083E-03  2.39027833E-04 -1.61519374E-04 -6.52223228E-05
  1.36124146E-06 -7.64601744E-05  6.15249615E-05 -5.95727971E-06 -2.06583208E-05
 -3.08860884E-05 -1.51346764E-04 -4.92237757E-06 -1.78271569E-05  1.19755178E-05
  9.33196931E-04  4.72336368E-04 -6.71987849E-05 -4.26626811E-05  9.15668222E-06
 -2.48047009E-05 -5.65636468E-05 -1.44545630E-05  3.43187410E-07 -6.91487897E-06
  4.59387084E-02  1.33590748E-03 -9.87737226E-05 -3.23225272E-05  1.16537987E-05
  3.21439854E-03  2.98038027E-03  1.05052267E-04 -2.57334453E-05 -6.50705917E-04
 -3.51669592E-04 -3.03340085E-04  1.03341532E-04 -2.16695165E-05 -1.04185824E-06
  9.94854092E-01  2.59379881E-02  1.26854793E-04 -1.10049099E-04  1.80375636E-05
 -6.51642240E-03  4.10292758E-03 -1.42286210E-03  2.62237714E-04 -1.32534639E-03
 -5.57578810E-04 -2.07762853E-03  3.84245944E-04  2.03867021E-04  4.79509743E-04
 -9.02434622E-05 -1.20019888E-04 -1.43965450E-04  1.28903659E-04 -4.26743593E-05
 -5.54349834E-05 -3.23877947E-05  1.06834106E-04 -3.45380667E-05 -2.60788736E-05
 -1.93095498E-04  9.16062197E-04  5.24419515E-05 -2.10308822E-04  5.24695879E-05
 -4.85675106E-03 -6.04289869E-04  2.21801515E-03 -4.77030144E-04  3.71756676E-04
 -7.93415900E-05  6.16382790E-04  1.41552761E-04 -2.52686238E-05  1.62654190E-04
 -5.15790608E-05 -3.63476401E-04  2.84504156E-05  1.28997565E-05  1.47394694E-05
  1.99527579E-03 -2.77792404E-04 -4.49793317E-04 -2.26502600E-04 -1.30490463E-04
 -1.44488865E-04 -2.29513459E-04  5.40250006E-05  2.91884162E-05  6.03484135E-05
  3.49841305E-05  6.03103285E-06  2.69232435E-05 -3.94761218E-05  3.92107401E-05
 -1.18762311E-03  1.69435176E-04 -4.67423060E-06 -1.78260039E-04  1.36443901E-04
  1.74364434E-04 -8.46506427E-05 -3.71486724E-05  3.63537996E-05  3.96690392E-05
  3.21031760E-03  2.21070137E-04  1.47116707E-05 -1.09704663E-04  1.47584439E-05
  3.90163270E-03  2.25317210E-03  1.14744688E-03 -2.22810876E-04 -2.65121543E-04
 -4.30125798E-04 -5.73392213E-05 -1.83008654E-04  3.04634571E-05  6.82472377E-05
 -4.74795356E-05 -9.05034016E-05 -5.57279705E-05 -7.61464287E-06  1.92062482E-06
  2.86354214E-04  1.57211744E-04 -3.07031322E-04  3.27488014E-05  6.54112052E-06
  4.31776327E-05 -5.05472962E-05 -1.77471324E-05 -2.07050143E-06 -1.33520508E-05
  9.94831531E-01  2.66556303E-02 -3.30368175E-04  7.51655086E-04 -1.77350357E-04