
    -----------------------------------------------------------------------
          Psi4: An Open-Source Ab Initio Electronic Structure Package
                               Psi4 1.3.2 release

                         Git: Rev {HEAD} ecbda83 


    R. M. Parrish, L. A. Burns, D. G. A. Smith, A. C. Simmonett,
    A. E. DePrince III, E. G. Hohenstein, U. Bozkaya, A. Yu. Sokolov,
    R. Di Remigio, R. M. Richard, J. F. Gonthier, A. M. James,
    H. R. McAlexander, A. Kumar, M. Saitow, X. Wang, B. P. Pritchard,
    P. Verma, H. F. Schaefer III, K. Patkowski, R. A. King, E. F. Valeev,
    F. A. Evangelista, J. M. Turney, T. D. Crawford, and C. D. Sherrill,
    J. Chem. Theory Comput. 13(7) pp 3185--3197 (2017).
    (doi: 10.1021/acs.jctc.7b00174)


                         Additional Contributions by
    P. Kraus, H. Kruse, M. H. Lechner, M. C. Schieber, R. A. Shaw,
    A. Alenaizan, R. Galvelis, Z. L. Glick, S. Lehtola, and J. P. Misiewicz

    -----------------------------------------------------------------------


    Psi4 started on: Monday, 02 November 2020 02:48PM

    Process ID: 46431
    Host:       node35.bme.utexas.edu
    PSIDATADIR: /home/xy3866/psi4conda/share/psi4
    Memory:     500.0 MiB
    Threads:    8
    
  ==> Input File <==

--------------------------------------------------------------------------
#psi4
#
memory 32 gb

molecule  {
0 1
 Cl        1.2258420     0.0000130    -0.0722650
  C       -0.5078580     0.0000110     0.4087150
  C       -1.1702870    -1.2589701    -0.1160192
  C       -1.1723440     1.2629730    -0.1036980
  H       -0.4954117     0.0085223     1.5010504
  H       -0.6755810    -2.1546730     0.2828190
  H       -2.2185910    -1.2788520     0.2166160
  H       -1.1404100    -1.2929320    -1.1952960
  H       -0.6756180     2.1546720     0.2826010
  H       -2.2185470     1.2788410     0.2165190
  H       -1.1404690     1.2927960    -1.1954080
units angstrom
no_reorient  #important for SAPT in psi4, default
symmetry c1  #important for SAPT in psi4, default
}

set PROPERTIES_ORIGIN ["COM"]
properties('MP2/aug-cc-pvtz', properties = ['dipole'])
--------------------------------------------------------------------------

  Memory set to  29.802 GiB by Python driver.
    SCF Algorithm Type (re)set to DF.

*** tstart() called on node35.bme.utexas.edu
*** at Mon Nov  2 14:48:29 2020

   => Loading Basis Set <=

    Name: AUG-CC-PVTZ
    Role: ORBITAL
    Keyword: BASIS
    atoms 1    entry CL         line   984 file /home/xy3866/psi4conda/share/psi4/basis/aug-cc-pvtz.gbs 
    atoms 2-4  entry C          line   235 file /home/xy3866/psi4conda/share/psi4/basis/aug-cc-pvtz.gbs 
    atoms 5-11 entry H          line    36 file /home/xy3866/psi4conda/share/psi4/basis/aug-cc-pvtz.gbs 


         ---------------------------------------------------------
                                   SCF
               by Justin Turney, Rob Parrish, Andy Simmonett
                          and Daniel G. A. Smith
                              RHF Reference
                        8 Threads,  30517 MiB Core
         ---------------------------------------------------------

  ==> Geometry <==

    Molecular point group: c1
    Full point group: C1

    Geometry (in Angstrom), charge = 0, multiplicity = 1:

       Center              X                  Y                   Z               Mass       
    ------------   -----------------  -----------------  -----------------  -----------------
         CL           1.225473212719    -0.000718332620    -0.070351515763    34.968852682000
         C           -0.508226787281    -0.000720332620     0.410628484237    12.000000000000
         C           -1.170655787281    -1.259701432620    -0.114105715763    12.000000000000
         C           -1.172712787281     1.262241667380    -0.101784515763    12.000000000000
         H           -0.495780487281     0.007790967380     1.502963884237     1.007825032230
         H           -0.675949787281    -2.155404332620     0.284732484237     1.007825032230
         H           -2.218959787281    -1.279583332620     0.218529484237     1.007825032230
         H           -1.140778787281    -1.293663332620    -1.193382515763     1.007825032230
         H           -0.675986787281     2.153940667380     0.284514484237     1.007825032230
         H           -2.218915787281     1.278109667380     0.218432484237     1.007825032230
         H           -1.140837787281     1.292064667380    -1.193494515763     1.007825032230

  Running in c1 symmetry.

  Rotational constants: A =      0.27176  B =      0.15302  C =      0.10772 [cm^-1]
  Rotational constants: A =   8147.04575  B =   4587.54423  C =   3229.21734 [MHz]
  Nuclear repulsion =  166.604375179594626

  Charge       = 0
  Multiplicity = 1
  Electrons    = 42
  Nalpha       = 21
  Nbeta        = 21

  ==> Algorithm <==

  SCF Algorithm Type is DF.
  DIIS enabled.
  MOM disabled.
  Fractional occupation disabled.
  Guess Type is SAD.
  Energy threshold   = 1.00e-10
  Density threshold  = 1.00e-10
  Integral threshold = 0.00e+00

  ==> Primary Basis <==

  Basis Set: AUG-CC-PVTZ
    Blend: AUG-CC-PVTZ
    Number of shells: 121
    Number of basis function: 349
    Number of Cartesian functions: 399
    Spherical Harmonics?: true
    Max angular momentum: 3

   => Loading Basis Set <=

    Name: (AUG-CC-PVTZ AUX)
    Role: JKFIT
    Keyword: DF_BASIS_SCF
    atoms 1    entry CL         line   816 file /home/xy3866/psi4conda/share/psi4/basis/aug-cc-pvtz-jkfit.gbs 
    atoms 2-4  entry C          line   162 file /home/xy3866/psi4conda/share/psi4/basis/aug-cc-pvtz-jkfit.gbs 
    atoms 5-11 entry H          line    70 file /home/xy3866/psi4conda/share/psi4/basis/aug-cc-pvtz-jkfit.gbs 

  ==> Pre-Iterations <==

   -------------------------------------------------------
    Irrep   Nso     Nmo     Nalpha   Nbeta   Ndocc  Nsocc
   -------------------------------------------------------
     A        349     349       0       0       0       0
   -------------------------------------------------------
    Total     349     349      21      21      21       0
   -------------------------------------------------------

  ==> Integral Setup <==

  DFHelper Memory: AOs need 0.742 GiB; user supplied 22.352 GiB. Using in-core AOs.

  ==> MemDFJK: Density-Fitted J/K Matrices <==

    J tasked:                   Yes
    K tasked:                   Yes
    wK tasked:                   No
    OpenMP threads:               8
    Memory [MiB]:             22888
    Algorithm:                 Core
    Schwarz Cutoff:           1E-12
    Mask sparsity (%):       0.2660
    Fitting Condition:        1E-10

   => Auxiliary Basis Set <=

  Basis Set: (AUG-CC-PVTZ AUX)
    Blend: AUG-CC-PVTZ-JKFIT
    Number of shells: 230
    Number of basis function: 780
    Number of Cartesian functions: 958
    Spherical Harmonics?: true
    Max angular momentum: 4

  Minimum eigenvalue in the overlap matrix is 1.5250243170E-05.
  Using Symmetric Orthogonalization.

  SCF Guess: Superposition of Atomic Densities via on-the-fly atomic UHF.

  ==> Iterations <==

                           Total Energy        Delta E     RMS |[F,P]|

   @DF-RHF iter SAD:  -576.82089640103527   -5.76821e+02   0.00000e+00 
   @DF-RHF iter   1:  -577.09790139995152   -2.77005e-01   1.43220e-03 DIIS
   @DF-RHF iter   2:  -577.22340792483590   -1.25507e-01   6.40387e-04 DIIS
   @DF-RHF iter   3:  -577.24858843753327   -2.51805e-02   1.33617e-04 DIIS
   @DF-RHF iter   4:  -577.25049359361378   -1.90516e-03   4.94854e-05 DIIS
   @DF-RHF iter   5:  -577.25068643310601   -1.92839e-04   8.32914e-06 DIIS
   @DF-RHF iter   6:  -577.25069392680984   -7.49370e-06   1.94676e-06 DIIS
   @DF-RHF iter   7:  -577.25069433026874   -4.03459e-07   4.15789e-07 DIIS
   @DF-RHF iter   8:  -577.25069435794478   -2.76760e-08   1.08213e-07 DIIS
   @DF-RHF iter   9:  -577.25069436003764   -2.09286e-09   3.15935e-08 DIIS
   @DF-RHF iter  10:  -577.25069436025478   -2.17142e-10   9.04032e-09 DIIS
   @DF-RHF iter  11:  -577.25069436027093   -1.61435e-11   2.84072e-09 DIIS
   @DF-RHF iter  12:  -577.25069436027354   -2.61480e-12   9.26266e-10 DIIS
   @DF-RHF iter  13:  -577.25069436027229    1.25056e-12   1.93441e-10 DIIS
   @DF-RHF iter  14:  -577.25069436027331   -1.02318e-12   6.65483e-11 DIIS
  Energy and wave function converged.


  ==> Post-Iterations <==

    Orbital Energies [Eh]
    ---------------------

    Doubly Occupied:                                                      

       1A   -104.815114     2A    -11.297843     3A    -11.230420  
       4A    -11.230030     5A    -10.539912     6A     -8.006676  
       7A     -8.004974     8A     -8.004968     9A     -1.147519  
      10A     -1.016335    11A     -0.951310    12A     -0.798274  
      13A     -0.649667    14A     -0.613887    15A     -0.589722  
      16A     -0.556177    17A     -0.519238    18A     -0.509389  
      19A     -0.490515    20A     -0.427457    21A     -0.427036  

    Virtual:                                                              

      22A      0.028840    23A      0.038971    24A      0.039202  
      25A      0.046447    26A      0.061591    27A      0.062065  
      28A      0.063491    29A      0.085595    30A      0.106950  
      31A      0.113830    32A      0.123684    33A      0.126092  
      34A      0.133738    35A      0.140153    36A      0.144017  
      37A      0.147892    38A      0.155872    39A      0.158469  
      40A      0.161487    41A      0.174431    42A      0.191043  
      43A      0.196245    44A      0.203167    45A      0.219821  
      46A      0.245081    47A      0.254125    48A      0.266147  
      49A      0.275985    50A      0.297423    51A      0.303875  
      52A      0.305444    53A      0.317119    54A      0.317521  
      55A      0.339638    56A      0.347231    57A      0.348613  
      58A      0.355560    59A      0.358618    60A      0.363653  
      61A      0.366992    62A      0.367320    63A      0.381997  
      64A      0.382145    65A      0.402576    66A      0.407341  
      67A      0.416174    68A      0.425315    69A      0.427165  
      70A      0.446038    71A      0.447533    72A      0.450048  
      73A      0.454754    74A      0.459417    75A      0.470022  
      76A      0.483143    77A      0.487354    78A      0.493387  
      79A      0.500551    80A      0.502427    81A      0.510380  
      82A      0.518186    83A      0.524007    84A      0.544126  
      85A      0.548961    86A      0.566658    87A      0.567199  
      88A      0.581101    89A      0.606462    90A      0.616514  
      91A      0.628045    92A      0.633454    93A      0.645577  
      94A      0.654428    95A      0.666284    96A      0.722222  
      97A      0.731434    98A      0.755126    99A      0.776062  
     100A      0.795972   101A      0.816968   102A      0.822012  
     103A      0.831276   104A      0.843259   105A      0.844412  
     106A      0.856234   107A      0.862967   108A      0.871624  
     109A      0.878438   110A      0.889282   111A      0.899575  
     112A      0.907812   113A      0.910029   114A      0.928962  
     115A      0.929918   116A      0.939032   117A      0.955229  
     118A      0.957103   119A      0.959436   120A      0.963389  
     121A      0.973198   122A      1.000732   123A      1.004142  
     124A      1.030552   125A      1.035435   126A      1.046567  
     127A      1.048161   128A      1.058425   129A      1.063729  
     130A      1.076575   131A      1.101669   132A      1.104347  
     133A      1.115069   134A      1.115693   135A      1.143784  
     136A      1.149833   137A      1.153521   138A      1.158203  
     139A      1.178354   140A      1.187807   141A      1.200923  
     142A      1.216434   143A      1.220896   144A      1.234407  
     145A      1.250252   146A      1.257681   147A      1.272015  
     148A      1.293059   149A      1.315898   150A      1.325825  
     151A      1.332020   152A      1.350926   153A      1.358399  
     154A      1.395369   155A      1.404913   156A      1.427233  
     157A      1.433982   158A      1.453318   159A      1.474515  
     160A      1.483051   161A      1.491805   162A      1.513087  
     163A      1.521824   164A      1.544653   165A      1.550702  
     166A      1.583181   167A      1.607239   168A      1.627364  
     169A      1.633193   170A      1.663811   171A      1.676406  
     172A      1.682263   173A      1.689508   174A      1.691809  
     175A      1.701059   176A      1.703249   177A      1.712042  
     178A      1.723117   179A      1.724852   180A      1.747027  
     181A      1.781575   182A      1.786778   183A      1.808200  
     184A      1.813072   185A      1.827692   186A      1.838663  
     187A      1.856340   188A      1.872635   189A      1.895873  
     190A      1.901269   191A      1.917229   192A      1.940903  
     193A      1.955002   194A      1.982028   195A      1.991197  
     196A      2.026349   197A      2.036313   198A      2.042531  
     199A      2.057396   200A      2.087126   201A      2.096989  
     202A      2.127234   203A      2.159809   204A      2.170320  
     205A      2.201436   206A      2.203049   207A      2.229986  
     208A      2.232937   209A      2.245425   210A      2.265500  
     211A      2.273268   212A      2.332931   213A      2.358713  
     214A      2.401699   215A      2.429532   216A      2.449473  
     217A      2.476248   218A      2.497381   219A      2.518162  
     220A      2.641359   221A      2.720664   222A      2.725706  
     223A      2.772087   224A      2.800218   225A      2.841633  
     226A      2.886816   227A      2.998305   228A      3.076255  
     229A      3.147519   230A      3.162079   231A      3.177695  
     232A      3.189816   233A      3.218126   234A      3.247230  
     235A      3.279899   236A      3.315328   237A      3.328795  
     238A      3.352739   239A      3.361352   240A      3.383948  
     241A      3.431895   242A      3.454737   243A      3.464498  
     244A      3.483860   245A      3.488777   246A      3.582975  
     247A      3.603737   248A      3.616203   249A      3.633389  
     250A      3.645331   251A      3.647983   252A      3.672543  
     253A      3.678539   254A      3.684944   255A      3.703264  
     256A      3.718914   257A      3.746263   258A      3.796496  
     259A      3.830928   260A      3.839080   261A      3.842459  
     262A      3.852821   263A      3.907138   264A      3.928883  
     265A      3.939872   266A      3.947965   267A      3.962908  
     268A      3.988155   269A      3.988734   270A      4.012530  
     271A      4.024858   272A      4.047733   273A      4.102944  
     274A      4.125373   275A      4.164915   276A      4.185598  
     277A      4.190014   278A      4.215863   279A      4.222167  
     280A      4.248820   281A      4.260152   282A      4.269320  
     283A      4.305457   284A      4.320964   285A      4.354634  
     286A      4.446020   287A      4.468493   288A      4.489145  
     289A      4.560038   290A      4.599594   291A      4.612660  
     292A      4.649989   293A      4.653859   294A      4.677973  
     295A      4.737794   296A      4.751349   297A      4.804898  
     298A      4.820933   299A      4.836564   300A      4.860026  
     301A      4.877417   302A      4.902580   303A      4.906690  
     304A      4.909070   305A      4.993580   306A      5.015974  
     307A      5.019384   308A      5.048926   309A      5.119889  
     310A      5.133001   311A      5.139499   312A      5.195932  
     313A      5.230621   314A      5.237491   315A      5.243704  
     316A      5.333854   317A      5.352663   318A      5.354522  
     319A      5.393713   320A      5.424991   321A      5.428465  
     322A      5.446358   323A      5.468362   324A      5.505862  
     325A      5.625569   326A      5.636649   327A      5.679901  
     328A      5.751586   329A      5.755341   330A      5.799642  
     331A      5.846254   332A      5.896894   333A      6.029442  
     334A      6.055008   335A      6.106899   336A      6.137225  
     337A      6.180730   338A      6.192691   339A      6.279952  
     340A      6.312004   341A      6.514031   342A      6.758445  
     343A      6.761900   344A      6.810820   345A      6.833583  
     346A      8.180264   347A     16.778326   348A     17.799001  
     349A     18.579866  

    Final Occupation by Irrep:
              A 
    DOCC [    21 ]

  @DF-RHF Final Energy:  -577.25069436027331

   => Energetics <=

    Nuclear Repulsion Energy =            166.6043751795946264
    One-Electron Energy =               -1124.0572112926877253
    Two-Electron Energy =                 380.2021417528198413
    Total Energy =                       -577.2506943602732008

Computation Completed

*** tstop() called on node35.bme.utexas.edu at Mon Nov  2 14:48:40 2020
Module time:
	user time   =      62.93 seconds =       1.05 minutes
	system time =       6.06 seconds =       0.10 minutes
	total time  =         11 seconds =       0.18 minutes
Total time:
	user time   =      62.93 seconds =       1.05 minutes
	system time =       6.06 seconds =       0.10 minutes
	total time  =         11 seconds =       0.18 minutes
   => Loading Basis Set <=

    Name: (AUG-CC-PVTZ AUX)
    Role: RIFIT
    Keyword: DF_BASIS_MP2
    atoms 1    entry CL         line   742 file /home/xy3866/psi4conda/share/psi4/basis/aug-cc-pvtz-ri.gbs 
    atoms 2-4  entry C          line   148 file /home/xy3866/psi4conda/share/psi4/basis/aug-cc-pvtz-ri.gbs 
    atoms 5-11 entry H          line    30 file /home/xy3866/psi4conda/share/psi4/basis/aug-cc-pvtz-ri.gbs 


*** tstart() called on node35.bme.utexas.edu
*** at Mon Nov  2 14:48:40 2020


  //>>>>>>>>>>>>>>>>>>>>>>>>>>>>>>>>>>>//
  //               DFMP2               //
  //<<<<<<<<<<<<<<<<<<<<<<<<<<<<<<<<<<<//

	 --------------------------------------------------------
	                          DF-MP2                         
	      2nd-Order Density-Fitted Moller-Plesset Theory     
	              RMP2 Wavefunction,   8 Threads             
	                                                         
	        Rob Parrish, Justin Turney, Andy Simmonett,      
	           Ed Hohenstein, and C. David Sherrill          
	 --------------------------------------------------------

   => Auxiliary Basis Set <=

  Basis Set: (AUG-CC-PVTZ AUX)
    Blend: AUG-CC-PVTZ-RI
    Number of shells: 219
    Number of basis function: 787
    Number of Cartesian functions: 984
    Spherical Harmonics?: true
    Max angular momentum: 4

	 --------------------------------------------------------
	                 NBF =   349, NAUX =   787
	 --------------------------------------------------------
	   CLASS    FOCC     OCC    AOCC    AVIR     VIR    FVIR
	   PAIRS       0      21      21     328     328       0
	 --------------------------------------------------------

  DFHelper Memory: AOs need 0.742 GiB; user supplied 22.352 GiB. Using in-core AOs.


         ------------------------------------------------------------
                                     CPHF                           
                                  Rob Parrish                       
         ------------------------------------------------------------

  ==> Geometry <==

    Molecular point group: c1
    Full point group: C1

    Geometry (in Angstrom), charge = 0, multiplicity = 1:

       Center              X                  Y                   Z               Mass       
    ------------   -----------------  -----------------  -----------------  -----------------
         CL           1.225473212719    -0.000718332620    -0.070351515763    34.968852682000
         C           -0.508226787281    -0.000720332620     0.410628484237    12.000000000000
         C           -1.170655787281    -1.259701432620    -0.114105715763    12.000000000000
         C           -1.172712787281     1.262241667380    -0.101784515763    12.000000000000
         H           -0.495780487281     0.007790967380     1.502963884237     1.007825032230
         H           -0.675949787281    -2.155404332620     0.284732484237     1.007825032230
         H           -2.218959787281    -1.279583332620     0.218529484237     1.007825032230
         H           -1.140778787281    -1.293663332620    -1.193382515763     1.007825032230
         H           -0.675986787281     2.153940667380     0.284514484237     1.007825032230
         H           -2.218915787281     1.278109667380     0.218432484237     1.007825032230
         H           -1.140837787281     1.292064667380    -1.193494515763     1.007825032230

  Nuclear repulsion =  166.604375179594626
  Reference energy  = -577.250694360273314

  ==> Basis Set <==

  Basis Set: AUG-CC-PVTZ
    Blend: AUG-CC-PVTZ
    Number of shells: 121
    Number of basis function: 349
    Number of Cartesian functions: 399
    Spherical Harmonics?: true
    Max angular momentum: 3

  ==> CGRSolver (by Rob Parrish) <==

   Number of roots    =         1
   Preconditioning    =    JACOBI
   Convergence cutoff =     1E-06
   Maximum iterations =       100

  ==> CPHFRHamiltonian (by Rob Parrish) <== 

  ==> MemDFJK: Density-Fitted J/K Matrices <==

    J tasked:                   Yes
    K tasked:                   Yes
    wK tasked:                   No
    OpenMP threads:               8
    Memory [MiB]:             22888
    Algorithm:                 Core
    Schwarz Cutoff:           1E-12
    Mask sparsity (%):       0.2660
    Fitting Condition:        1E-10

   => Auxiliary Basis Set <=

  Basis Set: (AUG-CC-PVTZ AUX)
    Blend: AUG-CC-PVTZ-JKFIT
    Number of shells: 230
    Number of basis function: 780
    Number of Cartesian functions: 958
    Spherical Harmonics?: true
    Max angular momentum: 4

  ==> CPHF Iterations <==

  => Iterations <=

             Iter  Converged  Remaining    Residual
  CGR           1          0          1   9.167E-02
  CGR           2          0          1   1.487E-02
  CGR           3          0          1   4.573E-03
  CGR           4          0          1   9.464E-04
  CGR           5          0          1   2.337E-04
  CGR           6          0          1   7.991E-05
  CGR           7          0          1   2.529E-05
  CGR           8          0          1   5.651E-06
  CGR           9          0          1   1.267E-06
  CGR          10          1          0   2.994E-07

    CGRSolver converged.

	-----------------------------------------------------------
	 ==================> DF-MP2 Energies <==================== 
	-----------------------------------------------------------
	 Reference Energy          =    -577.2506943602733145 [Eh]
	 Singles Energy            =      -0.0000000000000000 [Eh]
	 Same-Spin Energy          =      -0.1863500358004480 [Eh]
	 Opposite-Spin Energy      =      -0.6449016717381409 [Eh]
	 Correlation Energy        =      -0.8312517075385890 [Eh]
	 Total Energy              =    -578.0819460678119412 [Eh]
	-----------------------------------------------------------
	 ================> DF-SCS-MP2 Energies <================== 
	-----------------------------------------------------------
	 SCS Same-Spin Scale       =       0.3333333333333333 [-]
	 SCS Opposite-Spin Scale   =       1.2000000000000000 [-]
	 SCS Same-Spin Energy      =      -0.0621166786001493 [Eh]
	 SCS Opposite-Spin Energy  =      -0.7738820060857691 [Eh]
	 SCS Correlation Energy    =      -0.8359986846859184 [Eh]
	 SCS Total Energy          =    -578.0866930449592473 [Eh]
	-----------------------------------------------------------



Properties will be evaluated at   0.000000,   0.000000,  -0.000000 [a0]

Properties computed using the MP2 density matrix

  Nuclear Dipole Moment: [e a0]
     X:    -9.1533      Y:     0.0037      Z:     0.1791

  Electronic Dipole Moment: [e a0]
     X:     8.3305      Y:    -0.0038      Z:     0.0049

  Dipole Moment: [e a0]
     X:    -0.8228      Y:    -0.0001      Z:     0.1840     Total:     0.8431

  Dipole Moment: [D]
     X:    -2.0913      Y:    -0.0002      Z:     0.4676     Total:     2.1429


*** tstop() called on node35.bme.utexas.edu at Mon Nov  2 14:49:08 2020
Module time:
	user time   =     166.22 seconds =       2.77 minutes
	system time =      12.66 seconds =       0.21 minutes
	total time  =         28 seconds =       0.47 minutes
Total time:
	user time   =     229.80 seconds =       3.83 minutes
	system time =      18.77 seconds =       0.31 minutes
	total time  =         39 seconds =       0.65 minutes

    Psi4 stopped on: Monday, 02 November 2020 02:49PM
    Psi4 wall time for execution: 0:00:38.82

*** Psi4 exiting successfully. Buy a developer a beer!
