21584879                                                                
Freq      RMP2-FC                                                     6-31G(d)            
Number of atoms                            I               12
Info1-9                                    I   N=           9
          24          22        1002           0           0         100
           6           2           1
Charge                                     I                0
Multiplicity                               I                1
Number of electrons                        I              114
Number of alpha electrons                  I               57
Number of beta electrons                   I               57
Number of basis functions                  I              158
Number of independent functions            I              158
Number of point charges in /Mol/           I                0
Number of translation vectors              I                0
Atomic numbers                             I   N=          12
          35          35           8           8           6           6
           6           6           1           1           1           1
Nuclear charges                            R   N=          12
  3.50000000E+01  3.50000000E+01  8.00000000E+00  8.00000000E+00  6.00000000E+00
  6.00000000E+00  6.00000000E+00  6.00000000E+00  1.00000000E+00  1.00000000E+00
  1.00000000E+00  1.00000000E+00
Current cartesian coordinates              R   N=          36
 -6.74893356E+00  4.44960797E-01 -5.80608646E-06  6.74893220E+00 -4.44964173E-01
 -5.75627906E-06 -3.22461524E+00 -3.50664552E+00  1.95820066E-06  3.22462085E+00
  3.50665044E+00  1.70354112E-06 -1.28179319E+00  6.55247663E-01  1.92603138E-05
  1.28179297E+00 -6.55240939E-01  1.83931122E-05 -3.39312342E+00 -1.24796090E+00
  3.70339390E-06  3.39312462E+00  1.24796557E+00  3.98103575E-06 -1.52188821E+00
  1.88013162E+00 -1.65058383E+00 -1.52189756E+00  1.88010957E+00  1.65063766E+00
  1.52188592E+00 -1.88012464E+00 -1.65058526E+00  1.52189671E+00 -1.88010603E+00
  1.65063479E+00
Force Field                                I                0
Int Atom Types                             I   N=          12
           0           0           0           0           0           0
           0           0           0           0           0           0
MM charges                                 R   N=          12
  0.00000000E+00  0.00000000E+00  0.00000000E+00  0.00000000E+00  0.00000000E+00
  0.00000000E+00  0.00000000E+00  0.00000000E+00  0.00000000E+00  0.00000000E+00
  0.00000000E+00  0.00000000E+00
Integer atomic weights                     I   N=          12
          79          79          16          16          12          12
          12          12           1           1           1           1
Real atomic weights                        R   N=          12
  7.89183361E+01  7.89183361E+01  1.59949146E+01  1.59949146E+01  1.20000000E+01
  1.20000000E+01  1.20000000E+01  1.20000000E+01  1.00782504E+00  1.00782504E+00
  1.00782504E+00  1.00782504E+00
Atom fragment info                         I   N=          12
           0           0           0           0           0           0
           0           0           0           0           0           0
Atom residue num                           I   N=          12
           0           0           0           0           0           0
           0           0           0           0           0           0
Nuclear spins                              I   N=          12
           3           3           0           0           0           0
           0           0           1           1           1           1
Nuclear ZEff                               R   N=          12
 -2.45000000E+01 -2.45000000E+01 -5.60000000E+00 -5.60000000E+00 -3.60000000E+00
 -3.60000000E+00 -3.60000000E+00 -3.60000000E+00 -1.00000000E+00 -1.00000000E+00
 -1.00000000E+00 -1.00000000E+00
Nuclear QMom                               R   N=          12
  3.13000000E+01  3.13000000E+01  0.00000000E+00  0.00000000E+00  0.00000000E+00
  0.00000000E+00  0.00000000E+00  0.00000000E+00  0.00000000E+00  0.00000000E+00
  0.00000000E+00  0.00000000E+00
Nuclear GFac                               R   N=          12
  2.10639900E+00  2.10639900E+00  0.00000000E+00  0.00000000E+00  0.00000000E+00
  0.00000000E+00  0.00000000E+00  0.00000000E+00  2.79284600E+00  2.79284600E+00
  2.79284600E+00  2.79284600E+00
MicOpt                                     I   N=          12
          -1          -1          -1          -1          -1          -1
          -1          -1          -1          -1          -1          -1
Number of contracted shells                I               56
Number of primitive shells                 I              144
Pure/Cartesian d shells                    I                1
Pure/Cartesian f shells                    I                0
Highest angular momentum                   I                2
Largest degree of contraction              I                8
Shell types                                I   N=          56
           0           0           0           0           0           0
           1           1           1           1           2           2
           0           0           0           0           0           0
           1           1           1           1           2           2
           0          -1          -1           2           0          -1
          -1           2           0          -1          -1           2
           0          -1          -1           2           0          -1
          -1           2           0          -1          -1           2
           0           0           0           0           0           0
           0           0
Number of primitives per shell             I   N=          56
           8           2           1           1           1           1
           6           3           1           1           5           1
           8           2           1           1           1           1
           6           3           1           1           5           1
           6           3           1           1           6           3
           1           1           6           3           1           1
           6           3           1           1           6           3
           1           1           6           3           1           1
           3           1           3           1           3           1
           3           1
Shell to atom map                          I   N=          56
           1           1           1           1           1           1
           1           1           1           1           1           1
           2           2           2           2           2           2
           2           2           2           2           2           2
           3           3           3           3           4           4
           4           4           5           5           5           5
           6           6           6           6           7           7
           7           7           8           8           8           8
           9           9          10          10          11          11
          12          12
Primitive exponents                        R   N=         144
  5.74300000E+05  8.90700000E+04  2.02100000E+04  5.73600000E+03  1.89900000E+03
  6.98700000E+02  2.77800000E+02  1.15200000E+02  3.59700000E+01  1.55000000E+01
  4.77100000E+00  2.07700000E+00  4.21100000E-01  1.61000000E-01  4.40600000E+03
  1.04200000E+03  3.32100000E+02  1.21900000E+02  4.92400000E+01  2.11600000E+01
  8.83600000E+00  3.82900000E+00  1.64300000E+00  4.65000000E-01  1.42700000E-01
  1.08400000E+02  3.07100000E+01  1.06600000E+01  3.85100000E+00  1.31700000E+00
  3.38000000E-01  5.74300000E+05  8.90700000E+04  2.02100000E+04  5.73600000E+03
  1.89900000E+03  6.98700000E+02  2.77800000E+02  1.15200000E+02  3.59700000E+01
  1.55000000E+01  4.77100000E+00  2.07700000E+00  4.21100000E-01  1.61000000E-01
  4.40600000E+03  1.04200000E+03  3.32100000E+02  1.21900000E+02  4.92400000E+01
  2.11600000E+01  8.83600000E+00  3.82900000E+00  1.64300000E+00  4.65000000E-01
  1.42700000E-01  1.08400000E+02  3.07100000E+01  1.06600000E+01  3.85100000E+00
  1.31700000E+00  3.38000000E-01  5.48467166E+03  8.25234946E+02  1.88046958E+02
  5.29645000E+01  1.68975704E+01  5.79963534E+00  1.55396162E+01  3.59993359E+00
  1.01376175E+00  2.70005823E-01  8.00000000E-01  5.48467166E+03  8.25234946E+02
  1.88046958E+02  5.29645000E+01  1.68975704E+01  5.79963534E+00  1.55396162E+01
  3.59993359E+00  1.01376175E+00  2.70005823E-01  8.00000000E-01  3.04752488E+03
  4.57369518E+02  1.03948685E+02  2.92101553E+01  9.28666296E+00  3.16392696E+00
  7.86827235E+00  1.88128854E+00  5.44249258E-01  1.68714478E-01  8.00000000E-01
  3.04752488E+03  4.57369518E+02  1.03948685E+02  2.92101553E+01  9.28666296E+00
  3.16392696E+00  7.86827235E+00  1.88128854E+00  5.44249258E-01  1.68714478E-01
  8.00000000E-01  3.04752488E+03  4.57369518E+02  1.03948685E+02  2.92101553E+01
  9.28666296E+00  3.16392696E+00  7.86827235E+00  1.88128854E+00  5.44249258E-01
  1.68714478E-01  8.00000000E-01  3.04752488E+03  4.57369518E+02  1.03948685E+02
  2.92101553E+01  9.28666296E+00  3.16392696E+00  7.86827235E+00  1.88128854E+00
  5.44249258E-01  1.68714478E-01  8.00000000E-01  1.87311370E+01  2.82539436E+00
  6.40121692E-01  1.61277759E-01  1.87311370E+01  2.82539436E+00  6.40121692E-01
  1.61277759E-01  1.87311370E+01  2.82539436E+00  6.40121692E-01  1.61277759E-01
  1.87311370E+01  2.82539436E+00  6.40121692E-01  1.61277759E-01
Contraction coefficients                   R   N=         144
  2.10682753E-04  1.61271721E-03  8.36010959E-03  3.40275588E-02  1.08515001E-01
  2.67396944E-01  4.29567221E-01  2.86993117E-01  2.77772914E-01  7.47057636E-01
  1.00000000E+00  1.00000000E+00  1.00000000E+00  1.00000000E+00  1.39552623E-03
  1.23748283E-02  6.10175241E-02  2.26775547E-01  4.05975875E-01  4.50692322E-01
  2.92018585E-01  5.30220862E-01  2.75287404E-01  1.00000000E+00  1.00000000E+00
  2.15879371E-02  1.34176036E-01  3.67870647E-01  4.91895206E-01  2.68321979E-01
  1.00000000E+00  2.10682753E-04  1.61271721E-03  8.36010959E-03  3.40275588E-02
  1.08515001E-01  2.67396944E-01  4.29567221E-01  2.86993117E-01  2.77772914E-01
  7.47057636E-01  1.00000000E+00  1.00000000E+00  1.00000000E+00  1.00000000E+00
  1.39552623E-03  1.23748283E-02  6.10175241E-02  2.26775547E-01  4.05975875E-01
  4.50692322E-01  2.92018585E-01  5.30220862E-01  2.75287404E-01  1.00000000E+00
  1.00000000E+00  2.15879371E-02  1.34176036E-01  3.67870647E-01  4.91895206E-01
  2.68321979E-01  1.00000000E+00  1.83107443E-03  1.39501722E-02  6.84450781E-02
  2.32714336E-01  4.70192898E-01  3.58520853E-01 -1.10777550E-01 -1.48026263E-01
  1.13076702E+00  1.00000000E+00  1.00000000E+00  1.83107443E-03  1.39501722E-02
  6.84450781E-02  2.32714336E-01  4.70192898E-01  3.58520853E-01 -1.10777550E-01
 -1.48026263E-01  1.13076702E+00  1.00000000E+00  1.00000000E+00  1.83473713E-03
  1.40373228E-02  6.88426223E-02  2.32184443E-01  4.67941348E-01  3.62311985E-01
 -1.19332420E-01 -1.60854152E-01  1.14345644E+00  1.00000000E+00  1.00000000E+00
  1.83473713E-03  1.40373228E-02  6.88426223E-02  2.32184443E-01  4.67941348E-01
  3.62311985E-01 -1.19332420E-01 -1.60854152E-01  1.14345644E+00  1.00000000E+00
  1.00000000E+00  1.83473713E-03  1.40373228E-02  6.88426223E-02  2.32184443E-01
  4.67941348E-01  3.62311985E-01 -1.19332420E-01 -1.60854152E-01  1.14345644E+00
  1.00000000E+00  1.00000000E+00  1.83473713E-03  1.40373228E-02  6.88426223E-02
  2.32184443E-01  4.67941348E-01  3.62311985E-01 -1.19332420E-01 -1.60854152E-01
  1.14345644E+00  1.00000000E+00  1.00000000E+00  3.34946043E-02  2.34726953E-01
  8.13757326E-01  1.00000000E+00  3.34946043E-02  2.34726953E-01  8.13757326E-01
  1.00000000E+00  3.34946043E-02  2.34726953E-01  8.13757326E-01  1.00000000E+00
  3.34946043E-02  2.34726953E-01  8.13757326E-01  1.00000000E+00
P(S=P) Contraction coefficients            R   N=         144
  0.00000000E+00  0.00000000E+00  0.00000000E+00  0.00000000E+00  0.00000000E+00
  0.00000000E+00  0.00000000E+00  0.00000000E+00  0.00000000E+00  0.00000000E+00
  0.00000000E+00  0.00000000E+00  0.00000000E+00  0.00000000E+00  0.00000000E+00
  0.00000000E+00  0.00000000E+00  0.00000000E+00  0.00000000E+00  0.00000000E+00
  0.00000000E+00  0.00000000E+00  0.00000000E+00  0.00000000E+00  0.00000000E+00
  0.00000000E+00  0.00000000E+00  0.00000000E+00  0.00000000E+00  0.00000000E+00
  0.00000000E+00  0.00000000E+00  0.00000000E+00  0.00000000E+00  0.00000000E+00
  0.00000000E+00  0.00000000E+00  0.00000000E+00  0.00000000E+00  0.00000000E+00
  0.00000000E+00  0.00000000E+00  0.00000000E+00  0.00000000E+00  0.00000000E+00
  0.00000000E+00  0.00000000E+00  0.00000000E+00  0.00000000E+00  0.00000000E+00
  0.00000000E+00  0.00000000E+00  0.00000000E+00  0.00000000E+00  0.00000000E+00
  0.00000000E+00  0.00000000E+00  0.00000000E+00  0.00000000E+00  0.00000000E+00
  0.00000000E+00  0.00000000E+00  0.00000000E+00  0.00000000E+00  0.00000000E+00
  0.00000000E+00  0.00000000E+00  0.00000000E+00  7.08742682E-02  3.39752839E-01
  7.27158577E-01  1.00000000E+00  0.00000000E+00  0.00000000E+00  0.00000000E+00
  0.00000000E+00  0.00000000E+00  0.00000000E+00  0.00000000E+00  7.08742682E-02
  3.39752839E-01  7.27158577E-01  1.00000000E+00  0.00000000E+00  0.00000000E+00
  0.00000000E+00  0.00000000E+00  0.00000000E+00  0.00000000E+00  0.00000000E+00
  6.89990666E-02  3.16423961E-01  7.44308291E-01  1.00000000E+00  0.00000000E+00
  0.00000000E+00  0.00000000E+00  0.00000000E+00  0.00000000E+00  0.00000000E+00
  0.00000000E+00  6.89990666E-02  3.16423961E-01  7.44308291E-01  1.00000000E+00
  0.00000000E+00  0.00000000E+00  0.00000000E+00  0.00000000E+00  0.00000000E+00
  0.00000000E+00  0.00000000E+00  6.89990666E-02  3.16423961E-01  7.44308291E-01
  1.00000000E+00  0.00000000E+00  0.00000000E+00  0.00000000E+00  0.00000000E+00
  0.00000000E+00  0.00000000E+00  0.00000000E+00  6.89990666E-02  3.16423961E-01
  7.44308291E-01  1.00000000E+00  0.00000000E+00  0.00000000E+00  0.00000000E+00
  0.00000000E+00  0.00000000E+00  0.00000000E+00  0.00000000E+00  0.00000000E+00
  0.00000000E+00  0.00000000E+00  0.00000000E+00  0.00000000E+00  0.00000000E+00
  0.00000000E+00  0.00000000E+00  0.00000000E+00  0.00000000E+00
Coordinates of each shell                  R   N=         168
 -6.74893356E+00  4.44960797E-01 -5.80608646E-06 -6.74893356E+00  4.44960797E-01
 -5.80608646E-06 -6.74893356E+00  4.44960797E-01 -5.80608646E-06 -6.74893356E+00
  4.44960797E-01 -5.80608646E-06 -6.74893356E+00  4.44960797E-01 -5.80608646E-06
 -6.74893356E+00  4.44960797E-01 -5.80608646E-06 -6.74893356E+00  4.44960797E-01
 -5.80608646E-06 -6.74893356E+00  4.44960797E-01 -5.80608646E-06 -6.74893356E+00
  4.44960797E-01 -5.80608646E-06 -6.74893356E+00  4.44960797E-01 -5.80608646E-06
 -6.74893356E+00  4.44960797E-01 -5.80608646E-06 -6.74893356E+00  4.44960797E-01
 -5.80608646E-06  6.74893220E+00 -4.44964173E-01 -5.75627906E-06  6.74893220E+00
 -4.44964173E-01 -5.75627906E-06  6.74893220E+00 -4.44964173E-01 -5.75627906E-06
  6.74893220E+00 -4.44964173E-01 -5.75627906E-06  6.74893220E+00 -4.44964173E-01
 -5.75627906E-06  6.74893220E+00 -4.44964173E-01 -5.75627906E-06  6.74893220E+00
 -4.44964173E-01 -5.75627906E-06  6.74893220E+00 -4.44964173E-01 -5.75627906E-06
  6.74893220E+00 -4.44964173E-01 -5.75627906E-06  6.74893220E+00 -4.44964173E-01
 -5.75627906E-06  6.74893220E+00 -4.44964173E-01 -5.75627906E-06  6.74893220E+00
 -4.44964173E-01 -5.75627906E-06 -3.22461524E+00 -3.50664552E+00  1.95820066E-06
 -3.22461524E+00 -3.50664552E+00  1.95820066E-06 -3.22461524E+00 -3.50664552E+00
  1.95820066E-06 -3.22461524E+00 -3.50664552E+00  1.95820066E-06  3.22462085E+00
  3.50665044E+00  1.70354112E-06  3.22462085E+00  3.50665044E+00  1.70354112E-06
  3.22462085E+00  3.50665044E+00  1.70354112E-06  3.22462085E+00  3.50665044E+00
  1.70354112E-06 -1.28179319E+00  6.55247663E-01  1.92603138E-05 -1.28179319E+00
  6.55247663E-01  1.92603138E-05 -1.28179319E+00  6.55247663E-01  1.92603138E-05
 -1.28179319E+00  6.55247663E-01  1.92603138E-05  1.28179297E+00 -6.55240939E-01
  1.83931122E-05  1.28179297E+00 -6.55240939E-01  1.83931122E-05  1.28179297E+00
 -6.55240939E-01  1.83931122E-05  1.28179297E+00 -6.55240939E-01  1.83931122E-05
 -3.39312342E+00 -1.24796090E+00  3.70339390E-06 -3.39312342E+00 -1.24796090E+00
  3.70339390E-06 -3.39312342E+00 -1.24796090E+00  3.70339390E-06 -3.39312342E+00
 -1.24796090E+00  3.70339390E-06  3.39312462E+00  1.24796557E+00  3.98103575E-06
  3.39312462E+00  1.24796557E+00  3.98103575E-06  3.39312462E+00  1.24796557E+00
  3.98103575E-06  3.39312462E+00  1.24796557E+00  3.98103575E-06 -1.52188821E+00
  1.88013162E+00 -1.65058383E+00 -1.52188821E+00  1.88013162E+00 -1.65058383E+00
 -1.52189756E+00  1.88010957E+00  1.65063766E+00 -1.52189756E+00  1.88010957E+00
  1.65063766E+00  1.52188592E+00 -1.88012464E+00 -1.65058526E+00  1.52188592E+00
 -1.88012464E+00 -1.65058526E+00  1.52189671E+00 -1.88010603E+00  1.65063479E+00
  1.52189671E+00 -1.88010603E+00  1.65063479E+00
Constraint Structure                       R   N=          36
 -6.74893356E+00  4.44960797E-01 -5.80608646E-06  6.74893220E+00 -4.44964173E-01
 -5.75627906E-06 -3.22461524E+00 -3.50664552E+00  1.95820066E-06  3.22462085E+00
  3.50665044E+00  1.70354112E-06 -1.28179319E+00  6.55247663E-01  1.92603138E-05
  1.28179297E+00 -6.55240939E-01  1.83931122E-05 -3.39312342E+00 -1.24796090E+00
  3.70339390E-06  3.39312462E+00  1.24796557E+00  3.98103575E-06 -1.52188821E+00
  1.88013162E+00 -1.65058383E+00 -1.52189756E+00  1.88010957E+00  1.65063766E+00
  1.52188592E+00 -1.88012464E+00 -1.65058526E+00  1.52189671E+00 -1.88010603E+00
  1.65063479E+00
Num ILSW                                   I              100
ILSW                                       I   N=         100
           0           1           0           0           2           0
           0           0           0           0           0          -1
           0           0           0           0           0           0
           0           0           0           0           1           0
           1           0           0           0           0           0
           0           0      100000           0          -1           0
           0           0           0           0           0           0
           0           0           0           1           1           0
           0           0           1           0           0           0
           0           0           4          40           0           0
           0           0           0           0           0           0
           0           0           0           0           0           0
           0           0           0           0           0           0
           0           0           0           0           0           0
           0           0           0           0           0           0
           0           0           0           0           0           0
           0           0           0           0
Num RLSW                                   I               40
RLSW                                       R   N=          40
  1.00000000E+00  1.00000000E+00  1.00000000E+00  1.00000000E+00  1.00000000E+00
  0.00000000E+00  0.00000000E+00  1.00000000E+00  0.00000000E+00  0.00000000E+00
  0.00000000E+00  0.00000000E+00  1.00000000E+00  0.00000000E+00  0.00000000E+00
  0.00000000E+00  0.00000000E+00  1.00000000E+00  0.00000000E+00  0.00000000E+00
  0.00000000E+00  0.00000000E+00  1.00000000E+00  0.00000000E+00  0.00000000E+00
  0.00000000E+00  0.00000000E+00  1.00000000E+00  0.00000000E+00  0.00000000E+00
  0.00000000E+00  0.00000000E+00  0.00000000E+00  0.00000000E+00  0.00000000E+00
  0.00000000E+00  0.00000000E+00  0.00000000E+00  1.00000000E+00  1.00000000E+00
MxBond                                     I                4
NBond                                      I   N=          12
           1           1           1           1           4           4
           3           3           1           1           1           1
IBond                                      I   N=          48
           7           0           0           0           8           0
           0           0           7           0           0           0
           8           0           0           0           6           7
           9          10           5           8          11          12
           1           3           5           0           2           4
           6           0           5           0           0           0
           5           0           0           0           6           0
           0           0           6           0           0           0
RBond                                      R   N=          48
  1.00000000E+00  0.00000000E+00  0.00000000E+00  0.00000000E+00  1.00000000E+00
  0.00000000E+00  0.00000000E+00  0.00000000E+00  2.00000000E+00  0.00000000E+00
  0.00000000E+00  0.00000000E+00  2.00000000E+00  0.00000000E+00  0.00000000E+00
  0.00000000E+00  1.00000000E+00  1.00000000E+00  1.00000000E+00  1.00000000E+00
  1.00000000E+00  1.00000000E+00  1.00000000E+00  1.00000000E+00  1.00000000E+00
  2.00000000E+00  1.00000000E+00  0.00000000E+00  1.00000000E+00  2.00000000E+00
  1.00000000E+00  0.00000000E+00  1.00000000E+00  0.00000000E+00  0.00000000E+00
  0.00000000E+00  1.00000000E+00  0.00000000E+00  0.00000000E+00  0.00000000E+00
  1.00000000E+00  0.00000000E+00  0.00000000E+00  0.00000000E+00  1.00000000E+00
  0.00000000E+00  0.00000000E+00  0.00000000E+00
Virial Ratio                               R      2.004431858713430E+00
SCF Energy                                 R     -5.443309475104706E+03
MP2 Energy                                 R     -5.444408592327369E+03
Total Energy                               R     -5.444408592327369E+03
Post-SCF wavefunction norm                 R      1.669966376424689E+00
RMS Force                                  R      5.968394306013481E-07
RMS Density                                R      9.651752922600769E-10
External E-field                           R   N=          35
  0.00000000E+00  0.00000000E+00  0.00000000E+00  0.00000000E+00  0.00000000E+00
  0.00000000E+00  0.00000000E+00  0.00000000E+00  0.00000000E+00  0.00000000E+00
  0.00000000E+00  0.00000000E+00  0.00000000E+00  0.00000000E+00  0.00000000E+00
  0.00000000E+00  0.00000000E+00  0.00000000E+00  0.00000000E+00  0.00000000E+00
  0.00000000E+00  0.00000000E+00  0.00000000E+00  0.00000000E+00  0.00000000E+00
  0.00000000E+00  0.00000000E+00  0.00000000E+00  0.00000000E+00  0.00000000E+00
  0.00000000E+00  0.00000000E+00  0.00000000E+00  0.00000000E+00  0.00000000E+00
IOpCl                                      I                0
IROHF                                      I                0
Alpha Orbital Energies                     R   N=         158
 -4.90080582E+02 -4.90080580E+02 -6.44930300E+01 -6.44930060E+01 -5.86320973E+01
 -5.86320008E+01 -5.86304775E+01 -5.86304748E+01 -5.86304108E+01 -5.86304032E+01
 -2.06296531E+01 -2.06296529E+01 -1.14337720E+01 -1.14337705E+01 -1.12983393E+01
 -1.12977262E+01 -9.74169438E+00 -9.74168642E+00 -7.49045519E+00 -7.49045285E+00
 -7.48252064E+00 -7.48252048E+00 -7.48191130E+00 -7.48191108E+00 -3.22903025E+00
 -3.22902976E+00 -3.22553424E+00 -3.22553407E+00 -3.22483721E+00 -3.22483704E+00
 -3.21579802E+00 -3.21579788E+00 -3.21578717E+00 -3.21578702E+00 -1.46094093E+00
 -1.45957593E+00 -1.13980083E+00 -1.06288795E+00 -1.02918557E+00 -9.62000299E-01
 -7.85652505E-01 -7.85338839E-01 -7.10662395E-01 -7.02742798E-01 -6.82336458E-01
 -6.49385551E-01 -6.36701088E-01 -6.21843215E-01 -5.75028728E-01 -5.68832385E-01
 -5.43596589E-01 -4.57375809E-01 -4.40373040E-01 -4.33785464E-01 -4.32444707E-01
 -4.30806860E-01 -4.27491384E-01  1.03567171E-01  1.15262768E-01  1.17763490E-01
  1.51167838E-01  2.04382903E-01  2.51496466E-01  2.55422646E-01  3.14302892E-01
  3.23705720E-01  3.65645005E-01  3.85717609E-01  3.91752092E-01  4.15055277E-01
  4.73154447E-01  4.97042986E-01  5.96592749E-01  6.25438750E-01  6.28818318E-01
  6.30327935E-01  6.36688932E-01  6.38418897E-01  6.42361590E-01  6.42982618E-01
  6.72114492E-01  6.76898714E-01  6.82201319E-01  6.87737678E-01  7.12077656E-01
  7.34938697E-01  7.51625420E-01  7.80438549E-01  8.15782963E-01  8.61579355E-01
  8.77699852E-01  9.01541065E-01  9.05466060E-01  9.20831372E-01  9.73611799E-01
  1.00805954E+00  1.01715143E+00  1.06018341E+00  1.06953383E+00  1.08103823E+00
  1.09420626E+00  1.09872514E+00  1.10441146E+00  1.15189177E+00  1.16959183E+00
  1.19122163E+00  1.19293522E+00  1.26408154E+00  1.31301630E+00  1.33880154E+00
  1.34193233E+00  1.41647250E+00  1.51507146E+00  1.55153274E+00  1.78669528E+00
  1.78909821E+00  1.79339287E+00  1.79542123E+00  1.80286689E+00  1.86576232E+00
  1.88991307E+00  1.92327406E+00  1.97175970E+00  1.97416432E+00  2.02410608E+00
  2.05385158E+00  2.08479218E+00  2.13887370E+00  2.18926718E+00  2.19657132E+00
  2.21424137E+00  2.28564615E+00  2.34137943E+00  2.41368087E+00  2.41784839E+00
  2.61771470E+00  2.62476346E+00  2.63181774E+00  2.73540331E+00  2.74719523E+00
  2.85649616E+00  2.89022676E+00  2.90159380E+00  3.02720154E+00  3.18890780E+00
  3.19025713E+00  3.30105670E+00  3.32085760E+00  4.30916503E+00  4.34485286E+00
  4.45917567E+00  4.58264877E+00  4.74556790E+00  4.92148775E+00  9.26248614E+00
  9.26342428E+00  7.44541648E+01  7.44786498E+01
Alpha MO coefficients                      R   N=       24964
  7.21277429E-01  2.37815759E-02 -3.20647302E-02 -3.45043989E-02 -1.90943744E-02
 -1.37993368E-02  1.47271517E-05 -4.73342921E-06  5.04692721E-11 -4.50046871E-05
  1.28438996E-05 -1.61784099E-10  1.92575818E-04 -5.72638767E-05  6.78581207E-10
 -2.31420927E-04  1.42867917E-04 -5.25566992E-10  3.19071253E-02  3.19161448E-02
  3.19069466E-02 -4.75622528E-07 -2.42094656E-12  3.72830166E-11  7.92780968E-03
  7.82778942E-03  7.90403999E-03  1.34368410E-05  1.88910209E-10 -2.60209244E-10
  6.85317815E-01  2.25961341E-02 -3.04667783E-02 -3.27848327E-02 -1.81470026E-02
 -1.30990110E-02 -1.40484764E-05  4.52724480E-06  4.90818859E-11  4.29647357E-05
 -1.23132394E-05 -1.56081792E-10 -1.83666606E-04  5.48734951E-05  6.53918256E-10
  2.13580843E-04 -1.33985278E-04 -4.93105315E-10  3.03169033E-02  3.03257930E-02
  3.03170183E-02 -3.32249962E-07  3.61945735E-12 -3.39467548E-11  7.53432097E-03
  7.43566609E-03  7.50819017E-03  1.13018819E-05 -1.94694407E-10  2.38275755E-10
  2.93302334E-05  1.19225160E-04 -4.20734707E-06  3.53451215E-05 -2.49601637E-10
 -9.39198057E-04 -6.59637992E-05 -2.24663437E-04  6.84485867E-10  1.20103448E-04
  8.52388285E-05  7.04556821E-05 -3.62652229E-05  2.03331802E-10  6.31870247E-11
  2.77986240E-05  1.12914442E-04  4.48149586E-06 -3.31522402E-05 -2.23966043E-10
 -8.94729669E-04  6.19391670E-05  2.11862074E-04  5.21416859E-10  1.14106162E-04
  8.13974204E-05  6.59398303E-05 -3.44996488E-05 -2.15068467E-10 -5.03677293E-11
  1.02202221E-05 -5.96963129E-05  4.95137744E-05 -7.86958878E-06 -2.34211729E-10
  3.43582078E-04 -7.01051502E-04 -2.45033953E-04 -1.25726569E-09  1.14402237E-04
  4.81880854E-05  4.65720872E-05  3.49099380E-05  8.31737998E-10  3.02643146E-10
  9.14688163E-06 -5.98660264E-05 -5.03069183E-05  8.36720615E-06 -2.56732754E-10
  3.81137776E-04  6.66704158E-04  2.51509741E-04 -5.22748566E-10  1.08290043E-04
  4.63921376E-05  4.33992322E-05  3.27593438E-05 -7.59415606E-10 -2.90483915E-10
 -1.16231632E-05  3.92819597E-05  1.41085004E-04 -5.47100531E-05  4.23551139E-10
  4.11927511E-04 -9.93913547E-05 -9.12222962E-04 -3.73874344E-09 -1.83867799E-04
 -1.05835386E-04 -4.30887069E-05 -1.22022289E-05 -8.18713878E-10 -2.97594383E-10
 -1.09953539E-05  3.74964947E-05 -1.31641335E-04  5.11739952E-05  3.73535966E-10
  3.71607428E-04  8.99065729E-05  8.81244813E-04 -3.44294540E-09 -1.74512375E-04
 -1.00796438E-04 -4.10782125E-05 -1.20820478E-05  7.77401304E-10  2.62195997E-10
 -4.77187140E-05  2.04690831E-04 -4.77190622E-05  2.04688426E-04 -4.58414518E-05
  1.91761878E-04 -4.58419562E-05  1.91759477E-04 -6.85317033E-01 -2.25920084E-02
  3.04533837E-02  3.27710968E-02  1.80526216E-02  1.33531425E-02 -1.29055726E-05
  3.91473508E-06 -4.47577968E-11  3.87727999E-05 -1.00587321E-05  1.42164563E-10
 -1.69437402E-04  4.53248444E-05 -6.30687447E-10  3.43227527E-04 -1.70193582E-04
  1.17937184E-09 -3.03061350E-02 -3.03084430E-02 -3.03003905E-02  2.79311459E-06
 -3.08195331E-11 -6.52486141E-12 -7.49820074E-03 -7.47403573E-03 -7.54501911E-03
 -4.14327496E-05  2.15736673E-10 -1.51551323E-11  7.21276686E-01  2.37776562E-02
 -3.20520041E-02 -3.44913485E-02 -1.90046983E-02 -1.40408015E-02 -1.36412167E-05
  4.15151049E-06  4.73286400E-11  4.10217398E-05 -1.07019499E-05 -1.48576521E-10
 -1.79056107E-04  4.81919730E-05  6.57019967E-10  3.54604195E-04 -1.77271947E-04
 -1.21182198E-09  3.18968947E-02  3.18996606E-02  3.18911486E-02 -2.81375477E-06
 -2.97848037E-11 -5.37271252E-12  7.89349103E-03  7.86424684E-03  7.93903387E-03
  4.20650783E-05  2.04792701E-10 -2.49869008E-11 -2.92259641E-05 -1.20461730E-04
 -5.47516106E-06 -4.20121876E-05 -1.06899510E-10  8.46302710E-04  7.70836711E-05
  2.44793020E-04  6.52251350E-10 -1.14301455E-04 -7.30055560E-05 -8.65787399E-05
  3.36273742E-05 -1.94197727E-11  1.58439328E-10  3.06864343E-05  1.26396129E-04
 -5.25320786E-06 -4.37632254E-05  1.47864923E-10 -8.93186113E-04  8.03538065E-05
  2.55951945E-04 -8.62239626E-10  1.20288850E-04  7.72658636E-05  9.00654591E-05
 -3.54364933E-05 -1.99815113E-11  1.85925351E-10 -2.07458980E-05 -4.85255388E-06
  1.67909894E-05 -9.94133983E-06 -5.00499233E-10  7.43782121E-04  6.54297234E-04
 -1.32991233E-04  6.42880355E-09 -1.16697593E-04 -3.39184650E-05 -6.09054861E-05
 -4.11930112E-05 -3.15533211E-10  9.75805835E-11  2.12410819E-05  1.79616177E-06