
    -----------------------------------------------------------------------
          Psi4: An Open-Source Ab Initio Electronic Structure Package
                               Psi4 1.3.2 release

                         Git: Rev {HEAD} ecbda83 


    R. M. Parrish, L. A. Burns, D. G. A. Smith, A. C. Simmonett,
    A. E. DePrince III, E. G. Hohenstein, U. Bozkaya, A. Yu. Sokolov,
    R. Di Remigio, R. M. Richard, J. F. Gonthier, A. M. James,
    H. R. McAlexander, A. Kumar, M. Saitow, X. Wang, B. P. Pritchard,
    P. Verma, H. F. Schaefer III, K. Patkowski, R. A. King, E. F. Valeev,
    F. A. Evangelista, J. M. Turney, T. D. Crawford, and C. D. Sherrill,
    J. Chem. Theory Comput. 13(7) pp 3185--3197 (2017).
    (doi: 10.1021/acs.jctc.7b00174)


                         Additional Contributions by
    P. Kraus, H. Kruse, M. H. Lechner, M. C. Schieber, R. A. Shaw,
    A. Alenaizan, R. Galvelis, Z. L. Glick, S. Lehtola, and J. P. Misiewicz

    -----------------------------------------------------------------------


    Psi4 started on: Thursday, 05 November 2020 05:21PM

    Process ID: 88860
    Host:       node142.bme.utexas.edu
    PSIDATADIR: /home/xy3866/psi4conda/share/psi4
    Memory:     500.0 MiB
    Threads:    8
    
  ==> Input File <==

--------------------------------------------------------------------------
#psi4
#
memory 32 gb

molecule  {
0 1
  O        0.2778030     1.6259200     0.3386670
  O        2.1914470    -1.4110830     0.2143760
  O       -2.8041000    -0.0533200    -1.0004000
  O        2.6534740     0.6903680    -0.5128080
  O       -2.2475040    -0.2263980     1.1904210
  C        0.4723530     0.2278750     0.4110270
  C       -0.5274950    -0.4947260    -0.4920330
  C        1.9059298    -0.1743881     0.1389135
  C       -1.9249390    -0.2389030     0.0159280
  H        0.3131310    -0.0976200     1.4451750
  H       -0.3508850    -1.5764080    -0.4792290
  H       -0.4317560    -0.1356430    -1.5200150
  H        1.0272260     1.9763200    -0.1823570
  H        3.1099360    -1.5361820    -0.1045700
  H       -3.6753880     0.0844680    -0.5728280
units angstrom
no_reorient  #important for SAPT in psi4, default
symmetry c1  #important for SAPT in psi4, default
}

set PROPERTIES_ORIGIN ["COM"]
properties('MP2/aug-cc-pvtz', properties = ['dipole'])
--------------------------------------------------------------------------

  Memory set to  29.802 GiB by Python driver.
    SCF Algorithm Type (re)set to DF.

*** tstart() called on node142.bme.utexas.edu
*** at Thu Nov  5 17:21:46 2020

   => Loading Basis Set <=

    Name: AUG-CC-PVTZ
    Role: ORBITAL
    Keyword: BASIS
    atoms 1-5   entry O          line   327 file /home/xy3866/psi4conda/share/psi4/basis/aug-cc-pvtz.gbs 
    atoms 6-9   entry C          line   235 file /home/xy3866/psi4conda/share/psi4/basis/aug-cc-pvtz.gbs 
    atoms 10-15 entry H          line    36 file /home/xy3866/psi4conda/share/psi4/basis/aug-cc-pvtz.gbs 


         ---------------------------------------------------------
                                   SCF
               by Justin Turney, Rob Parrish, Andy Simmonett
                          and Daniel G. A. Smith
                              RHF Reference
                        8 Threads,  30517 MiB Core
         ---------------------------------------------------------

  ==> Geometry <==

    Molecular point group: c1
    Full point group: C1

    Geometry (in Angstrom), charge = 0, multiplicity = 1:

       Center              X                  Y                   Z               Mass       
    ------------   -----------------  -----------------  -----------------  -----------------
         O            0.276012635382     1.621832706615     0.315207605083    15.994914619570
         O            2.189656635382    -1.415170293385     0.190916605083    15.994914619570
         O           -2.805890364618    -0.057407293385    -1.023859394917    15.994914619570
         O            2.651683635382     0.686280706615    -0.536267394917    15.994914619570
         O           -2.249294364618    -0.230485293385     1.166961605083    15.994914619570
         C            0.470562635382     0.223787706615     0.387567605083    12.000000000000
         C           -0.529285364618    -0.498813293385    -0.515492394917    12.000000000000
         C            1.904139435382    -0.178475393385     0.115454105083    12.000000000000
         C           -1.926729364618    -0.242990293385    -0.007531394917    12.000000000000
         H            0.311340635382    -0.101707293385     1.421715605083     1.007825032230
         H           -0.352675364618    -1.580495293385    -0.502688394917     1.007825032230
         H           -0.433546364618    -0.139730293385    -1.543474394917     1.007825032230
         H            1.025435635382     1.972232706615    -0.205816394917     1.007825032230
         H            3.108145635382    -1.540269293385    -0.128029394917     1.007825032230
         H           -3.677178364618     0.080380706615    -0.596287394917     1.007825032230

  Running in c1 symmetry.

  Rotational constants: A =      0.11115  B =      0.02949  C =      0.02753 [cm^-1]
  Rotational constants: A =   3332.22774  B =    883.98634  C =    825.45776 [MHz]
  Nuclear repulsion =  463.652776285659343

  Charge       = 0
  Multiplicity = 1
  Electrons    = 70
  Nalpha       = 35
  Nbeta        = 35

  ==> Algorithm <==

  SCF Algorithm Type is DF.
  DIIS enabled.
  MOM disabled.
  Fractional occupation disabled.
  Guess Type is SAD.
  Energy threshold   = 1.00e-10
  Density threshold  = 1.00e-10
  Integral threshold = 0.00e+00

  ==> Primary Basis <==

  Basis Set: AUG-CC-PVTZ
    Blend: AUG-CC-PVTZ
    Number of shells: 180
    Number of basis function: 552
    Number of Cartesian functions: 645
    Spherical Harmonics?: true
    Max angular momentum: 3

   => Loading Basis Set <=

    Name: (AUG-CC-PVTZ AUX)
    Role: JKFIT
    Keyword: DF_BASIS_SCF
    atoms 1-5   entry O          line   286 file /home/xy3866/psi4conda/share/psi4/basis/aug-cc-pvtz-jkfit.gbs 
    atoms 6-9   entry C          line   162 file /home/xy3866/psi4conda/share/psi4/basis/aug-cc-pvtz-jkfit.gbs 
    atoms 10-15 entry H          line    70 file /home/xy3866/psi4conda/share/psi4/basis/aug-cc-pvtz-jkfit.gbs 

  ==> Pre-Iterations <==

   -------------------------------------------------------
    Irrep   Nso     Nmo     Nalpha   Nbeta   Ndocc  Nsocc
   -------------------------------------------------------
     A        552     552       0       0       0       0
   -------------------------------------------------------
    Total     552     552      35      35      35       0
   -------------------------------------------------------

  ==> Integral Setup <==

  DFHelper Memory: AOs need 2.680 GiB; user supplied 22.352 GiB. Using in-core AOs.

  ==> MemDFJK: Density-Fitted J/K Matrices <==

    J tasked:                   Yes
    K tasked:                   Yes
    wK tasked:                   No
    OpenMP threads:               8
    Memory [MiB]:             22888
    Algorithm:                 Disk
    Schwarz Cutoff:           1E-12
    Mask sparsity (%):       5.8824
    Fitting Condition:        1E-10

   => Auxiliary Basis Set <=

  Basis Set: (AUG-CC-PVTZ AUX)
    Blend: AUG-CC-PVTZ-JKFIT
    Number of shells: 354
    Number of basis function: 1212
    Number of Cartesian functions: 1509
    Spherical Harmonics?: true
    Max angular momentum: 4

  Minimum eigenvalue in the overlap matrix is 6.1468022901E-06.
  Using Symmetric Orthogonalization.

  SCF Guess: Superposition of Atomic Densities via on-the-fly atomic UHF.

  ==> Iterations <==

                           Total Energy        Delta E     RMS |[F,P]|

   @DF-RHF iter SAD:  -528.15932561275918   -5.28159e+02   0.00000e+00 
   @DF-RHF iter   1:  -529.17508343933696   -1.01576e+00   1.55916e-03 DIIS
   @DF-RHF iter   2:  -529.38304040963442   -2.07957e-01   1.04626e-03 DIIS
   @DF-RHF iter   3:  -529.48986236497240   -1.06822e-01   1.69530e-04 DIIS
   @DF-RHF iter   4:  -529.49468505616449   -4.82269e-03   7.98815e-05 DIIS
   @DF-RHF iter   5:  -529.49575478856195   -1.06973e-03   1.83467e-05 DIIS
   @DF-RHF iter   6:  -529.49585148252118   -9.66940e-05   7.97991e-06 DIIS
   @DF-RHF iter   7:  -529.49587298493691   -2.15024e-05   3.20338e-06 DIIS
   @DF-RHF iter   8:  -529.49587674390341   -3.75897e-06   1.43405e-06 DIIS
   @DF-RHF iter   9:  -529.49587752552429   -7.81621e-07   6.27373e-07 DIIS
   @DF-RHF iter  10:  -529.49587767120295   -1.45679e-07   1.89532e-07 DIIS
   @DF-RHF iter  11:  -529.49587768567096   -1.44680e-08   6.48492e-08 DIIS
   @DF-RHF iter  12:  -529.49587768723381   -1.56285e-09   2.29866e-08 DIIS
   @DF-RHF iter  13:  -529.49587768744539   -2.11571e-10   9.04249e-09 DIIS
   @DF-RHF iter  14:  -529.49587768747847   -3.30829e-11   4.18209e-09 DIIS
   @DF-RHF iter  15:  -529.49587768748722   -8.75389e-12   1.67686e-09 DIIS
   @DF-RHF iter  16:  -529.49587768748847   -1.25056e-12   6.29460e-10 DIIS
   @DF-RHF iter  17:  -529.49587768748836    1.13687e-13   2.75761e-10 DIIS
   @DF-RHF iter  18:  -529.49587768748870   -3.41061e-13   8.44486e-11 DIIS
  Energy and wave function converged.


  ==> Post-Iterations <==

    Orbital Energies [Eh]
    ---------------------

    Doubly Occupied:                                                      

       1A    -20.668422     2A    -20.626249     3A    -20.574014  
       4A    -20.562732     5A    -20.559625     6A    -11.422809  
       7A    -11.402759     8A    -11.325369     9A    -11.272066  
      10A     -1.525571    11A     -1.470055    12A     -1.386907  
      13A     -1.366437    14A     -1.328441    15A     -1.090625  
      16A     -0.981299    17A     -0.868702    18A     -0.816032  
      19A     -0.761721    20A     -0.740347    21A     -0.714397  
      22A     -0.705505    23A     -0.673759    24A     -0.665112  
      25A     -0.644750    26A     -0.619161    27A     -0.596388  
      28A     -0.589672    29A     -0.560441    30A     -0.530995  
      31A     -0.490693    32A     -0.480664    33A     -0.473138  
      34A     -0.467707    35A     -0.462350  

    Virtual:                                                              

      36A      0.020454    37A      0.031242    38A      0.042286  
      39A      0.044332    40A      0.049059    41A      0.062522  
      42A      0.080855    43A      0.089034    44A      0.092633  
      45A      0.099914    46A      0.107344    47A      0.110090  
      48A      0.115062    49A      0.118948    50A      0.126853  
      51A      0.128678    52A      0.142090    53A      0.144561  
      54A      0.150304    55A      0.158203    56A      0.162931  
      57A      0.167014    58A      0.172368    59A      0.184173  
      60A      0.187085    61A      0.190365    62A      0.198639  
      63A      0.209456    64A      0.215890    65A      0.218252  
      66A      0.232699    67A      0.242107    68A      0.245619  
      69A      0.253182    70A      0.257284    71A      0.267657  
      72A      0.270566    73A      0.273720    74A      0.275990  
      75A      0.281120    76A      0.295107    77A      0.301003  
      78A      0.309210    79A      0.313581    80A      0.321723  
      81A      0.328304    82A      0.334874    83A      0.347629  
      84A      0.355406    85A      0.358827    86A      0.361368  
      87A      0.367989    88A      0.375011    89A      0.382193  
      90A      0.388094    91A      0.392091    92A      0.399933  
      93A      0.401338    94A      0.402271    95A      0.414828  
      96A      0.421717    97A      0.426550    98A      0.431755  
      99A      0.446584   100A      0.451980   101A      0.460003  
     102A      0.461157   103A      0.469181   104A      0.473515  
     105A      0.479205   106A      0.481902   107A      0.494828  
     108A      0.501504   109A      0.513132   110A      0.519347  
     111A      0.523857   112A      0.538185   113A      0.544765  
     114A      0.557350   115A      0.561277   116A      0.567960  
     117A      0.574165   118A      0.585646   119A      0.596288  
     120A      0.603313   121A      0.607670   122A      0.619927  
     123A      0.629184   124A      0.640427   125A      0.647028  
     126A      0.655797   127A      0.658735   128A      0.670607  
     129A      0.684477   130A      0.693184   131A      0.706057  
     132A      0.726876   133A      0.738924   134A      0.740855  
     135A      0.747260   136A      0.760022   137A      0.762986  
     138A      0.773264   139A      0.782801   140A      0.788587  
     141A      0.794463   142A      0.803779   143A      0.810234  
     144A      0.815070   145A      0.826293   146A      0.832877  
     147A      0.835852   148A      0.842931   149A      0.847085  
     150A      0.862455   151A      0.877155   152A      0.883529  
     153A      0.885704   154A      0.894933   155A      0.906837  
     156A      0.914682   157A      0.920602   158A      0.923277  
     159A      0.936291   160A      0.941644   161A      0.952533  
     162A      0.953884   163A      0.963248   164A      0.978847  
     165A      0.987777   166A      0.991462   167A      0.993409  
     168A      1.009413   169A      1.012009   170A      1.020474  
     171A      1.025149   172A      1.029448   173A      1.032182  
     174A      1.042369   175A      1.053210   176A      1.056533  
     177A      1.071697   178A      1.077881   179A      1.086144  
     180A      1.094993   181A      1.098942   182A      1.109654  
     183A      1.113127   184A      1.118512   185A      1.127038  
     186A      1.134525   187A      1.147304   188A      1.161958  
     189A      1.175242   190A      1.180827   191A      1.197645  
     192A      1.210970   193A      1.217032   194A      1.218800  
     195A      1.226805   196A      1.242418   197A      1.251712  
     198A      1.267125   199A      1.270268   200A      1.279418  
     201A      1.294554   202A      1.302340   203A      1.320162  
     204A      1.326044   205A      1.332026   206A      1.343588  
     207A      1.345902   208A      1.365077   209A      1.374645  
     210A      1.392357   211A      1.400495   212A      1.405603  
     213A      1.423086   214A      1.425813   215A      1.454731  
     216A      1.461409   217A      1.465150   218A      1.480193  
     219A      1.485744   220A      1.491261   221A      1.494272  
     222A      1.502429   223A      1.514052   224A      1.541740  
     225A      1.548695   226A      1.565670   227A      1.579846  
     228A      1.582652   229A      1.594677   230A      1.597884  
     231A      1.609680   232A      1.618590   233A      1.623888  
     234A      1.630134   235A      1.645708   236A      1.664081  
     237A      1.671637   238A      1.676909   239A      1.692717  
     240A      1.695808   241A      1.706895   242A      1.722665  
     243A      1.731598   244A      1.753239   245A      1.754743  
     246A      1.768578   247A      1.789001   248A      1.798203  
     249A      1.807374   250A      1.821434   251A      1.842001  
     252A      1.846298   253A      1.857026   254A      1.857903  
     255A      1.873595   256A      1.885746   257A      1.903451  
     258A      1.914882   259A      1.933426   260A      1.947634  
     261A      1.952249   262A      1.960800   263A      1.971621  
     264A      1.977414   265A      1.995681   266A      2.009781  
     267A      2.028639   268A      2.044308   269A      2.053447  
     270A      2.061438   271A      2.098065   272A      2.125911  
     273A      2.134756   274A      2.140419   275A      2.161165  
     276A      2.186569   277A      2.223348   278A      2.225008  
     279A      2.234621   280A      2.265513   281A      2.274595  
     282A      2.300026   283A      2.307744   284A      2.322488  
     285A      2.346424   286A      2.358155   287A      2.379566  
     288A      2.397788   289A      2.425084   290A      2.434153  
     291A      2.448439   292A      2.460412   293A      2.463697  
     294A      2.476884   295A      2.478967   296A      2.504265  
     297A      2.514818   298A      2.524243   299A      2.531633  
     300A      2.539615   301A      2.552565   302A      2.576876  
     303A      2.590405   304A      2.609773   305A      2.612279  
     306A      2.627709   307A      2.629526   308A      2.643619  
     309A      2.649189   310A      2.665618   311A      2.673932  
     312A      2.706242   313A      2.718640   314A      2.735426  
     315A      2.768217   316A      2.771696   317A      2.794477  
     318A      2.809113   319A      2.813144   320A      2.820840  
     321A      2.826457   322A      2.849718   323A      2.857578  
     324A      2.874044   325A      2.891842   326A      2.893330  
     327A      2.928003   328A      2.931621   329A      2.964853  
     330A      2.973758   331A      2.978581   332A      3.002230  
     333A      3.022667   334A      3.032021   335A      3.046028  
     336A      3.051915   337A      3.071444   338A      3.081964  
     339A      3.095416   340A      3.113422   341A      3.126360  
     342A      3.149674   343A      3.165353   344A      3.193381  
     345A      3.202881   346A      3.234724   347A      3.244274  
     348A      3.280696   349A      3.309275   350A      3.327826  
     351A      3.347850   352A      3.378514   353A      3.399579  
     354A      3.428386   355A      3.461564   356A      3.464417  
     357A      3.492622   358A      3.518369   359A      3.557453  
     360A      3.566411   361A      3.588868   362A      3.602261  
     363A      3.621478   364A      3.644571   365A      3.651036  
     366A      3.676682   367A      3.687090   368A      3.714386  
     369A      3.730998   370A      3.762651   371A      3.770371  
     372A      3.780684   373A      3.815794   374A      3.823875  
     375A      3.842602   376A      3.866019   377A      3.908900  
     378A      3.918712   379A      3.957446   380A      3.963020  
     381A      3.977483   382A      3.993316   383A      4.019230  
     384A      4.022601   385A      4.041557   386A      4.051167  
     387A      4.073875   388A      4.086344   389A      4.115926  
     390A      4.123304   391A      4.153547   392A      4.169617  
     393A      4.183223   394A      4.195695   395A      4.212552  
     396A      4.223276   397A      4.253039   398A      4.266562  
     399A      4.309589   400A      4.319598   401A      4.328422  
     402A      4.336210   403A      4.358845   404A      4.367585  
     405A      4.375701   406A      4.385224   407A      4.400675  
     408A      4.425226   409A      4.462413   410A      4.465478  
     411A      4.469071   412A      4.479035   413A      4.509117  
     414A      4.524846   415A      4.545073   416A      4.560299  
     417A      4.570906   418A      4.615954   419A      4.627380  
     420A      4.647347   421A      4.678756   422A      4.694647  
     423A      4.713877   424A      4.748431   425A      4.754300  
     426A      4.779562   427A      4.818991   428A      4.826110  
     429A      4.854524   430A      4.857599   431A      4.893975  
     432A      4.914107   433A      4.929020   434A      4.951799  
     435A      4.995454   436A      5.017584   437A      5.031606  
     438A      5.043912   439A      5.058509   440A      5.096500  
     441A      5.121177   442A      5.130663   443A      5.176649  
     444A      5.184433   445A      5.217130   446A      5.232380  
     447A      5.255373   448A      5.297364   449A      5.341610  
     450A      5.346739   451A      5.392780   452A      5.394168  
     453A      5.406152   454A      5.415599   455A      5.446505  
     456A      5.455997   457A      5.474820   458A      5.496126  
     459A      5.517589   460A      5.562586   461A      5.605706  
     462A      5.612683   463A      5.633487   464A      5.683880  
     465A      5.725223   466A      5.742480   467A      5.759641  
     468A      5.835706   469A      5.900337   470A      5.978617  
     471A      6.041990   472A      6.110106   473A      6.153212  
     474A      6.205072   475A      6.297008   476A      6.325633  
     477A      6.377651   478A      6.504279   479A      6.576906  
     480A      6.587047   481A      6.635440   482A      6.688710  
     483A      6.720871   484A      6.758853   485A      6.799891  
     486A      6.808578   487A      6.828494   488A      6.841138  
     489A      6.847360   490A      6.873087   491A      6.887923  
     492A      6.906626   493A      6.921701   494A      6.960341  
     495A      6.990826   496A      7.006699   497A      7.053297  
     498A      7.062119   499A      7.083939   500A      7.113189  
     501A      7.122938   502A      7.185691   503A      7.205598  
     504A      7.233398   505A      7.239322   506A      7.257279  
     507A      7.310583   508A      7.327145   509A      7.349253  
     510A      7.354212   511A      7.362337   512A      7.380264  
     513A      7.392563   514A      7.403554   515A      7.411597  
     516A      7.441470   517A      7.485368   518A      7.526813  
     519A      7.541601   520A      7.560855   521A      7.571215  
     522A      7.593180   523A      7.625872   524A      7.652105  
     525A      7.675753   526A      7.682802   527A      7.703038  
     528A      7.709870   529A      7.735176   530A      7.816615  
     531A      7.893046   532A      7.911855   533A      7.954053  
     534A      7.987056   535A      8.001010   536A      8.064752  
     537A      8.106647   538A      8.189973   539A      8.281696  
     540A      8.355576   541A      8.554402   542A      8.559082  
     543A      8.611409   544A     14.332256   545A     15.356492  
     546A     15.867125   547A     16.099764   548A     16.779875  
     549A     17.194068   550A     17.763828   551A     19.266600  
     552A     19.616748  

    Final Occupation by Irrep:
              A 
    DOCC [    35 ]

  @DF-RHF Final Energy:  -529.49587768748870

   => Energetics <=

    Nuclear Repulsion Energy =            463.6527762856593426
    One-Electron Energy =               -1647.4474830620752073
    Two-Electron Energy =                 654.2988290889270502
    Total Energy =                       -529.4958776874887008

Computation Completed

*** tstop() called on node142.bme.utexas.edu at Thu Nov  5 17:23:00 2020
Module time:
	user time   =     352.02 seconds =       5.87 minutes
	system time =      36.56 seconds =       0.61 minutes
	total time  =         74 seconds =       1.23 minutes
Total time:
	user time   =     352.02 seconds =       5.87 minutes
	system time =      36.56 seconds =       0.61 minutes
	total time  =         74 seconds =       1.23 minutes
   => Loading Basis Set <=

    Name: (AUG-CC-PVTZ AUX)
    Role: RIFIT
    Keyword: DF_BASIS_MP2
    atoms 1-5   entry O          line   264 file /home/xy3866/psi4conda/share/psi4/basis/aug-cc-pvtz-ri.gbs 
    atoms 6-9   entry C          line   148 file /home/xy3866/psi4conda/share/psi4/basis/aug-cc-pvtz-ri.gbs 
    atoms 10-15 entry H          line    30 file /home/xy3866/psi4conda/share/psi4/basis/aug-cc-pvtz-ri.gbs 


*** tstart() called on node142.bme.utexas.edu
*** at Thu Nov  5 17:23:00 2020


  //>>>>>>>>>>>>>>>>>>>>>>>>>>>>>>>>>>>//
  //               DFMP2               //
  //<<<<<<<<<<<<<<<<<<<<<<<<<<<<<<<<<<<//

	 --------------------------------------------------------
	                          DF-MP2                         
	      2nd-Order Density-Fitted Moller-Plesset Theory     
	              RMP2 Wavefunction,   8 Threads             
	                                                         
	        Rob Parrish, Justin Turney, Andy Simmonett,      
	           Ed Hohenstein, and C. David Sherrill          
	 --------------------------------------------------------

   => Auxiliary Basis Set <=

  Basis Set: (AUG-CC-PVTZ AUX)
    Blend: AUG-CC-PVTZ-RI
    Number of shells: 336
    Number of basis function: 1230
    Number of Cartesian functions: 1554
    Spherical Harmonics?: true
    Max angular momentum: 4

	 --------------------------------------------------------
	                 NBF =   552, NAUX =  1230
	 --------------------------------------------------------
	   CLASS    FOCC     OCC    AOCC    AVIR     VIR    FVIR
	   PAIRS       0      35      35     517     517       0
	 --------------------------------------------------------

  DFHelper Memory: AOs need 2.680 GiB; user supplied 22.352 GiB. Using in-core AOs.


         ------------------------------------------------------------
                                     CPHF                           
                                  Rob Parrish                       
         ------------------------------------------------------------

  ==> Geometry <==

    Molecular point group: c1
    Full point group: C1

    Geometry (in Angstrom), charge = 0, multiplicity = 1:

       Center              X                  Y                   Z               Mass       
    ------------   -----------------  -----------------  -----------------  -----------------
         O            0.276012635382     1.621832706615     0.315207605083    15.994914619570
         O            2.189656635382    -1.415170293385     0.190916605083    15.994914619570
         O           -2.805890364618    -0.057407293385    -1.023859394917    15.994914619570
         O            2.651683635382     0.686280706615    -0.536267394917    15.994914619570
         O           -2.249294364618    -0.230485293385     1.166961605083    15.994914619570
         C            0.470562635382     0.223787706615     0.387567605083    12.000000000000
         C           -0.529285364618    -0.498813293385    -0.515492394917    12.000000000000
         C            1.904139435382    -0.178475393385     0.115454105083    12.000000000000
         C           -1.926729364618    -0.242990293385    -0.007531394917    12.000000000000
         H            0.311340635382    -0.101707293385     1.421715605083     1.007825032230
         H           -0.352675364618    -1.580495293385    -0.502688394917     1.007825032230
         H           -0.433546364618    -0.139730293385    -1.543474394917     1.007825032230
         H            1.025435635382     1.972232706615    -0.205816394917     1.007825032230
         H            3.108145635382    -1.540269293385    -0.128029394917     1.007825032230
         H           -3.677178364618     0.080380706615    -0.596287394917     1.007825032230

  Nuclear repulsion =  463.652776285659343
  Reference energy  = -529.495877687488701

  ==> Basis Set <==

  Basis Set: AUG-CC-PVTZ
    Blend: AUG-CC-PVTZ
    Number of shells: 180
    Number of basis function: 552
    Number of Cartesian functions: 645
    Spherical Harmonics?: true
    Max angular momentum: 3

  ==> CGRSolver (by Rob Parrish) <==

   Number of roots    =         1
   Preconditioning    =    JACOBI
   Convergence cutoff =     1E-06
   Maximum iterations =       100

  ==> CPHFRHamiltonian (by Rob Parrish) <== 

  ==> MemDFJK: Density-Fitted J/K Matrices <==

    J tasked:                   Yes
    K tasked:                   Yes
    wK tasked:                   No
    OpenMP threads:               8
    Memory [MiB]:             22888
    Algorithm:                 Disk
    Schwarz Cutoff:           1E-12
    Mask sparsity (%):       5.8824
    Fitting Condition:        1E-10

   => Auxiliary Basis Set <=

  Basis Set: (AUG-CC-PVTZ AUX)
    Blend: AUG-CC-PVTZ-JKFIT
    Number of shells: 354
    Number of basis function: 1212
    Number of Cartesian functions: 1509
    Spherical Harmonics?: true
    Max angular momentum: 4

  ==> CPHF Iterations <==

  => Iterations <=

             Iter  Converged  Remaining    Residual
  CGR           1          0          1   1.208E-01
  CGR           2          0          1   3.963E-02
  CGR           3          0          1   1.619E-02
  CGR           4          0          1   6.854E-03
  CGR           5          0          1   3.177E-03
  CGR           6          0          1   1.197E-03
  CGR           7          0          1   5.178E-04
  CGR           8          0          1   1.458E-04
  CGR           9          0          1   3.960E-05
  CGR          10          0          1   1.475E-05
  CGR          11          0          1   5.796E-06
  CGR          12          0          1   2.665E-06
  CGR          13          0          1   1.143E-06
  CGR          14          1          0   3.358E-07

    CGRSolver converged.

	-----------------------------------------------------------
	 ==================> DF-MP2 Energies <==================== 
	-----------------------------------------------------------
	 Reference Energy          =    -529.4958776874887008 [Eh]
	 Singles Energy            =      -0.0000000000000000 [Eh]
	 Same-Spin Energy          =      -0.5073177399314439 [Eh]
	 Opposite-Spin Energy      =      -1.5096401087457361 [Eh]
	 Correlation Energy        =      -2.0169578486771798 [Eh]
	 Total Energy              =    -531.5128355361658805 [Eh]
	-----------------------------------------------------------
	 ================> DF-SCS-MP2 Energies <================== 
	-----------------------------------------------------------
	 SCS Same-Spin Scale       =       0.3333333333333333 [-]
	 SCS Opposite-Spin Scale   =       1.2000000000000000 [-]
	 SCS Same-Spin Energy      =      -0.1691059133104813 [Eh]
	 SCS Opposite-Spin Energy  =      -1.8115681304948832 [Eh]
	 SCS Correlation Energy    =      -1.9806740438053645 [Eh]
	 SCS Total Energy          =    -531.4765517312940801 [Eh]
	-----------------------------------------------------------



Properties will be evaluated at   0.000000,  -0.000000,  -0.000000 [a0]

Properties computed using the MP2 density matrix

  Nuclear Dipole Moment: [e a0]
     X:    -0.0170      Y:    -1.2248      Z:    -1.4568

  Electronic Dipole Moment: [e a0]
     X:     0.3289      Y:     0.1065      Z:     0.9505

  Dipole Moment: [e a0]
     X:     0.3118      Y:    -1.1183      Z:    -0.5064     Total:     1.2666

  Dipole Moment: [D]
     X:     0.7926      Y:    -2.8425      Z:    -1.2870     Total:     3.2194


*** tstop() called on node142.bme.utexas.edu at Thu Nov  5 17:26:12 2020
Module time:
	user time   =    1094.29 seconds =      18.24 minutes
	system time =      46.73 seconds =       0.78 minutes
	total time  =        192 seconds =       3.20 minutes
Total time:
	user time   =    1447.56 seconds =      24.13 minutes
	system time =      83.41 seconds =       1.39 minutes
	total time  =        266 seconds =       4.43 minutes

    Psi4 stopped on: Thursday, 05 November 2020 05:26PM
    Psi4 wall time for execution: 0:04:26.67

*** Psi4 exiting successfully. Buy a developer a beer!
