
    -----------------------------------------------------------------------
          Psi4: An Open-Source Ab Initio Electronic Structure Package
                               Psi4 1.3.2 release

                         Git: Rev {HEAD} ecbda83 


    R. M. Parrish, L. A. Burns, D. G. A. Smith, A. C. Simmonett,
    A. E. DePrince III, E. G. Hohenstein, U. Bozkaya, A. Yu. Sokolov,
    R. Di Remigio, R. M. Richard, J. F. Gonthier, A. M. James,
    H. R. McAlexander, A. Kumar, M. Saitow, X. Wang, B. P. Pritchard,
    P. Verma, H. F. Schaefer III, K. Patkowski, R. A. King, E. F. Valeev,
    F. A. Evangelista, J. M. Turney, T. D. Crawford, and C. D. Sherrill,
    J. Chem. Theory Comput. 13(7) pp 3185--3197 (2017).
    (doi: 10.1021/acs.jctc.7b00174)


                         Additional Contributions by
    P. Kraus, H. Kruse, M. H. Lechner, M. C. Schieber, R. A. Shaw,
    A. Alenaizan, R. Galvelis, Z. L. Glick, S. Lehtola, and J. P. Misiewicz

    -----------------------------------------------------------------------


    Psi4 started on: Thursday, 05 November 2020 07:28PM

    Process ID: 95584
    Host:       node142.bme.utexas.edu
    PSIDATADIR: /home/xy3866/psi4conda/share/psi4
    Memory:     500.0 MiB
    Threads:    8
    
  ==> Input File <==

--------------------------------------------------------------------------
#psi4
#
memory 32 gb

molecule  {
0 1
  O        0.2778030     1.6259200     0.3386670
  O        2.1914470    -1.4110830     0.2143760
  O       -2.8041000    -0.0533200    -1.0004000
  O        2.6534740     0.6903680    -0.5128080
  O       -2.2475040    -0.2263980     1.1904210
  C        0.4723530     0.2278750     0.4110270
  C       -0.5475276    -0.4836224    -0.4783440
  C        1.8865440    -0.1140510    -0.0062910
  C       -1.9249390    -0.2389030     0.0159280
  H        0.3131310    -0.0976200     1.4451750
  H       -0.3508850    -1.5764080    -0.4792290
  H       -0.4317560    -0.1356430    -1.5200150
  H        1.0272260     1.9763200    -0.1823570
  H        3.1099360    -1.5361820    -0.1045700
  H       -3.6753880     0.0844680    -0.5728280
units angstrom
no_reorient  #important for SAPT in psi4, default
symmetry c1  #important for SAPT in psi4, default
}

set PROPERTIES_ORIGIN ["COM"]
properties('MP2/aug-cc-pvtz', properties = ['dipole'])
--------------------------------------------------------------------------

  Memory set to  29.802 GiB by Python driver.
    SCF Algorithm Type (re)set to DF.

*** tstart() called on node142.bme.utexas.edu
*** at Thu Nov  5 19:28:41 2020

   => Loading Basis Set <=

    Name: AUG-CC-PVTZ
    Role: ORBITAL
    Keyword: BASIS
    atoms 1-5   entry O          line   327 file /home/xy3866/psi4conda/share/psi4/basis/aug-cc-pvtz.gbs 
    atoms 6-9   entry C          line   235 file /home/xy3866/psi4conda/share/psi4/basis/aug-cc-pvtz.gbs 
    atoms 10-15 entry H          line    36 file /home/xy3866/psi4conda/share/psi4/basis/aug-cc-pvtz.gbs 


         ---------------------------------------------------------
                                   SCF
               by Justin Turney, Rob Parrish, Andy Simmonett
                          and Daniel G. A. Smith
                              RHF Reference
                        8 Threads,  30517 MiB Core
         ---------------------------------------------------------

  ==> Geometry <==

    Molecular point group: c1
    Full point group: C1

    Geometry (in Angstrom), charge = 0, multiplicity = 1:

       Center              X                  Y                   Z               Mass       
    ------------   -----------------  -----------------  -----------------  -----------------
         O            0.279542074449     1.615436059428     0.326983221128    15.994914619570
         O            2.193186074449    -1.421566940572     0.202692221128    15.994914619570
         O           -2.802360925551    -0.063803940572    -1.012083778872    15.994914619570
         O            2.655213074449     0.679884059428    -0.524491778872    15.994914619570
         O           -2.245764925551    -0.236881940572     1.178737221128    15.994914619570
         C            0.474092074449     0.217391059428     0.399343221128    12.000000000000
         C           -0.545788525551    -0.494106340572    -0.490027778872    12.000000000000
         C            1.888283074449    -0.124534940572    -0.017974778872    12.000000000000
         C           -1.923199925551    -0.249386940572     0.004244221128    12.000000000000
         H            0.314870074449    -0.108103940572     1.433491221128     1.007825032230
         H           -0.349145925551    -1.586891940572    -0.490912778872     1.007825032230
         H           -0.430016925551    -0.146126940572    -1.531698778872     1.007825032230
         H            1.028965074449     1.965836059428    -0.194040778872     1.007825032230
         H            3.111675074449    -1.546665940572    -0.116253778872     1.007825032230
         H           -3.673648925551     0.073984059428    -0.584511778872     1.007825032230

  Running in c1 symmetry.

  Rotational constants: A =      0.11168  B =      0.02954  C =      0.02758 [cm^-1]
  Rotational constants: A =   3348.02982  B =    885.44198  C =    826.76133 [MHz]
  Nuclear repulsion =  464.578647523002132

  Charge       = 0
  Multiplicity = 1
  Electrons    = 70
  Nalpha       = 35
  Nbeta        = 35

  ==> Algorithm <==

  SCF Algorithm Type is DF.
  DIIS enabled.
  MOM disabled.
  Fractional occupation disabled.
  Guess Type is SAD.
  Energy threshold   = 1.00e-10
  Density threshold  = 1.00e-10
  Integral threshold = 0.00e+00

  ==> Primary Basis <==

  Basis Set: AUG-CC-PVTZ
    Blend: AUG-CC-PVTZ
    Number of shells: 180
    Number of basis function: 552
    Number of Cartesian functions: 645
    Spherical Harmonics?: true
    Max angular momentum: 3

   => Loading Basis Set <=

    Name: (AUG-CC-PVTZ AUX)
    Role: JKFIT
    Keyword: DF_BASIS_SCF
    atoms 1-5   entry O          line   286 file /home/xy3866/psi4conda/share/psi4/basis/aug-cc-pvtz-jkfit.gbs 
    atoms 6-9   entry C          line   162 file /home/xy3866/psi4conda/share/psi4/basis/aug-cc-pvtz-jkfit.gbs 
    atoms 10-15 entry H          line    70 file /home/xy3866/psi4conda/share/psi4/basis/aug-cc-pvtz-jkfit.gbs 

  ==> Pre-Iterations <==

   -------------------------------------------------------
    Irrep   Nso     Nmo     Nalpha   Nbeta   Ndocc  Nsocc
   -------------------------------------------------------
     A        552     552       0       0       0       0
   -------------------------------------------------------
    Total     552     552      35      35      35       0
   -------------------------------------------------------

  ==> Integral Setup <==

  DFHelper Memory: AOs need 2.680 GiB; user supplied 22.352 GiB. Using in-core AOs.

  ==> MemDFJK: Density-Fitted J/K Matrices <==

    J tasked:                   Yes
    K tasked:                   Yes
    wK tasked:                   No
    OpenMP threads:               8
    Memory [MiB]:             22888
    Algorithm:                 Disk
    Schwarz Cutoff:           1E-12
    Mask sparsity (%):       5.8778
    Fitting Condition:        1E-10

   => Auxiliary Basis Set <=

  Basis Set: (AUG-CC-PVTZ AUX)
    Blend: AUG-CC-PVTZ-JKFIT
    Number of shells: 354
    Number of basis function: 1212
    Number of Cartesian functions: 1509
    Spherical Harmonics?: true
    Max angular momentum: 4

  Minimum eigenvalue in the overlap matrix is 5.8412609927E-06.
  Using Symmetric Orthogonalization.

  SCF Guess: Superposition of Atomic Densities via on-the-fly atomic UHF.

  ==> Iterations <==

                           Total Energy        Delta E     RMS |[F,P]|

   @DF-RHF iter SAD:  -528.22495781712098   -5.28225e+02   0.00000e+00 
   @DF-RHF iter   1:  -529.21475067932499   -9.89793e-01   1.53371e-03 DIIS
   @DF-RHF iter   2:  -529.42673606748031   -2.11985e-01   9.72707e-04 DIIS
   @DF-RHF iter   3:  -529.51739124378901   -9.06552e-02   1.48375e-04 DIIS
   @DF-RHF iter   4:  -529.52159914433059   -4.20790e-03   7.03319e-05 DIIS
   @DF-RHF iter   5:  -529.52244625710489   -8.47113e-04   1.69704e-05 DIIS
   @DF-RHF iter   6:  -529.52253915675738   -9.28997e-05   8.19179e-06 DIIS
   @DF-RHF iter   7:  -529.52256042818078   -2.12714e-05   2.95318e-06 DIIS
   @DF-RHF iter   8:  -529.52256448806486   -4.05988e-06   1.12097e-06 DIIS
   @DF-RHF iter   9:  -529.52256502655064   -5.38486e-07   2.94945e-07 DIIS
   @DF-RHF iter  10:  -529.52256506358560   -3.70350e-08   9.32296e-08 DIIS
   @DF-RHF iter  11:  -529.52256506611207   -2.52646e-09   2.97764e-08 DIIS
   @DF-RHF iter  12:  -529.52256506631841   -2.06342e-10   1.19433e-08 DIIS
   @DF-RHF iter  13:  -529.52256506635467   -3.62661e-11   3.51375e-09 DIIS
   @DF-RHF iter  14:  -529.52256506635990   -5.22959e-12   1.73055e-09 DIIS
   @DF-RHF iter  15:  -529.52256506635990    0.00000e+00   7.92363e-10 DIIS
   @DF-RHF iter  16:  -529.52256506636138   -1.47793e-12   3.57945e-10 DIIS
   @DF-RHF iter  17:  -529.52256506636115    2.27374e-13   1.53404e-10 DIIS
   @DF-RHF iter  18:  -529.52256506636093    2.27374e-13   5.22193e-11 DIIS
  Energy and wave function converged.


  ==> Post-Iterations <==

    Orbital Energies [Eh]
    ---------------------

    Doubly Occupied:                                                      

       1A    -20.645201     2A    -20.625618     3A    -20.582562  
       4A    -20.575161     5A    -20.558827     6A    -11.416767  
       7A    -11.401030     8A    -11.323967     9A    -11.270173  
      10A     -1.491533    11A     -1.470037    12A     -1.398216  
      13A     -1.373345    14A     -1.365613    15A     -1.091001  
      16A     -0.974252    17A     -0.847442    18A     -0.809351  
      19A     -0.759555    20A     -0.736456    21A     -0.714285  
      22A     -0.704494    23A     -0.673034    24A     -0.651392  
      25A     -0.648020    26A     -0.627440    27A     -0.598894  
      28A     -0.593010    29A     -0.553896    30A     -0.547357  
      31A     -0.511481    32A     -0.491196    33A     -0.484241  
      34A     -0.469736    35A     -0.463807  

    Virtual:                                                              

      36A      0.022899    37A      0.031712    38A      0.042941  
      39A      0.043874    40A      0.049412    41A      0.061367  
      42A      0.080636    43A      0.087684    44A      0.094490  
      45A      0.101985    46A      0.111005    47A      0.115953  
      48A      0.116367    49A      0.120205    50A      0.127702  
      51A      0.131515    52A      0.140029    53A      0.141664  
      54A      0.152633    55A      0.158479    56A      0.164310  
      57A      0.167375    58A      0.173664    59A      0.184237  
      60A      0.188055    61A      0.191812    62A      0.197763  
      63A      0.212231    64A      0.215791    65A      0.216582  
      66A      0.233214    67A      0.241356    68A      0.247246  
      69A      0.254129    70A      0.257165    71A      0.267724  
      72A      0.271085    73A      0.271703    74A      0.274860  
      75A      0.280316    76A      0.293629    77A      0.301865  
      78A      0.309302    79A      0.316248    80A      0.321392  
      81A      0.328978    82A      0.336729    83A      0.346013  
      84A      0.355695    85A      0.358687    86A      0.361498  
      87A      0.368570    88A      0.377156    89A      0.382353  
      90A      0.386359    91A      0.390013    92A      0.399716  
      93A      0.401750    94A      0.406887    95A      0.414262  
      96A      0.423665    97A      0.425535    98A      0.434137  
      99A      0.443554   100A      0.448760   101A      0.459802  
     102A      0.465510   103A      0.469940   104A      0.472735  
     105A      0.479159   106A      0.480995   107A      0.495545  
     108A      0.503593   109A      0.518498   110A      0.519400  
     111A      0.527889   112A      0.535230   113A      0.544830  
     114A      0.558070   115A      0.559149   116A      0.577212  
     117A      0.584918   118A      0.585908   119A      0.601761  
     120A      0.603169   121A      0.604931   122A      0.619542  
     123A      0.626927   124A      0.646664   125A      0.648784  
     126A      0.659522   127A      0.661641   128A      0.671881  
     129A      0.681194   130A      0.693178   131A      0.708977  
     132A      0.725756   133A      0.734850   134A      0.741995  
     135A      0.754216   136A      0.754790   137A      0.768139  
     138A      0.778820   139A      0.786847   140A      0.790821  
     141A      0.800656   142A      0.804638   143A      0.811578  
     144A      0.813313   145A      0.829388   146A      0.839905  
     147A      0.844351   148A      0.845605   149A      0.849777  
     150A      0.863057   151A      0.877218   152A      0.879955  
     153A      0.891198   154A      0.894129   155A      0.907084  
     156A      0.913494   157A      0.918409   158A      0.921862  
     159A      0.935095   160A      0.946263   161A      0.948619  
     162A      0.951753   163A      0.960289   164A      0.978468  
     165A      0.987093   166A      0.992842   167A      0.997212  
     168A      1.006307   169A      1.012965   170A      1.013623  
     171A      1.025315   172A      1.029667   173A      1.033979  
     174A      1.048063   175A      1.053048   176A      1.058441  
     177A      1.069748   178A      1.079685   179A      1.084695  
     180A      1.094553   181A      1.098433   182A      1.103866  
     183A      1.115272   184A      1.116626   185A      1.132660  
     186A      1.136283   187A      1.150941   188A      1.161020  
     189A      1.173877   190A      1.188344   191A      1.191079  
     192A      1.209516   193A      1.212826   194A      1.219769  
     195A      1.228827   196A      1.242150   197A      1.260236  
     198A      1.273499   199A      1.276132   200A      1.282553  
     201A      1.302829   202A      1.310125   203A      1.319192  
     204A      1.327741   205A      1.332214   206A      1.340745  
     207A      1.348360   208A      1.359401   209A      1.381910  
     210A      1.391035   211A      1.399451   212A      1.407586  
     213A      1.427016   214A      1.431362   215A      1.441120  
     216A      1.454960   217A      1.464966   218A      1.481745  
     219A      1.482816   220A      1.487179   221A      1.493496  
     222A      1.509456   223A      1.518418   224A      1.537650  
     225A      1.547998   226A      1.562616   227A      1.565322  
     228A      1.593190   229A      1.597759   230A      1.606559  
     231A      1.610709   232A      1.614646   233A      1.615214  
     234A      1.622313   235A      1.642339   236A      1.658911  
     237A      1.679391   238A      1.690191   239A      1.694041  
     240A      1.697900   241A      1.709770   242A      1.726668  
     243A      1.745394   244A      1.753058   245A      1.757600  
     246A      1.770183   247A      1.782891   248A      1.792411  
     249A      1.808781   250A      1.810629   251A      1.842346  
     252A      1.846564   253A      1.852682   254A      1.866076  
     255A      1.882367   256A      1.894262   257A      1.907985  
     258A      1.914503   259A      1.933616   260A      1.945637  
     261A      1.955139   262A      1.958270   263A      1.962987  
     264A      1.979104   265A      2.005967   266A      2.017744  
     267A      2.023152   268A      2.035207   269A      2.054556  
     270A      2.069330   271A      2.086779   272A      2.116948  
     273A      2.135019   274A      2.146808   275A      2.169262  
     276A      2.184987   277A      2.214375   278A      2.230818  
     279A      2.251506   280A      2.259820   281A      2.279478  
     282A      2.298417   283A      2.317751   284A      2.332132  
     285A      2.345210   286A      2.360146   287A      2.381833  
     288A      2.397677   289A      2.422785   290A      2.444630  
     291A      2.452051   292A      2.460519   293A      2.469455  
     294A      2.483220   295A      2.494224   296A      2.507481  
     297A      2.518570   298A      2.528027   299A      2.533650  
     300A      2.551242   301A      2.570269   302A      2.583130  
     303A      2.599907   304A      2.609674   305A      2.622060  
     306A      2.626766   307A      2.637919   308A      2.645750  
     309A      2.651689   310A      2.668624   311A      2.679107  
     312A      2.703772   313A      2.732467   314A      2.749412  
     315A      2.756455   316A      2.780322   317A      2.802645  
     318A      2.807370   319A      2.816684   320A      2.829023  
     321A      2.843656   322A      2.861710   323A      2.875698  
     324A      2.891193   325A      2.898640   326A      2.904170  
     327A      2.929696   328A      2.946788   329A      2.960762  
     330A      2.983210   331A      2.985447   332A      2.991583  
     333A      3.007722   334A      3.028857   335A      3.049125  
     336A      3.055913   337A      3.071966   338A      3.086002  
     339A      3.110262   340A      3.116469   341A      3.123369  
     342A      3.165851   343A      3.177462   344A      3.192844  
     345A      3.196160   346A      3.230303   347A      3.247372  
     348A      3.295047   349A      3.312792   350A      3.340178  
     351A      3.356374   352A      3.380525   353A      3.388537  
     354A      3.418110   355A      3.446287   356A      3.483625  
     357A      3.488551   358A      3.517827   359A      3.556436  
     360A      3.576953   361A      3.596731   362A      3.619435  
     363A      3.628473   364A      3.640585   365A      3.663277  
     366A      3.674302   367A      3.680922   368A      3.722143  
     369A      3.739356   370A      3.765409   371A      3.767076  
     372A      3.801275   373A      3.821379   374A      3.828906  
     375A      3.851803   376A      3.868037   377A      3.893574  
     378A      3.924835   379A      3.954222   380A      3.973253  
     381A      3.989196   382A      3.999086   383A      4.007546  
     384A      4.023487   385A      4.027838   386A      4.047205  
     387A      4.074961   388A      4.093768   389A      4.108904  
     390A      4.120144   391A      4.136289   392A      4.162284  
     393A      4.198014   394A      4.198809   395A      4.233172  
     396A      4.246924   397A      4.269056   398A      4.275245  
     399A      4.293503   400A      4.321697   401A      4.333113  
     402A      4.343904   403A      4.363159   404A      4.366763  
     405A      4.375499   406A      4.392034   407A      4.399719  
     408A      4.416584   409A      4.456149   410A      4.461920  
     411A      4.477002   412A      4.501093   413A      4.509820  
     414A      4.529516   415A      4.556970   416A      4.571643  
     417A      4.584731   418A      4.620991   419A      4.636663  
     420A      4.668449   421A      4.687430   422A      4.692932  
     423A      4.734890   424A      4.741023   425A      4.764402  
     426A      4.785027   427A      4.807928   428A      4.820804  
     429A      4.836116   430A      4.856188   431A      4.869259  
     432A      4.912984   433A      4.935158   434A      4.953782  
     435A      5.015691   436A      5.021165   437A      5.045117  
     438A      5.070255   439A      5.075920   440A      5.095315  
     441A      5.136310   442A      5.180593   443A      5.191664  
     444A      5.200016   445A      5.215768   446A      5.238072  
     447A      5.247790   448A      5.301299   449A      5.331449  
     450A      5.348346   451A      5.385024   452A      5.395653  
     453A      5.410996   454A      5.424534   455A      5.441465  
     456A      5.460714   457A      5.474497   458A      5.500095  
     459A      5.528447   460A      5.547940   461A      5.592746  
     462A      5.606342   463A      5.643727   464A      5.671229  
     465A      5.734493   466A      5.742208   467A      5.816855  
     468A      5.824315   469A      5.912471   470A      5.991421  
     471A      6.028431   472A      6.079027   473A      6.137217  
     474A      6.170489   475A      6.280835   476A      6.319135  
     477A      6.388248   478A      6.504241   479A      6.580167  
     480A      6.609594   481A      6.644454   482A      6.688328  
     483A      6.700268   484A      6.760204   485A      6.799512  
     486A      6.825036   487A      6.837057   488A      6.848805  
     489A      6.858310   490A      6.872763   491A      6.885187  
     492A      6.886036   493A      6.910549   494A      6.968233  
     495A      6.990505   496A      7.011963   497A      7.040179  
     498A      7.075188   499A      7.090220   500A      7.112196  
     501A      7.187228   502A      7.191723   503A      7.222169  
     504A      7.237337   505A      7.248565   506A      7.270264  
     507A      7.328053   508A      7.337460   509A      7.354735  
     510A      7.364403   511A      7.369701   512A      7.390236  
     513A      7.401294   514A      7.404333   515A      7.418265  
     516A      7.440594   517A      7.510746   518A      7.534200  
     519A      7.555186   520A      7.559872   521A      7.575036  
     522A      7.597443   523A      7.636920   524A      7.667051  
     525A      7.681247   526A      7.686022   527A      7.707028  
     528A      7.714403   529A      7.769604   530A      7.864972  
     531A      7.891499   532A      7.918530   533A      7.958368  
     534A      7.983562   535A      8.001017   536A      8.067185  
     537A      8.105794   538A      8.195421   539A      8.288748  
     540A      8.340920   541A      8.504974   542A      8.560451  
     543A      8.604251   544A     15.227905   545A     15.441629  
     546A     15.760202   547A     16.210475   548A     16.654382  
     549A     17.143077   550A     17.734310   551A     19.606932  
     552A     19.662676  

    Final Occupation by Irrep:
              A 
    DOCC [    35 ]

  @DF-RHF Final Energy:  -529.52256506636093

   => Energetics <=

    Nuclear Repulsion Energy =            464.5786475230021324
    One-Electron Energy =               -1649.3056447400595061
    Two-Electron Energy =                 655.2044321506965616
    Total Energy =                       -529.5225650663609258

Computation Completed

*** tstop() called on node142.bme.utexas.edu at Thu Nov  5 19:30:09 2020
Module time:
	user time   =     389.63 seconds =       6.49 minutes
	system time =      43.82 seconds =       0.73 minutes
	total time  =         88 seconds =       1.47 minutes
Total time:
	user time   =     389.63 seconds =       6.49 minutes
	system time =      43.82 seconds =       0.73 minutes
	total time  =         88 seconds =       1.47 minutes
   => Loading Basis Set <=

    Name: (AUG-CC-PVTZ AUX)
    Role: RIFIT
    Keyword: DF_BASIS_MP2
    atoms 1-5   entry O          line   264 file /home/xy3866/psi4conda/share/psi4/basis/aug-cc-pvtz-ri.gbs 
    atoms 6-9   entry C          line   148 file /home/xy3866/psi4conda/share/psi4/basis/aug-cc-pvtz-ri.gbs 
    atoms 10-15 entry H          line    30 file /home/xy3866/psi4conda/share/psi4/basis/aug-cc-pvtz-ri.gbs 


*** tstart() called on node142.bme.utexas.edu
*** at Thu Nov  5 19:30:10 2020


  //>>>>>>>>>>>>>>>>>>>>>>>>>>>>>>>>>>>//
  //               DFMP2               //
  //<<<<<<<<<<<<<<<<<<<<<<<<<<<<<<<<<<<//

	 --------------------------------------------------------
	                          DF-MP2                         
	      2nd-Order Density-Fitted Moller-Plesset Theory     
	              RMP2 Wavefunction,   8 Threads             
	                                                         
	        Rob Parrish, Justin Turney, Andy Simmonett,      
	           Ed Hohenstein, and C. David Sherrill          
	 --------------------------------------------------------

   => Auxiliary Basis Set <=

  Basis Set: (AUG-CC-PVTZ AUX)
    Blend: AUG-CC-PVTZ-RI
    Number of shells: 336
    Number of basis function: 1230
    Number of Cartesian functions: 1554
    Spherical Harmonics?: true
    Max angular momentum: 4

	 --------------------------------------------------------
	                 NBF =   552, NAUX =  1230
	 --------------------------------------------------------
	   CLASS    FOCC     OCC    AOCC    AVIR     VIR    FVIR
	   PAIRS       0      35      35     517     517       0
	 --------------------------------------------------------

  DFHelper Memory: AOs need 2.680 GiB; user supplied 22.352 GiB. Using in-core AOs.


         ------------------------------------------------------------
                                     CPHF                           
                                  Rob Parrish                       
         ------------------------------------------------------------

  ==> Geometry <==

    Molecular point group: c1
    Full point group: C1

    Geometry (in Angstrom), charge = 0, multiplicity = 1:

       Center              X                  Y                   Z               Mass       
    ------------   -----------------  -----------------  -----------------  -----------------
         O            0.279542074449     1.615436059428     0.326983221128    15.994914619570
         O            2.193186074449    -1.421566940572     0.202692221128    15.994914619570
         O           -2.802360925551    -0.063803940572    -1.012083778872    15.994914619570
         O            2.655213074449     0.679884059428    -0.524491778872    15.994914619570
         O           -2.245764925551    -0.236881940572     1.178737221128    15.994914619570
         C            0.474092074449     0.217391059428     0.399343221128    12.000000000000
         C           -0.545788525551    -0.494106340572    -0.490027778872    12.000000000000
         C            1.888283074449    -0.124534940572    -0.017974778872    12.000000000000
         C           -1.923199925551    -0.249386940572     0.004244221128    12.000000000000
         H            0.314870074449    -0.108103940572     1.433491221128     1.007825032230
         H           -0.349145925551    -1.586891940572    -0.490912778872     1.007825032230
         H           -0.430016925551    -0.146126940572    -1.531698778872     1.007825032230
         H            1.028965074449     1.965836059428    -0.194040778872     1.007825032230
         H            3.111675074449    -1.546665940572    -0.116253778872     1.007825032230
         H           -3.673648925551     0.073984059428    -0.584511778872     1.007825032230

  Nuclear repulsion =  464.578647523002246
  Reference energy  = -529.522565066360926

  ==> Basis Set <==

  Basis Set: AUG-CC-PVTZ
    Blend: AUG-CC-PVTZ
    Number of shells: 180
    Number of basis function: 552
    Number of Cartesian functions: 645
    Spherical Harmonics?: true
    Max angular momentum: 3

  ==> CGRSolver (by Rob Parrish) <==

   Number of roots    =         1
   Preconditioning    =    JACOBI
   Convergence cutoff =     1E-06
   Maximum iterations =       100

  ==> CPHFRHamiltonian (by Rob Parrish) <== 

  ==> MemDFJK: Density-Fitted J/K Matrices <==

    J tasked:                   Yes
    K tasked:                   Yes
    wK tasked:                   No
    OpenMP threads:               8
    Memory [MiB]:             22888
    Algorithm:                 Disk
    Schwarz Cutoff:           1E-12
    Mask sparsity (%):       5.8778
    Fitting Condition:        1E-10

   => Auxiliary Basis Set <=

  Basis Set: (AUG-CC-PVTZ AUX)
    Blend: AUG-CC-PVTZ-JKFIT
    Number of shells: 354
    Number of basis function: 1212
    Number of Cartesian functions: 1509
    Spherical Harmonics?: true
    Max angular momentum: 4

  ==> CPHF Iterations <==

  => Iterations <=

             Iter  Converged  Remaining    Residual
  CGR           1          0          1   1.117E-01
  CGR           2          0          1   3.245E-02
  CGR           3          0          1   1.200E-02
  CGR           4          0          1   3.675E-03
  CGR           5          0          1   1.340E-03
  CGR           6          0          1   3.394E-04
  CGR           7          0          1   8.948E-05
  CGR           8          0          1   3.671E-05
  CGR           9          0          1   1.594E-05
  CGR          10          0          1   7.792E-06
  CGR          11          0          1   2.809E-06
  CGR          12          1          0   8.676E-07

    CGRSolver converged.

	-----------------------------------------------------------
	 ==================> DF-MP2 Energies <==================== 
	-----------------------------------------------------------
	 Reference Energy          =    -529.5225650663609258 [Eh]
	 Singles Energy            =      -0.0000000000000000 [Eh]
	 Same-Spin Energy          =      -0.5055901896757427 [Eh]
	 Opposite-Spin Energy      =      -1.5063866840553479 [Eh]
	 Correlation Energy        =      -2.0119768737310908 [Eh]
	 Total Energy              =    -531.5345419400920264 [Eh]
	-----------------------------------------------------------
	 ================> DF-SCS-MP2 Energies <================== 
	-----------------------------------------------------------
	 SCS Same-Spin Scale       =       0.3333333333333333 [-]
	 SCS Opposite-Spin Scale   =       1.2000000000000000 [-]
	 SCS Same-Spin Energy      =      -0.1685300632252476 [Eh]
	 SCS Opposite-Spin Energy  =      -1.8076640208664174 [Eh]
	 SCS Correlation Energy    =      -1.9761940840916650 [Eh]
	 SCS Total Energy          =    -531.4987591504525426 [Eh]
	-----------------------------------------------------------



Properties will be evaluated at   0.000000,  -0.000000,   0.000000 [a0]

Properties computed using the MP2 density matrix

  Nuclear Dipole Moment: [e a0]
     X:     0.0029      Y:    -1.2609      Z:    -1.3903

  Electronic Dipole Moment: [e a0]
     X:     0.3467      Y:     0.4008      Z:     0.7621

  Dipole Moment: [e a0]
     X:     0.3497      Y:    -0.8601      Z:    -0.6282     Total:     1.1210

  Dipole Moment: [D]
     X:     0.8887      Y:    -2.1861      Z:    -1.5968     Total:     2.8493


*** tstop() called on node142.bme.utexas.edu at Thu Nov  5 19:33:21 2020
Module time:
	user time   =    1106.66 seconds =      18.44 minutes
	system time =      43.81 seconds =       0.73 minutes
	total time  =        191 seconds =       3.18 minutes
Total time:
	user time   =    1497.06 seconds =      24.95 minutes
	system time =      87.70 seconds =       1.46 minutes
	total time  =        280 seconds =       4.67 minutes

    Psi4 stopped on: Thursday, 05 November 2020 07:33PM
    Psi4 wall time for execution: 0:04:40.51

*** Psi4 exiting successfully. Buy a developer a beer!
