
    -----------------------------------------------------------------------
          Psi4: An Open-Source Ab Initio Electronic Structure Package
                               Psi4 1.3.2 release

                         Git: Rev {HEAD} ecbda83 


    R. M. Parrish, L. A. Burns, D. G. A. Smith, A. C. Simmonett,
    A. E. DePrince III, E. G. Hohenstein, U. Bozkaya, A. Yu. Sokolov,
    R. Di Remigio, R. M. Richard, J. F. Gonthier, A. M. James,
    H. R. McAlexander, A. Kumar, M. Saitow, X. Wang, B. P. Pritchard,
    P. Verma, H. F. Schaefer III, K. Patkowski, R. A. King, E. F. Valeev,
    F. A. Evangelista, J. M. Turney, T. D. Crawford, and C. D. Sherrill,
    J. Chem. Theory Comput. 13(7) pp 3185--3197 (2017).
    (doi: 10.1021/acs.jctc.7b00174)


                         Additional Contributions by
    P. Kraus, H. Kruse, M. H. Lechner, M. C. Schieber, R. A. Shaw,
    A. Alenaizan, R. Galvelis, Z. L. Glick, S. Lehtola, and J. P. Misiewicz

    -----------------------------------------------------------------------


    Psi4 started on: Monday, 09 November 2020 02:53AM

    Process ID: 125274
    Host:       node59.bme.utexas.edu
    PSIDATADIR: /home/xy3866/psi4conda/share/psi4
    Memory:     500.0 MiB
    Threads:    8
    
  ==> Input File <==

--------------------------------------------------------------------------
#psi4
#
memory 32 gb

molecule  {
0 1
  C       -2.6260010    -1.3181790     0.0001460
  C       -0.1785650    -0.3909870     0.0002200
  C       -1.6028750    -0.2271810    -0.0000330
  C        0.4037930     0.9065250    -0.0001510
  C       -1.8343220     1.1308500    -0.0000640
  C        2.0432510    -1.3188980     0.0000320
  C        2.5978260    -0.0201320    -0.0000760
  C        0.6688440    -1.5149670    -0.0002860
  C        1.7894520     1.1098640     0.0002960
  N       -0.6328400     1.8116850    -0.0001020
  H        2.7093930    -2.1785160    -0.0003580
  H        3.6789480     0.0978590     0.0002690
  H        0.2537698    -2.5213424    -0.2000660
  H        2.2194000     2.1097800     0.0002850
  H       -3.6376700    -0.9013790    -0.0001930
  H       -2.5281620    -1.9588410     0.8832840
  H       -2.7737480     1.6710560    -0.0003610
  H       -0.5326520     2.8176750    -0.0001200
  H       -2.5278290    -1.9594320    -0.8825300
units angstrom
no_reorient  #important for SAPT in psi4, default
symmetry c1  #important for SAPT in psi4, default
}

set PROPERTIES_ORIGIN ["COM"]
properties('MP2/aug-cc-pvtz', properties = ['dipole'])
--------------------------------------------------------------------------

  Memory set to  29.802 GiB by Python driver.
    SCF Algorithm Type (re)set to DF.

*** tstart() called on node59.bme.utexas.edu
*** at Mon Nov  9 02:53:45 2020

   => Loading Basis Set <=

    Name: AUG-CC-PVTZ
    Role: ORBITAL
    Keyword: BASIS
    atoms 1-9   entry C          line   235 file /home/xy3866/psi4conda/share/psi4/basis/aug-cc-pvtz.gbs 
    atoms 10    entry N          line   281 file /home/xy3866/psi4conda/share/psi4/basis/aug-cc-pvtz.gbs 
    atoms 11-19 entry H          line    36 file /home/xy3866/psi4conda/share/psi4/basis/aug-cc-pvtz.gbs 


         ---------------------------------------------------------
                                   SCF
               by Justin Turney, Rob Parrish, Andy Simmonett
                          and Daniel G. A. Smith
                              RHF Reference
                        8 Threads,  30517 MiB Core
         ---------------------------------------------------------

  ==> Geometry <==

    Molecular point group: c1
    Full point group: C1

    Geometry (in Angstrom), charge = 0, multiplicity = 1:

       Center              X                  Y                   Z               Mass       
    ------------   -----------------  -----------------  -----------------  -----------------
         C           -2.649743565868    -1.339591929221     0.001685393377    12.000000000000
         C           -0.202307565868    -0.412399929221     0.001759393377    12.000000000000
         C           -1.626617565868    -0.248593929221     0.001506393377    12.000000000000
         C            0.380050434132     0.885112070779     0.001388393377    12.000000000000
         C           -1.858064565868     1.109437070779     0.001475393377    12.000000000000
         C            2.019508434132    -1.340310929221     0.001571393377    12.000000000000
         C            2.574083434132    -0.041544929221     0.001463393377    12.000000000000
         C            0.645101434132    -1.536379929221     0.001253393377    12.000000000000
         C            1.765709434132     1.088451070779     0.001835393377    12.000000000000
         N           -0.656582565868     1.790272070779     0.001437393377    14.003074004430
         H            2.685650434132    -2.199928929221     0.001181393377     1.007825032230
         H            3.655205434132     0.076446070779     0.001808393377     1.007825032230
         H            0.230027234132    -2.542755329221    -0.198526606623     1.007825032230
         H            2.195657434132     2.088367070779     0.001824393377     1.007825032230
         H           -3.661412565868    -0.922791929221     0.001346393377     1.007825032230
         H           -2.551904565868    -1.980253929221     0.884823393377     1.007825032230
         H           -2.797490565868     1.649643070779     0.001178393377     1.007825032230
         H           -0.556394565868     2.796262070779     0.001419393377     1.007825032230
         H           -2.551571565868    -1.980844929221    -0.880990606623     1.007825032230

  Running in c1 symmetry.

  Rotational constants: A =      0.08684  B =      0.04227  C =      0.02859 [cm^-1]
  Rotational constants: A =   2603.29021  B =   1267.26350  C =    857.00078 [MHz]
  Nuclear repulsion =  483.185628390020554

  Charge       = 0
  Multiplicity = 1
  Electrons    = 70
  Nalpha       = 35
  Nbeta        = 35

  ==> Algorithm <==

  SCF Algorithm Type is DF.
  DIIS enabled.
  MOM disabled.
  Fractional occupation disabled.
  Guess Type is SAD.
  Energy threshold   = 1.00e-10
  Density threshold  = 1.00e-10
  Integral threshold = 0.00e+00

  ==> Primary Basis <==

  Basis Set: AUG-CC-PVTZ
    Blend: AUG-CC-PVTZ
    Number of shells: 221
    Number of basis function: 667
    Number of Cartesian functions: 775
    Spherical Harmonics?: true
    Max angular momentum: 3

   => Loading Basis Set <=

    Name: (AUG-CC-PVTZ AUX)
    Role: JKFIT
    Keyword: DF_BASIS_SCF
    atoms 1-9   entry C          line   162 file /home/xy3866/psi4conda/share/psi4/basis/aug-cc-pvtz-jkfit.gbs 
    atoms 10    entry N          line   224 file /home/xy3866/psi4conda/share/psi4/basis/aug-cc-pvtz-jkfit.gbs 
    atoms 11-19 entry H          line    70 file /home/xy3866/psi4conda/share/psi4/basis/aug-cc-pvtz-jkfit.gbs 

  ==> Pre-Iterations <==

   -------------------------------------------------------
    Irrep   Nso     Nmo     Nalpha   Nbeta   Ndocc  Nsocc
   -------------------------------------------------------
     A        667     667       0       0       0       0
   -------------------------------------------------------
    Total     667     667      35      35      35       0
   -------------------------------------------------------

  ==> Integral Setup <==

  DFHelper Memory: AOs need 4.717 GiB; user supplied 22.352 GiB. Using in-core AOs.

  ==> MemDFJK: Density-Fitted J/K Matrices <==

    J tasked:                   Yes
    K tasked:                   Yes
    wK tasked:                   No
    OpenMP threads:               8
    Memory [MiB]:             22888
    Algorithm:                 Disk
    Schwarz Cutoff:           1E-12
    Mask sparsity (%):       4.8569
    Fitting Condition:        1E-10

   => Auxiliary Basis Set <=

  Basis Set: (AUG-CC-PVTZ AUX)
    Blend: AUG-CC-PVTZ-JKFIT
    Number of shells: 426
    Number of basis function: 1454
    Number of Cartesian functions: 1805
    Spherical Harmonics?: true
    Max angular momentum: 4

  Minimum eigenvalue in the overlap matrix is 6.3963376805E-07.
  Using Symmetric Orthogonalization.

  SCF Guess: Superposition of Atomic Densities via on-the-fly atomic UHF.

  ==> Iterations <==

                           Total Energy        Delta E     RMS |[F,P]|

   @DF-RHF iter SAD:  -400.45356713474752   -4.00454e+02   0.00000e+00 
   @DF-RHF iter   1:  -400.33135429913665    1.22213e-01   1.05155e-03 DIIS
   @DF-RHF iter   2:  -400.57074137828670   -2.39387e-01   5.24818e-04 DIIS
   @DF-RHF iter   3:  -400.63275469950150   -6.20133e-02   1.21328e-04 DIIS
   @DF-RHF iter   4:  -400.63683504666329   -4.08035e-03   5.35702e-05 DIIS
   @DF-RHF iter   5:  -400.63756722665249   -7.32180e-04   8.88688e-06 DIIS
   @DF-RHF iter   6:  -400.63760441046981   -3.71838e-05   4.13992e-06 DIIS
   @DF-RHF iter   7:  -400.63761312431870   -8.71385e-06   1.57178e-06 DIIS
   @DF-RHF iter   8:  -400.63761538045054   -2.25613e-06   6.76460e-07 DIIS
   @DF-RHF iter   9:  -400.63761583892926   -4.58479e-07   3.06625e-07 DIIS
   @DF-RHF iter  10:  -400.63761593026248   -9.13332e-08   1.37413e-07 DIIS
   @DF-RHF iter  11:  -400.63761595636527   -2.61028e-08   6.19406e-08 DIIS
   @DF-RHF iter  12:  -400.63761596101034   -4.64507e-09   2.56822e-08 DIIS
   @DF-RHF iter  13:  -400.63761596156917   -5.58828e-10   8.07264e-09 DIIS
   @DF-RHF iter  14:  -400.63761596160805   -3.88809e-11   2.78503e-09 DIIS
   @DF-RHF iter  15:  -400.63761596161316   -5.11591e-12   1.03582e-09 DIIS
   @DF-RHF iter  16:  -400.63761596161368   -5.11591e-13   5.74800e-10 DIIS
   @DF-RHF iter  17:  -400.63761596161402   -3.41061e-13   2.84973e-10 DIIS
   @DF-RHF iter  18:  -400.63761596161652   -2.50111e-12   1.09418e-10 DIIS
   @DF-RHF iter  19:  -400.63761596161396    2.55795e-12   4.96478e-11 DIIS
  Energy and wave function converged.


  ==> Post-Iterations <==

    Orbital Energies [Eh]
    ---------------------

    Doubly Occupied:                                                      

       1A    -15.600069     2A    -11.265397     3A    -11.264697  
       4A    -11.232259     5A    -11.232166     6A    -11.229612  
       7A    -11.222834     8A    -11.221928     9A    -11.221463  
      10A    -11.221307    11A     -1.291809    12A     -1.127077  
      13A     -1.072171    14A     -0.997028    15A     -0.985806  
      16A     -0.930836    17A     -0.838526    18A     -0.804070  
      19A     -0.755459    20A     -0.718926    21A     -0.659574  
      22A     -0.644734    23A     -0.602944    24A     -0.593226  
      25A     -0.589868    26A     -0.569649    27A     -0.551344  
      28A     -0.542175    29A     -0.529638    30A     -0.497656  
      31A     -0.476851    32A     -0.460888    33A     -0.374315  
      34A     -0.298763    35A     -0.277787  

    Virtual:                                                              

      36A      0.024774    37A      0.031219    38A      0.033021  
      39A      0.042985    40A      0.044710    41A      0.049772  
      42A      0.061160    43A      0.063732    44A      0.075564  
      45A      0.083410    46A      0.087008    47A      0.097440  
      48A      0.105537    49A      0.105919    50A      0.107623  
      51A      0.114847    52A      0.117241    53A      0.117788  
      54A      0.123758    55A      0.126229    56A      0.128440  
      57A      0.131129    58A      0.133230    59A      0.139845  
      60A      0.146589    61A      0.148130    62A      0.152574  
      63A      0.156678    64A      0.159107    65A      0.159253  
      66A      0.165585    67A      0.174065    68A      0.175685  
      69A      0.182000    70A      0.182183    71A      0.195554  
      72A      0.197077    73A      0.209612    74A      0.211599  
      75A      0.215838    76A      0.218750    77A      0.219129  
      78A      0.230205    79A      0.240907    80A      0.248601  
      81A      0.250203    82A      0.250533    83A      0.267448  
      84A      0.269093    85A      0.269969    86A      0.283400  
      87A      0.285798    88A      0.291359    89A      0.300534  
      90A      0.304725    91A      0.312245    92A      0.319370  
      93A      0.321204    94A      0.325481    95A      0.332949  
      96A      0.337516    97A      0.340327    98A      0.343033  
      99A      0.347068   100A      0.349221   101A      0.354527  
     102A      0.354968   103A      0.365728   104A      0.369435  
     105A      0.372121   106A      0.374392   107A      0.378766  
     108A      0.387788   109A      0.397279   110A      0.401193  
     111A      0.404495   112A      0.409381   113A      0.414664  
     114A      0.420624   115A      0.425290   116A      0.427911  
     117A      0.431989   118A      0.435303   119A      0.438949  
     120A      0.446120   121A      0.454973   122A      0.459064  
     123A      0.464074   124A      0.466274   125A      0.469294  
     126A      0.474400   127A      0.479638   128A      0.489136  
     129A      0.491390   130A      0.493599   131A      0.496005  
     132A      0.502591   133A      0.504317   134A      0.505951  
     135A      0.513085   136A      0.516619   137A      0.517329  
     138A      0.520455   139A      0.525033   140A      0.527273  
     141A      0.535264   142A      0.537355   143A      0.545894  
     144A      0.547564   145A      0.550429   146A      0.553841  
     147A      0.560840   148A      0.563586   149A      0.570621  
     150A      0.572168   151A      0.579615   152A      0.590315  
     153A      0.595545   154A      0.609270   155A      0.622506  
     156A      0.628791   157A      0.631983   158A      0.634804  
     159A      0.638864   160A      0.652142   161A      0.662065  
     162A      0.663511   163A      0.671299   164A      0.685911  
     165A      0.692159   166A      0.704534   167A      0.706568  
     168A      0.713582   169A      0.723717   170A      0.727188  
     171A      0.732458   172A      0.735754   173A      0.741906  
     174A      0.750638   175A      0.758429   176A      0.761936  
     177A      0.765342   178A      0.774102   179A      0.778889  
     180A      0.786164   181A      0.801699   182A      0.816055  
     183A      0.822087   184A      0.828079   185A      0.838787  
     186A      0.846580   187A      0.850279   188A      0.855199  
     189A      0.861691   190A      0.864125   191A      0.867734  
     192A      0.876396   193A      0.883793   194A      0.887363  
     195A      0.894919   196A      0.897592   197A      0.901777  
     198A      0.903481   199A      0.907545   200A      0.914458  
     201A      0.920556   202A      0.927103   203A      0.933443  
     204A      0.936372   205A      0.945647   206A      0.948075  
     207A      0.956027   208A      0.958246   209A      0.971950  
     210A      0.974476   211A      0.983513   212A      0.989744  
     213A      0.999152   214A      1.004108   215A      1.006213  
     216A      1.014494   217A      1.015071   218A      1.018964  
     219A      1.020622   220A      1.024421   221A      1.030743  
     222A      1.040172   223A      1.042510   224A      1.057190  
     225A      1.059348   226A      1.062714   227A      1.067674  
     228A      1.077586   229A      1.082477   230A      1.083930  
     231A      1.090375   232A      1.093180   233A      1.096929  
     234A      1.105791   235A      1.109631   236A      1.127897  
     237A      1.129605   238A      1.133500   239A      1.138956  
     240A      1.149091   241A      1.150954   242A      1.158675  
     243A      1.163983   244A      1.168742   245A      1.173533  
     246A      1.181049   247A      1.184195   248A      1.187916  
     249A      1.191776   250A      1.199207   251A      1.205586  
     252A      1.209560   253A      1.220357   254A      1.224987  
     255A      1.231625   256A      1.237361   257A      1.243360  
     258A      1.246073   259A      1.253052   260A      1.262837  
     261A      1.272310   262A      1.276331   263A      1.284804  
     264A      1.296239   265A      1.299564   266A      1.303931  
     267A      1.314123   268A      1.318866   269A      1.327788  
     270A      1.340167   271A      1.353811   272A      1.359365  
     273A      1.364573   274A      1.370760   275A      1.377452  
     276A      1.380544   277A      1.385807   278A      1.396573  
     279A      1.402046   280A      1.408554   281A      1.414917  
     282A      1.426670   283A      1.438457   284A      1.441187  
     285A      1.456254   286A      1.461234   287A      1.463168  
     288A      1.472302   289A      1.477238   290A      1.483763  
     291A      1.490713   292A      1.494787   293A      1.506996  
     294A      1.520228   295A      1.524239   296A      1.532090  
     297A      1.551245   298A      1.559509   299A      1.566755  
     300A      1.593906   301A      1.597438   302A      1.605325  
     303A      1.617978   304A      1.624779   305A      1.631796  
     306A      1.654000   307A      1.655612   308A      1.668765  
     309A      1.674847   310A      1.680798   311A      1.686349  
     312A      1.699674   313A      1.705363   314A      1.714311  
     315A      1.720754   316A      1.726392   317A      1.740517  
     318A      1.743600   319A      1.753897   320A      1.772056  
     321A      1.779691   322A      1.790759   323A      1.793366  
     324A      1.801930   325A      1.813044   326A      1.816450  
     327A      1.819078   328A      1.832042   329A      1.853584  
     330A      1.863101   331A      1.876733   332A      1.880020  
     333A      1.888723   334A      1.895841   335A      1.901389  
     336A      1.918931   337A      1.922299   338A      1.938205  
     339A      1.947940   340A      1.949335   341A      1.955774  
     342A      1.970202   343A      1.973764   344A      1.988203  
     345A      2.005231   346A      2.009183   347A      2.018853  
     348A      2.026422   349A      2.038699   350A      2.043688  
     351A      2.050916   352A      2.062800   353A      2.070285  
     354A      2.081613   355A      2.087390   356A      2.100210  
     357A      2.118303   358A      2.125968   359A      2.127997  
     360A      2.132278   361A      2.147080   362A      2.155472  
     363A      2.162131   364A      2.181271   365A      2.189946  
     366A      2.193324   367A      2.204503   368A      2.218368  
     369A      2.219628   370A      2.231621   371A      2.244504  
     372A      2.255267   373A      2.268375   374A      2.276140  
     375A      2.279894   376A      2.296612   377A      2.302680  
     378A      2.309788   379A      2.314539   380A      2.336817  
     381A      2.346856   382A      2.364262   383A      2.375017  
     384A      2.389869   385A      2.397965   386A      2.405197  
     387A      2.413464   388A      2.424185   389A      2.447406  
     390A      2.459671   391A      2.462862   392A      2.493255  
     393A      2.511636   394A      2.528708   395A      2.546844  
     396A      2.561111   397A      2.565517   398A      2.581327  
     399A      2.591874   400A      2.599734   401A      2.617393  
     402A      2.632251   403A      2.643421   404A      2.665364  
     405A      2.701500   406A      2.720947   407A      2.733783  
     408A      2.737074   409A      2.758930   410A      2.826428  
     411A      2.827113   412A      2.853523   413A      2.860298  
     414A      2.886028   415A      2.941867   416A      2.966693  
     417A      2.999000   418A      3.012905   419A      3.042633  
     420A      3.058475   421A      3.087903   422A      3.137784  
     423A      3.174124   424A      3.228067   425A      3.239617  
     426A      3.261624   427A      3.280699   428A      3.293105  
     429A      3.303981   430A      3.319918   431A      3.351302  
     432A      3.370137   433A      3.376681   434A      3.386271  
     435A      3.391370   436A      3.393822   437A      3.419726  
     438A      3.434001   439A      3.438921   440A      3.446233  
     441A      3.449615   442A      3.460210   443A      3.476732  
     444A      3.485574   445A      3.494573   446A      3.506803  
     447A      3.514276   448A      3.541805   449A      3.547866  
     450A      3.559848   451A      3.569068   452A      3.580912  
     453A      3.585623   454A      3.600724   455A      3.614449  
     456A      3.623119   457A      3.632310   458A      3.633880  
     459A      3.640392   460A      3.646588   461A      3.655659  
     462A      3.663380   463A      3.684369   464A      3.697308  
     465A      3.703922   466A      3.729899   467A      3.735102  
     468A      3.737118   469A      3.743381   470A      3.760013  
     471A      3.765059   472A      3.776683   473A      3.802004  
     474A      3.810001   475A      3.823242   476A      3.838788  
     477A      3.844423   478A      3.856203   479A      3.863110  
     480A      3.865643   481A      3.893940   482A      3.898757  
     483A      3.909124   484A      3.916389   485A      3.926374  
     486A      3.934597   487A      3.937852   488A      3.951666  
     489A      3.957490   490A      3.966217   491A      3.988189  
     492A      3.997704   493A      4.001569   494A      4.003254  
     495A      4.021684   496A      4.036325   497A      4.042018  
     498A      4.066970   499A      4.079174   500A      4.087635  
     501A      4.094093   502A      4.102489   503A      4.130582  
     504A      4.135008   505A      4.138496   506A      4.146339  
     507A      4.155438   508A      4.161316   509A      4.172437  
     510A      4.180630   511A      4.194375   512A      4.202798  
     513A      4.220153   514A      4.237962   515A      4.248245  
     516A      4.256799   517A      4.264178   518A      4.275686  
     519A      4.278629   520A      4.284361   521A      4.295986  
     522A      4.310302   523A      4.330862   524A      4.336494  
     525A      4.353797   526A      4.362671   527A      4.378288  
     528A      4.381181   529A      4.391417   530A      4.398718  
     531A      4.407263   532A      4.417645   533A      4.427178  
     534A      4.434072   535A      4.437672   536A      4.451798  
     537A      4.465203   538A      4.480108   539A      4.482080  
     540A      4.494951   541A      4.519695   542A      4.531390  
     543A      4.538244   544A      4.558348   545A      4.562169  
     546A      4.566001   547A      4.575946   548A      4.591058  
     549A      4.613123   550A      4.649668   551A      4.658743  
     552A      4.678124   553A      4.691796   554A      4.699756  
     555A      4.710978   556A      4.724684   557A      4.738364  
     558A      4.755794   559A      4.787154   560A      4.806626  
     561A      4.811228   562A      4.815798   563A      4.831339  
     564A      4.850777   565A      4.856660   566A      4.875671  
     567A      4.893267   568A      4.896148   569A      4.911298  
     570A      4.943047   571A      4.958906   572A      4.973552  
     573A      4.979919   574A      5.002969   575A      5.027327  
     576A      5.039793   577A      5.045792   578A      5.073778  
     579A      5.083473   580A      5.090032   581A      5.104960  
     582A      5.129532   583A      5.133999   584A      5.146579  
     585A      5.154044   586A      5.155449   587A      5.163635  
     588A      5.188772   589A      5.194651   590A      5.214100  
     591A      5.223758   592A      5.232517   593A      5.238408  
     594A      5.257135   595A      5.269842   596A      5.296467  
     597A      5.327164   598A      5.348419   599A      5.372885  
     600A      5.392070   601A      5.401530   602A      5.412603  
     603A      5.443746   604A      5.469178   605A      5.516523  
     606A      5.533039   607A      5.560640   608A      5.567020  
     609A      5.587211   610A      5.594884   611A      5.609050  
     612A      5.622618   613A      5.638292   614A      5.658787  
     615A      5.671956   616A      5.678343   617A      5.711424  
     618A      5.765122   619A      5.767090   620A      5.819808  
     621A      5.852371   622A      5.857984   623A      5.880185  
     624A      5.918998   625A      5.922684   626A      6.006335  
     627A      6.076380   628A      6.092056   629A      6.100178  
     630A      6.119983   631A      6.169466   632A      6.177313  
     633A      6.214547   634A      6.239489   635A      6.245375  
     636A      6.273798   637A      6.301361   638A      6.344666  
     639A      6.384445   640A      6.439013   641A      6.469157  
     642A      6.560967   643A      6.632696   644A      6.671994  
     645A      6.700114   646A      6.771192   647A      6.824043  
     648A      6.855349   649A      6.884271   650A      6.947743  
     651A      7.005327   652A      7.021172   653A      7.100420  
     654A      7.179124   655A      7.215236   656A      7.513454  
     657A      7.842325   658A     16.318568   659A     16.727228  
     660A     17.169671   661A     18.779014   662A     18.916405  
     663A     19.152424   664A     19.838366   665A     20.404641  
     666A     20.626850   667A     21.053599  

    Final Occupation by Irrep:
              A 
    DOCC [    35 ]

  @DF-RHF Final Energy:  -400.63761596161396

   => Energetics <=

    Nuclear Repulsion Energy =            483.1856283900205540
    One-Electron Energy =               -1499.8407838884431840
    Two-Electron Energy =                 616.0175395368086129
    Total Energy =                       -400.6376159616139603

Computation Completed

*** tstop() called on node59.bme.utexas.edu at Mon Nov  9 02:55:00 2020
Module time:
	user time   =     332.28 seconds =       5.54 minutes
	system time =      41.61 seconds =       0.69 minutes
	total time  =         75 seconds =       1.25 minutes
Total time:
	user time   =     332.28 seconds =       5.54 minutes
	system time =      41.61 seconds =       0.69 minutes
	total time  =         75 seconds =       1.25 minutes
   => Loading Basis Set <=

    Name: (AUG-CC-PVTZ AUX)
    Role: RIFIT
    Keyword: DF_BASIS_MP2
    atoms 1-9   entry C          line   148 file /home/xy3866/psi4conda/share/psi4/basis/aug-cc-pvtz-ri.gbs 
    atoms 10    entry N          line   206 file /home/xy3866/psi4conda/share/psi4/basis/aug-cc-pvtz-ri.gbs 
    atoms 11-19 entry H          line    30 file /home/xy3866/psi4conda/share/psi4/basis/aug-cc-pvtz-ri.gbs 


*** tstart() called on node59.bme.utexas.edu
*** at Mon Nov  9 02:55:00 2020


  //>>>>>>>>>>>>>>>>>>>>>>>>>>>>>>>>>>>//
  //               DFMP2               //
  //<<<<<<<<<<<<<<<<<<<<<<<<<<<<<<<<<<<//

	 --------------------------------------------------------
	                          DF-MP2                         
	      2nd-Order Density-Fitted Moller-Plesset Theory     
	              RMP2 Wavefunction,   8 Threads             
	                                                         
	        Rob Parrish, Justin Turney, Andy Simmonett,      
	           Ed Hohenstein, and C. David Sherrill          
	 --------------------------------------------------------

   => Auxiliary Basis Set <=

  Basis Set: (AUG-CC-PVTZ AUX)
    Blend: AUG-CC-PVTZ-RI
    Number of shells: 406
    Number of basis function: 1474
    Number of Cartesian functions: 1855
    Spherical Harmonics?: true
    Max angular momentum: 4

	 --------------------------------------------------------
	                 NBF =   667, NAUX =  1474
	 --------------------------------------------------------
	   CLASS    FOCC     OCC    AOCC    AVIR     VIR    FVIR
	   PAIRS       0      35      35     632     632       0
	 --------------------------------------------------------

  DFHelper Memory: AOs need 4.717 GiB; user supplied 22.352 GiB. Using in-core AOs.


         ------------------------------------------------------------
                                     CPHF                           
                                  Rob Parrish                       
         ------------------------------------------------------------

  ==> Geometry <==

    Molecular point group: c1
    Full point group: C1

    Geometry (in Angstrom), charge = 0, multiplicity = 1:

       Center              X                  Y                   Z               Mass       
    ------------   -----------------  -----------------  -----------------  -----------------
         C           -2.649743565868    -1.339591929221     0.001685393377    12.000000000000
         C           -0.202307565868    -0.412399929221     0.001759393377    12.000000000000
         C           -1.626617565868    -0.248593929221     0.001506393377    12.000000000000
         C            0.380050434132     0.885112070779     0.001388393377    12.000000000000
         C           -1.858064565868     1.109437070779     0.001475393377    12.000000000000
         C            2.019508434132    -1.340310929221     0.001571393377    12.000000000000
         C            2.574083434132    -0.041544929221     0.001463393377    12.000000000000
         C            0.645101434132    -1.536379929221     0.001253393377    12.000000000000
         C            1.765709434132     1.088451070779     0.001835393377    12.000000000000
         N           -0.656582565868     1.790272070779     0.001437393377    14.003074004430
         H            2.685650434132    -2.199928929221     0.001181393377     1.007825032230
         H            3.655205434132     0.076446070779     0.001808393377     1.007825032230
         H            0.230027234132    -2.542755329221    -0.198526606623     1.007825032230
         H            2.195657434132     2.088367070779     0.001824393377     1.007825032230
         H           -3.661412565868    -0.922791929221     0.001346393377     1.007825032230
         H           -2.551904565868    -1.980253929221     0.884823393377     1.007825032230
         H           -2.797490565868     1.649643070779     0.001178393377     1.007825032230
         H           -0.556394565868     2.796262070779     0.001419393377     1.007825032230
         H           -2.551571565868    -1.980844929221    -0.880990606623     1.007825032230

  Nuclear repulsion =  483.185628390020554
  Reference energy  = -400.637615961613960

  ==> Basis Set <==

  Basis Set: AUG-CC-PVTZ
    Blend: AUG-CC-PVTZ
    Number of shells: 221
    Number of basis function: 667
    Number of Cartesian functions: 775
    Spherical Harmonics?: true
    Max angular momentum: 3

  ==> CGRSolver (by Rob Parrish) <==

   Number of roots    =         1
   Preconditioning    =    JACOBI
   Convergence cutoff =     1E-06
   Maximum iterations =       100

  ==> CPHFRHamiltonian (by Rob Parrish) <== 

  ==> MemDFJK: Density-Fitted J/K Matrices <==

    J tasked:                   Yes
    K tasked:                   Yes
    wK tasked:                   No
    OpenMP threads:               8
    Memory [MiB]:             22888
    Algorithm:                 Disk
    Schwarz Cutoff:           1E-12
    Mask sparsity (%):       4.8569
    Fitting Condition:        1E-10

   => Auxiliary Basis Set <=

  Basis Set: (AUG-CC-PVTZ AUX)
    Blend: AUG-CC-PVTZ-JKFIT
    Number of shells: 426
    Number of basis function: 1454
    Number of Cartesian functions: 1805
    Spherical Harmonics?: true
    Max angular momentum: 4

  ==> CPHF Iterations <==

  => Iterations <=

             Iter  Converged  Remaining    Residual
  CGR           1          0          1   8.871E-02
  CGR           2          0          1   3.201E-02
  CGR           3          0          1   1.794E-02
  CGR           4          0          1   6.794E-03
  CGR           5          0          1   3.071E-03
  CGR           6          0          1   1.702E-03
  CGR           7          0          1   5.432E-04
  CGR           8          0          1   1.815E-04
  CGR           9          0          1   6.721E-05
  CGR          10          0          1   3.358E-05
  CGR          11          0          1   1.748E-05
  CGR          12          0          1   6.209E-06
  CGR          13          0          1   1.940E-06
  CGR          14          1          0   5.297E-07

    CGRSolver converged.

	-----------------------------------------------------------
	 ==================> DF-MP2 Energies <==================== 
	-----------------------------------------------------------
	 Reference Energy          =    -400.6376159616139603 [Eh]
	 Singles Energy            =      -0.0000000000000000 [Eh]
	 Same-Spin Energy          =      -0.4518587359726870 [Eh]
	 Opposite-Spin Energy      =      -1.4044528631600015 [Eh]
	 Correlation Energy        =      -1.8563115991326886 [Eh]
	 Total Energy              =    -402.4939275607466698 [Eh]
	-----------------------------------------------------------
	 ================> DF-SCS-MP2 Energies <================== 
	-----------------------------------------------------------
	 SCS Same-Spin Scale       =       0.3333333333333333 [-]
	 SCS Opposite-Spin Scale   =       1.2000000000000000 [-]
	 SCS Same-Spin Energy      =      -0.1506195786575623 [Eh]
	 SCS Opposite-Spin Energy  =      -1.6853434357920019 [Eh]
	 SCS Correlation Energy    =      -1.8359630144495642 [Eh]
	 SCS Total Energy          =    -402.4735789760635498 [Eh]
	-----------------------------------------------------------



Properties will be evaluated at  -0.000000,   0.000000,   0.000000 [a0]

Properties computed using the MP2 density matrix

  Nuclear Dipole Moment: [e a0]
     X:    -3.1407      Y:    -2.8325      Z:    -0.1743

  Electronic Dipole Moment: [e a0]
     X:     2.7689      Y:     3.5551      Z:     0.1262

  Dipole Moment: [e a0]
     X:    -0.3718      Y:     0.7227      Z:    -0.0481     Total:     0.8141

  Dipole Moment: [D]
     X:    -0.9450      Y:     1.8368      Z:    -0.1223     Total:     2.0693


*** tstop() called on node59.bme.utexas.edu at Mon Nov  9 02:57:46 2020
Module time:
	user time   =     990.01 seconds =      16.50 minutes
	system time =      47.01 seconds =       0.78 minutes
	total time  =        166 seconds =       2.77 minutes
Total time:
	user time   =    1323.45 seconds =      22.06 minutes
	system time =      88.71 seconds =       1.48 minutes
	total time  =        241 seconds =       4.02 minutes

    Psi4 stopped on: Monday, 09 November 2020 02:57AM
    Psi4 wall time for execution: 0:04:01.05

*** Psi4 exiting successfully. Buy a developer a beer!
