
    -----------------------------------------------------------------------
          Psi4: An Open-Source Ab Initio Electronic Structure Package
                               Psi4 1.3.2 release

                         Git: Rev {HEAD} ecbda83 


    R. M. Parrish, L. A. Burns, D. G. A. Smith, A. C. Simmonett,
    A. E. DePrince III, E. G. Hohenstein, U. Bozkaya, A. Yu. Sokolov,
    R. Di Remigio, R. M. Richard, J. F. Gonthier, A. M. James,
    H. R. McAlexander, A. Kumar, M. Saitow, X. Wang, B. P. Pritchard,
    P. Verma, H. F. Schaefer III, K. Patkowski, R. A. King, E. F. Valeev,
    F. A. Evangelista, J. M. Turney, T. D. Crawford, and C. D. Sherrill,
    J. Chem. Theory Comput. 13(7) pp 3185--3197 (2017).
    (doi: 10.1021/acs.jctc.7b00174)


                         Additional Contributions by
    P. Kraus, H. Kruse, M. H. Lechner, M. C. Schieber, R. A. Shaw,
    A. Alenaizan, R. Galvelis, Z. L. Glick, S. Lehtola, and J. P. Misiewicz

    -----------------------------------------------------------------------


    Psi4 started on: Monday, 09 November 2020 12:18AM

    Process ID: 118917
    Host:       node59.bme.utexas.edu
    PSIDATADIR: /home/xy3866/psi4conda/share/psi4
    Memory:     500.0 MiB
    Threads:    8
    
  ==> Input File <==

--------------------------------------------------------------------------
#psi4
#
memory 32 gb

molecule  {
0 1
  C       -2.6260010    -1.3181790     0.0001460
  C       -0.1785650    -0.3909870     0.0002200
  C       -1.6028750    -0.2271810    -0.0000330
  C        0.4037930     0.9065250    -0.0001510
  C       -1.8343220     1.1308500    -0.0000640
  C        2.0432510    -1.3188980     0.0000320
  C        2.5978260    -0.0201320    -0.0000760
  C        0.6688355    -1.5149624    -0.1002860
  C        1.7894520     1.1098640     0.0002960
  N       -0.6328400     1.8116850    -0.0001020
  H        2.7093930    -2.1785160    -0.0003580
  H        3.6789480     0.0978590     0.0002690
  H        0.2537760    -2.5213680    -0.0000660
  H        2.2194000     2.1097800     0.0002850
  H       -3.6376700    -0.9013790    -0.0001930
  H       -2.5281620    -1.9588410     0.8832840
  H       -2.7737480     1.6710560    -0.0003610
  H       -0.5326520     2.8176750    -0.0001200
  H       -2.5278290    -1.9594320    -0.8825300
units angstrom
no_reorient  #important for SAPT in psi4, default
symmetry c1  #important for SAPT in psi4, default
}

set PROPERTIES_ORIGIN ["COM"]
properties('MP2/aug-cc-pvtz', properties = ['dipole'])
--------------------------------------------------------------------------

  Memory set to  29.802 GiB by Python driver.
    SCF Algorithm Type (re)set to DF.

*** tstart() called on node59.bme.utexas.edu
*** at Mon Nov  9 00:18:58 2020

   => Loading Basis Set <=

    Name: AUG-CC-PVTZ
    Role: ORBITAL
    Keyword: BASIS
    atoms 1-9   entry C          line   235 file /home/xy3866/psi4conda/share/psi4/basis/aug-cc-pvtz.gbs 
    atoms 10    entry N          line   281 file /home/xy3866/psi4conda/share/psi4/basis/aug-cc-pvtz.gbs 
    atoms 11-19 entry H          line    36 file /home/xy3866/psi4conda/share/psi4/basis/aug-cc-pvtz.gbs 


         ---------------------------------------------------------
                                   SCF
               by Justin Turney, Rob Parrish, Andy Simmonett
                          and Daniel G. A. Smith
                              RHF Reference
                        8 Threads,  30517 MiB Core
         ---------------------------------------------------------

  ==> Geometry <==

    Molecular point group: c1
    Full point group: C1

    Geometry (in Angstrom), charge = 0, multiplicity = 1:

       Center              X                  Y                   Z               Mass       
    ------------   -----------------  -----------------  -----------------  -----------------
         C           -2.649742835351    -1.339592153520     0.009302760724    12.000000000000
         C           -0.202306835351    -0.412400153520     0.009376760724    12.000000000000
         C           -1.626616835351    -0.248594153520     0.009123760724    12.000000000000
         C            0.380051164649     0.885111846480     0.009005760724    12.000000000000
         C           -1.858063835351     1.109436846480     0.009092760724    12.000000000000
         C            2.019509164649    -1.340311153520     0.009188760724    12.000000000000
         C            2.574084164649    -0.041545153520     0.009080760724    12.000000000000
         C            0.645093664649    -1.536375553520    -0.091129239276    12.000000000000
         C            1.765710164649     1.088450846480     0.009452760724    12.000000000000
         N           -0.656581835351     1.790271846480     0.009054760724    14.003074004430
         H            2.685651164649    -2.199929153520     0.008798760724     1.007825032230
         H            3.655206164649     0.076445846480     0.009425760724     1.007825032230
         H            0.230034164649    -2.542781153520     0.009090760724     1.007825032230
         H            2.195658164649     2.088366846480     0.009441760724     1.007825032230
         H           -3.661411835351    -0.922792153520     0.008963760724     1.007825032230
         H           -2.551903835351    -1.980254153520     0.892440760724     1.007825032230
         H           -2.797489835351     1.649642846480     0.008795760724     1.007825032230
         H           -0.556393835351     2.796261846480     0.009036760724     1.007825032230
         H           -2.551570835351    -1.980845153520    -0.873373239276     1.007825032230

  Running in c1 symmetry.

  Rotational constants: A =      0.08681  B =      0.04227  C =      0.02859 [cm^-1]
  Rotational constants: A =   2602.37959  B =   1267.09350  C =    856.97526 [MHz]
  Nuclear repulsion =  483.142598461928856

  Charge       = 0
  Multiplicity = 1
  Electrons    = 70
  Nalpha       = 35
  Nbeta        = 35

  ==> Algorithm <==

  SCF Algorithm Type is DF.
  DIIS enabled.
  MOM disabled.
  Fractional occupation disabled.
  Guess Type is SAD.
  Energy threshold   = 1.00e-10
  Density threshold  = 1.00e-10
  Integral threshold = 0.00e+00

  ==> Primary Basis <==

  Basis Set: AUG-CC-PVTZ
    Blend: AUG-CC-PVTZ
    Number of shells: 221
    Number of basis function: 667
    Number of Cartesian functions: 775
    Spherical Harmonics?: true
    Max angular momentum: 3

   => Loading Basis Set <=

    Name: (AUG-CC-PVTZ AUX)
    Role: JKFIT
    Keyword: DF_BASIS_SCF
    atoms 1-9   entry C          line   162 file /home/xy3866/psi4conda/share/psi4/basis/aug-cc-pvtz-jkfit.gbs 
    atoms 10    entry N          line   224 file /home/xy3866/psi4conda/share/psi4/basis/aug-cc-pvtz-jkfit.gbs 
    atoms 11-19 entry H          line    70 file /home/xy3866/psi4conda/share/psi4/basis/aug-cc-pvtz-jkfit.gbs 

  ==> Pre-Iterations <==

   -------------------------------------------------------
    Irrep   Nso     Nmo     Nalpha   Nbeta   Ndocc  Nsocc
   -------------------------------------------------------
     A        667     667       0       0       0       0
   -------------------------------------------------------
    Total     667     667      35      35      35       0
   -------------------------------------------------------

  ==> Integral Setup <==

  DFHelper Memory: AOs need 4.717 GiB; user supplied 22.352 GiB. Using in-core AOs.

  ==> MemDFJK: Density-Fitted J/K Matrices <==

    J tasked:                   Yes
    K tasked:                   Yes
    wK tasked:                   No
    OpenMP threads:               8
    Memory [MiB]:             22888
    Algorithm:                 Disk
    Schwarz Cutoff:           1E-12
    Mask sparsity (%):       4.8587
    Fitting Condition:        1E-10

   => Auxiliary Basis Set <=

  Basis Set: (AUG-CC-PVTZ AUX)
    Blend: AUG-CC-PVTZ-JKFIT
    Number of shells: 426
    Number of basis function: 1454
    Number of Cartesian functions: 1805
    Spherical Harmonics?: true
    Max angular momentum: 4

  Minimum eigenvalue in the overlap matrix is 8.4250243977E-07.
  Using Symmetric Orthogonalization.

  SCF Guess: Superposition of Atomic Densities via on-the-fly atomic UHF.

  ==> Iterations <==

                           Total Energy        Delta E     RMS |[F,P]|

   @DF-RHF iter SAD:  -400.45000515589953   -4.00450e+02   0.00000e+00 
   @DF-RHF iter   1:  -400.33187168088580    1.18133e-01   1.04961e-03 DIIS
   @DF-RHF iter   2:  -400.57078870542659   -2.38917e-01   5.22349e-04 DIIS
   @DF-RHF iter   3:  -400.63221442837090   -6.14257e-02   1.21050e-04 DIIS
   @DF-RHF iter   4:  -400.63627901214051   -4.06458e-03   5.33457e-05 DIIS
   @DF-RHF iter   5:  -400.63700532278324   -7.26311e-04   8.87015e-06 DIIS
   @DF-RHF iter   6:  -400.63704239844105   -3.70757e-05   4.12770e-06 DIIS
   @DF-RHF iter   7:  -400.63705105983024   -8.66139e-06   1.56802e-06 DIIS
   @DF-RHF iter   8:  -400.63705331185565   -2.25203e-06   6.73730e-07 DIIS
   @DF-RHF iter   9:  -400.63705376831052   -4.56455e-07   3.05328e-07 DIIS
   @DF-RHF iter  10:  -400.63705385895855   -9.06480e-08   1.37290e-07 DIIS
   @DF-RHF iter  11:  -400.63705388499596   -2.60374e-08   6.20565e-08 DIIS
   @DF-RHF iter  12:  -400.63705388966719   -4.67122e-09   2.54189e-08 DIIS
   @DF-RHF iter  13:  -400.63705389021885   -5.51665e-10   8.11706e-09 DIIS
   @DF-RHF iter  14:  -400.63705389025984   -4.09841e-11   2.82176e-09 DIIS
   @DF-RHF iter  15:  -400.63705389026273   -2.89901e-12   1.03285e-09 DIIS
   @DF-RHF iter  16:  -400.63705389026347   -7.38964e-13   5.76665e-10 DIIS
   @DF-RHF iter  17:  -400.63705389026404   -5.68434e-13   2.84227e-10 DIIS
   @DF-RHF iter  18:  -400.63705389026597   -1.93268e-12   1.10738e-10 DIIS
   @DF-RHF iter  19:  -400.63705389026512    8.52651e-13   5.01795e-11 DIIS
  Energy and wave function converged.


  ==> Post-Iterations <==

    Orbital Energies [Eh]
    ---------------------

    Doubly Occupied:                                                      

       1A    -15.600035     2A    -11.265229     3A    -11.264775  
       4A    -11.232373     5A    -11.231357     6A    -11.229435  
       7A    -11.222996     8A    -11.222059     9A    -11.221999  
      10A    -11.221328    11A     -1.291769    12A     -1.126620  
      13A     -1.072130    14A     -0.996886    15A     -0.985631  
      16A     -0.930900    17A     -0.838871    18A     -0.803502  
      19A     -0.755575    20A     -0.719749    21A     -0.659815  
      22A     -0.644458    23A     -0.603091    24A     -0.593757  
      25A     -0.589897    26A     -0.569411    27A     -0.551341  
      28A     -0.542235    29A     -0.529523    30A     -0.497148  
      31A     -0.475798    32A     -0.462210    33A     -0.374382  
      34A     -0.298411    35A     -0.277891  

    Virtual:                                                              

      36A      0.024785    37A      0.031224    38A      0.033024  
      39A      0.043026    40A      0.044683    41A      0.049728  
      42A      0.061320    43A      0.063838    44A      0.076137  
      45A      0.082867    46A      0.087193    47A      0.093946  
      48A      0.105157    49A      0.106099    50A      0.107757  
      51A      0.114172    52A      0.117330    53A      0.117585  
      54A      0.123944    55A      0.126231    56A      0.128570  
      57A      0.130680    58A      0.133247    59A      0.139931  
      60A      0.147873    61A      0.147949    62A      0.151708  
      63A      0.156334    64A      0.158966    65A      0.159669  
      66A      0.167444    67A      0.172196    68A      0.176477  
      69A      0.180669    70A      0.183553    71A      0.195369  
      72A      0.196108    73A      0.204163    74A      0.211054  
      75A      0.216212    76A      0.217669    77A      0.220892  
      78A      0.230547    79A      0.239842    80A      0.248503  
      81A      0.250065    82A      0.251918    83A      0.266936  
      84A      0.268928    85A      0.269030    86A      0.280705  
      87A      0.285900    88A      0.288882    89A      0.296514  
      90A      0.303307    91A      0.311667    92A      0.319051  
      93A      0.320521    94A      0.327114    95A      0.332072  
      96A      0.335930    97A      0.338092    98A      0.342835  
      99A      0.347773   100A      0.350396   101A      0.354645  
     102A      0.357230   103A      0.366075   104A      0.368574  
     105A      0.371049   106A      0.374639   107A      0.378942  
     108A      0.389367   109A      0.397386   110A      0.402039  
     111A      0.403592   112A      0.408353   113A      0.412793  
     114A      0.419970   115A      0.423456   116A      0.425744  
     117A      0.431013   118A      0.434078   119A      0.441764  
     120A      0.444709   121A      0.447148   122A      0.458253  
     123A      0.462135   124A      0.466715   125A      0.470880  
     126A      0.473215   127A      0.480157   128A      0.483520  
     129A      0.488374   130A      0.492103   131A      0.494604  
     132A      0.502901   133A      0.503716   134A      0.505883  
     135A      0.511617   136A      0.516399   137A      0.518407  
     138A      0.520023   139A      0.525070   140A      0.529253  
     141A      0.535657   142A      0.538381   143A      0.544403  
     144A      0.546219   145A      0.551514   146A      0.555842  
     147A      0.561325   148A      0.564232   149A      0.570697  
     150A      0.574026   151A      0.577829   152A      0.591062  
     153A      0.596116   154A      0.607975   155A      0.621545  
     156A      0.624027   157A      0.629025   158A      0.633479  
     159A      0.636580   160A      0.655052   161A      0.663187  
     162A      0.670052   163A      0.679999   164A      0.684170  
     165A      0.694633   166A      0.703095   167A      0.704934  
     168A      0.710212   169A      0.724043   170A      0.728587  
     171A      0.732350   172A      0.733782   173A      0.740547  
     174A      0.747362   175A      0.754901   176A      0.764957  
     177A      0.771242   178A      0.775806   179A      0.779335  
     180A      0.792493   181A      0.803213   182A      0.813747  
     183A      0.820911   184A      0.825494   185A      0.828744  
     186A      0.848436   187A      0.849899   188A      0.853562  
     189A      0.859296   190A      0.864172   191A      0.867793  
     192A      0.874843   193A      0.881008   194A      0.887747  
     195A      0.890222   196A      0.899617   197A      0.902560  
     198A      0.909056   199A      0.909675   200A      0.915598  
     201A      0.919795   202A      0.928237   203A      0.930139  
     204A      0.935945   205A      0.944156   206A      0.948685  
     207A      0.956821   208A      0.958226   209A      0.967044  
     210A      0.975921   211A      0.984137   212A      0.991088  
     213A      0.997299   214A      1.006032   215A      1.009462  
     216A      1.012362   217A      1.013835   218A      1.017322  
     219A      1.022023   220A      1.026534   221A      1.037099  
     222A      1.040083   223A      1.045325   224A      1.056677  
     225A      1.061020   226A      1.066959   227A      1.072474  
     228A      1.076312   229A      1.083365   230A      1.086325  
     231A      1.092073   232A      1.095793   233A      1.098894  
     234A      1.106594   235A      1.109767   236A      1.124883  
     237A      1.132302   238A      1.135734   239A      1.142114  
     240A      1.149742   241A      1.153638   242A      1.158913  
     243A      1.161286   244A      1.168206   245A      1.174816  
     246A      1.178931   247A      1.182548   248A      1.187927  
     249A      1.195057   250A      1.200276   251A      1.204254  
     252A      1.208917   253A      1.219996   254A      1.223350  
     255A      1.232283   256A      1.235150   257A      1.239799  
     258A      1.244748   259A      1.249392   260A      1.263066  
     261A      1.273634   262A      1.280752   263A      1.283488  
     264A      1.292126   265A      1.300751   266A      1.305799  
     267A      1.314167   268A      1.320817   269A      1.328177  
     270A      1.337969   271A      1.351776   272A      1.357629  
     273A      1.359404   274A      1.365994   275A      1.373058  
     276A      1.383228   277A      1.394231   278A      1.399993  
     279A      1.406479   280A      1.408544   281A      1.411918  
     282A      1.416225   283A      1.432868   284A      1.442508  
     285A      1.450522   286A      1.458743   287A      1.461855  
     288A      1.470975   289A      1.476265   290A      1.482351  
     291A      1.484568   292A      1.489094   293A      1.500318  
     294A      1.519252   295A      1.524004   296A      1.526840  
     297A      1.549849   298A      1.559606   299A      1.568152  
     300A      1.592996   301A      1.601609   302A      1.603795  
     303A      1.610644   304A      1.627134   305A      1.629456  
     306A      1.652561   307A      1.656457   308A      1.667120  
     309A      1.672467   310A      1.682070   311A      1.685404  
     312A      1.701942   313A      1.704666   314A      1.710328  
     315A      1.725011   316A      1.734351   317A      1.738263  
     318A      1.744476   319A      1.759468   320A      1.767898  
     321A      1.778302   322A      1.790421   323A      1.792630  
     324A      1.795323   325A      1.810001   326A      1.815895  
     327A      1.822767   328A      1.830962   329A      1.851578  
     330A      1.861517   331A      1.872595   332A      1.883352  
     333A      1.889740   334A      1.896544   335A      1.899215  
     336A      1.916168   337A      1.919789   338A      1.934953  
     339A      1.947478   340A      1.950739   341A      1.964056  
     342A      1.970677   343A      1.980750   344A      1.985807  
     345A      2.002433   346A      2.009547   347A      2.021155  
     348A      2.030201   349A      2.033796   350A      2.044372  
     351A      2.050324   352A      2.063623   353A      2.065869  
     354A      2.079916   355A      2.084682   356A      2.098019  
     357A      2.114459   358A      2.122307   359A      2.126985  
     360A      2.137792   361A      2.148620   362A      2.151461  
     363A      2.157863   364A      2.179961   365A      2.188828  
     366A      2.190886   367A      2.195720   368A      2.208244  
     369A      2.218255   370A      2.227299   371A      2.243412  
     372A      2.255084   373A      2.264910   374A      2.267852  
     375A      2.277289   376A      2.289630   377A      2.302976  
     378A      2.313433   379A      2.320824   380A      2.332155  
     381A      2.344302   382A      2.357656   383A      2.374869  
     384A      2.382248   385A      2.391112   386A      2.409676  
     387A      2.412821   388A      2.424384   389A      2.449982  
     390A      2.457609   391A      2.470852   392A      2.494128  
     393A      2.511479   394A      2.520457   395A      2.550849  
     396A      2.551746   397A      2.566314   398A      2.578011  
     399A      2.583523   400A      2.602141   401A      2.612624  
     402A      2.634125   403A      2.645728   404A      2.665982  
     405A      2.681549   406A      2.711204   407A      2.722098  
     408A      2.733587   409A      2.756035   410A      2.808529  
     411A      2.824246   412A      2.849369   413A      2.862814  
     414A      2.883507   415A      2.938370   416A      2.983837  
     417A      2.993718   418A      3.010897   419A      3.041041  
     420A      3.053663   421A      3.082873   422A      3.150707  
     423A      3.173321   424A      3.227284   425A      3.236727  
     426A      3.262216   427A      3.286076   428A      3.289881  
     429A      3.304843   430A      3.312727   431A      3.357948  
     432A      3.367408   433A      3.376264   434A      3.383642  
     435A      3.392081   436A      3.406960   437A      3.417363  
     438A      3.432288   439A      3.441626   440A      3.445821  
     441A      3.455445   442A      3.463712   443A      3.476560  
     444A      3.485744   445A      3.501474   446A      3.506590  
     447A      3.512281   448A      3.539791   449A      3.546091  
     450A      3.565485   451A      3.566799   452A      3.580956  
     453A      3.584410   454A      3.596811   455A      3.615634  
     456A      3.620188   457A      3.636012   458A      3.643259  
     459A      3.643373   460A      3.658707   461A      3.663127  
     462A      3.677415   463A      3.687251   464A      3.693881  
     465A      3.703345   466A      3.722100   467A      3.731544  
     468A      3.737803   469A      3.740090   470A      3.757875  
     471A      3.762042   472A      3.785512   473A      3.805901  
     474A      3.813120   475A      3.815854   476A      3.842054  
     477A      3.846653   478A      3.851010   479A      3.862558  
     480A      3.874264   481A      3.894991   482A      3.895645  
     483A      3.904255   484A      3.912746   485A      3.933763  
     486A      3.937699   487A      3.942015   488A      3.950092  
     489A      3.955045   490A      3.959441   491A      3.990395  
     492A      3.994385   493A      4.000954   494A      4.006422  
     495A      4.024363   496A      4.027706   497A      4.048578  
     498A      4.067147   499A      4.073938   500A      4.089055  
     501A      4.096547   502A      4.105919   503A      4.130315  
     504A      4.131434   505A      4.140270   506A      4.149636  
     507A      4.152450   508A      4.162563   509A      4.169471  
     510A      4.180379   511A      4.196439   512A      4.211427  
     513A      4.216016   514A      4.234552   515A      4.247606  
     516A      4.257767   517A      4.258341   518A      4.271227  
     519A      4.279103   520A      4.284779   521A      4.297518  
     522A      4.313469   523A      4.332001   524A      4.337786  
     525A      4.349749   526A      4.363330   527A      4.372186  
     528A      4.380106   529A      4.391772   530A      4.397376  
     531A      4.399337   532A      4.412693   533A      4.426895  
     534A      4.429401   535A      4.440994   536A      4.442931  
     537A      4.458455   538A      4.475429   539A      4.487483  
     540A      4.498963   541A      4.516919   542A      4.531013  
     543A      4.540322   544A      4.551671   545A      4.552824  
     546A      4.563438   547A      4.575245   548A      4.588335  
     549A      4.611728   550A      4.636570   551A      4.650160  
     552A      4.674566   553A      4.686381   554A      4.689943  
     555A      4.713933   556A      4.733599   557A      4.741201  
     558A      4.758806   559A      4.792617   560A      4.803508  
     561A      4.810870   562A      4.816564   563A      4.839547  
     564A      4.854098   565A      4.859955   566A      4.875604  
     567A      4.883843   568A      4.899365   569A      4.915051  
     570A      4.940894   571A      4.961255   572A      4.975423  
     573A      4.977810   574A      5.001464   575A      5.025028  
     576A      5.043106   577A      5.050337   578A      5.065007  
     579A      5.078852   580A      5.088900   581A      5.103060  
     582A      5.130680   583A      5.139796   584A      5.146842  
     585A      5.152710   586A      5.158383   587A      5.168403  
     588A      5.180202   589A      5.200629   590A      5.210482  
     591A      5.224885   592A      5.230701   593A      5.236271  
     594A      5.255475   595A      5.269627   596A      5.293525  
     597A      5.318046   598A      5.350500   599A      5.380152  
     600A      5.394461   601A      5.402275   602A      5.411190  
     603A      5.444186   604A      5.468469   605A      5.517933  
     606A      5.530560   607A      5.554934   608A      5.567627  
     609A      5.590315   610A      5.601776   611A      5.607181  
     612A      5.622372   613A      5.643070   614A      5.660660  
     615A      5.670087   616A      5.680030   617A      5.723550  
     618A      5.762045   619A      5.767874   620A      5.826811  
     621A      5.850034   622A      5.866873   623A      5.879707  
     624A      5.916175   625A      5.931189   626A      6.008206  
     627A      6.073445   628A      6.091433   629A      6.100990  
     630A      6.122700   631A      6.162727   632A      6.181545  
     633A      6.215141   634A      6.239120   635A      6.242359  
     636A      6.274151   637A      6.298549   638A      6.340483  
     639A      6.378640   640A      6.432112   641A      6.462482  
     642A      6.558020   643A      6.631253   644A      6.669666  
     645A      6.695903   646A      6.770747   647A      6.808055  
     648A      6.836040   649A      6.883623   650A      6.933668  
     651A      6.983870   652A      7.020206   653A      7.073788  
     654A      7.165287   655A      7.192474   656A      7.499058  
     657A      7.840012   658A     16.347592   659A     16.746707  
     660A     17.154492   661A     18.724102   662A     18.919514  
     663A     19.051349   664A     19.801369   665A     20.356795  
     666A     20.583460   667A     20.915917  

    Final Occupation by Irrep:
              A 
    DOCC [    35 ]

  @DF-RHF Final Energy:  -400.63705389026512

   => Energetics <=

    Nuclear Repulsion Energy =            483.1425984619288556
    One-Electron Energy =               -1499.7541342841902861
    Two-Electron Energy =                 615.9744819319962517
    Total Energy =                       -400.6370538902651788

Computation Completed

*** tstop() called on node59.bme.utexas.edu at Mon Nov  9 00:20:13 2020
Module time:
	user time   =     332.67 seconds =       5.54 minutes
	system time =      42.20 seconds =       0.70 minutes
	total time  =         75 seconds =       1.25 minutes
Total time:
	user time   =     332.67 seconds =       5.54 minutes
	system time =      42.20 seconds =       0.70 minutes
	total time  =         75 seconds =       1.25 minutes
   => Loading Basis Set <=

    Name: (AUG-CC-PVTZ AUX)
    Role: RIFIT
    Keyword: DF_BASIS_MP2
    atoms 1-9   entry C          line   148 file /home/xy3866/psi4conda/share/psi4/basis/aug-cc-pvtz-ri.gbs 
    atoms 10    entry N          line   206 file /home/xy3866/psi4conda/share/psi4/basis/aug-cc-pvtz-ri.gbs 
    atoms 11-19 entry H          line    30 file /home/xy3866/psi4conda/share/psi4/basis/aug-cc-pvtz-ri.gbs 


*** tstart() called on node59.bme.utexas.edu
*** at Mon Nov  9 00:20:14 2020


  //>>>>>>>>>>>>>>>>>>>>>>>>>>>>>>>>>>>//
  //               DFMP2               //
  //<<<<<<<<<<<<<<<<<<<<<<<<<<<<<<<<<<<//

	 --------------------------------------------------------
	                          DF-MP2                         
	      2nd-Order Density-Fitted Moller-Plesset Theory     
	              RMP2 Wavefunction,   8 Threads             
	                                                         
	        Rob Parrish, Justin Turney, Andy Simmonett,      
	           Ed Hohenstein, and C. David Sherrill          
	 --------------------------------------------------------

   => Auxiliary Basis Set <=

  Basis Set: (AUG-CC-PVTZ AUX)
    Blend: AUG-CC-PVTZ-RI
    Number of shells: 406
    Number of basis function: 1474
    Number of Cartesian functions: 1855
    Spherical Harmonics?: true
    Max angular momentum: 4

	 --------------------------------------------------------
	                 NBF =   667, NAUX =  1474
	 --------------------------------------------------------
	   CLASS    FOCC     OCC    AOCC    AVIR     VIR    FVIR
	   PAIRS       0      35      35     632     632       0
	 --------------------------------------------------------

  DFHelper Memory: AOs need 4.717 GiB; user supplied 22.352 GiB. Using in-core AOs.


         ------------------------------------------------------------
                                     CPHF                           
                                  Rob Parrish                       
         ------------------------------------------------------------

  ==> Geometry <==

    Molecular point group: c1
    Full point group: C1

    Geometry (in Angstrom), charge = 0, multiplicity = 1:

       Center              X                  Y                   Z               Mass       
    ------------   -----------------  -----------------  -----------------  -----------------
         C           -2.649742835351    -1.339592153520     0.009302760724    12.000000000000
         C           -0.202306835351    -0.412400153520     0.009376760724    12.000000000000
         C           -1.626616835351    -0.248594153520     0.009123760724    12.000000000000
         C            0.380051164649     0.885111846480     0.009005760724    12.000000000000
         C           -1.858063835351     1.109436846480     0.009092760724    12.000000000000
         C            2.019509164649    -1.340311153520     0.009188760724    12.000000000000
         C            2.574084164649    -0.041545153520     0.009080760724    12.000000000000
         C            0.645093664649    -1.536375553520    -0.091129239276    12.000000000000
         C            1.765710164649     1.088450846480     0.009452760724    12.000000000000
         N           -0.656581835351     1.790271846480     0.009054760724    14.003074004430
         H            2.685651164649    -2.199929153520     0.008798760724     1.007825032230
         H            3.655206164649     0.076445846480     0.009425760724     1.007825032230
         H            0.230034164649    -2.542781153520     0.009090760724     1.007825032230
         H            2.195658164649     2.088366846480     0.009441760724     1.007825032230
         H           -3.661411835351    -0.922792153520     0.008963760724     1.007825032230
         H           -2.551903835351    -1.980254153520     0.892440760724     1.007825032230
         H           -2.797489835351     1.649642846480     0.008795760724     1.007825032230
         H           -0.556393835351     2.796261846480     0.009036760724     1.007825032230
         H           -2.551570835351    -1.980845153520    -0.873373239276     1.007825032230

  Nuclear repulsion =  483.142598461928856
  Reference energy  = -400.637053890265122

  ==> Basis Set <==

  Basis Set: AUG-CC-PVTZ
    Blend: AUG-CC-PVTZ
    Number of shells: 221
    Number of basis function: 667
    Number of Cartesian functions: 775
    Spherical Harmonics?: true
    Max angular momentum: 3

  ==> CGRSolver (by Rob Parrish) <==

   Number of roots    =         1
   Preconditioning    =    JACOBI
   Convergence cutoff =     1E-06
   Maximum iterations =       100

  ==> CPHFRHamiltonian (by Rob Parrish) <== 

  ==> MemDFJK: Density-Fitted J/K Matrices <==

    J tasked:                   Yes
    K tasked:                   Yes
    wK tasked:                   No
    OpenMP threads:               8
    Memory [MiB]:             22888
    Algorithm:                 Disk
    Schwarz Cutoff:           1E-12
    Mask sparsity (%):       4.8587
    Fitting Condition:        1E-10

   => Auxiliary Basis Set <=

  Basis Set: (AUG-CC-PVTZ AUX)
    Blend: AUG-CC-PVTZ-JKFIT
    Number of shells: 426
    Number of basis function: 1454
    Number of Cartesian functions: 1805
    Spherical Harmonics?: true
    Max angular momentum: 4

  ==> CPHF Iterations <==

  => Iterations <=

             Iter  Converged  Remaining    Residual
  CGR           1          0          1   8.852E-02
  CGR           2          0          1   3.186E-02
  CGR           3          0          1   1.783E-02
  CGR           4          0          1   6.744E-03
  CGR           5          0          1   3.046E-03
  CGR           6          0          1   1.693E-03
  CGR           7          0          1   5.411E-04
  CGR           8          0          1   1.810E-04
  CGR           9          0          1   6.686E-05
  CGR          10          0          1   3.329E-05
  CGR          11          0          1   1.740E-05
  CGR          12          0          1   6.234E-06
  CGR          13          0          1   1.986E-06
  CGR          14          1          0   5.448E-07

    CGRSolver converged.

	-----------------------------------------------------------
	 ==================> DF-MP2 Energies <==================== 
	-----------------------------------------------------------
	 Reference Energy          =    -400.6370538902651219 [Eh]
	 Singles Energy            =      -0.0000000000000000 [Eh]
	 Same-Spin Energy          =      -0.4518807258872024 [Eh]
	 Opposite-Spin Energy      =      -1.4044571783779725 [Eh]
	 Correlation Energy        =      -1.8563379042651749 [Eh]
	 Total Energy              =    -402.4933917945302824 [Eh]
	-----------------------------------------------------------
	 ================> DF-SCS-MP2 Energies <================== 
	-----------------------------------------------------------
	 SCS Same-Spin Scale       =       0.3333333333333333 [-]
	 SCS Opposite-Spin Scale   =       1.2000000000000000 [-]
	 SCS Same-Spin Energy      =      -0.1506269086290675 [Eh]
	 SCS Opposite-Spin Energy  =      -1.6853486140535670 [Eh]
	 SCS Correlation Energy    =      -1.8359755226826344 [Eh]
	 SCS Total Energy          =    -402.4730294129477670 [Eh]
	-----------------------------------------------------------



Properties will be evaluated at   0.000000,  -0.000000,  -0.000000 [a0]

Properties computed using the MP2 density matrix

  Nuclear Dipole Moment: [e a0]
     X:    -3.1407      Y:    -2.8325      Z:     0.0774

  Electronic Dipole Moment: [e a0]
     X:     2.7676      Y:     3.5520      Z:    -0.0514

  Dipole Moment: [e a0]
     X:    -0.3731      Y:     0.7195      Z:     0.0260     Total:     0.8109

  Dipole Moment: [D]
     X:    -0.9483      Y:     1.8287      Z:     0.0662     Total:     2.0610


*** tstop() called on node59.bme.utexas.edu at Mon Nov  9 00:23:00 2020
Module time:
	user time   =     985.91 seconds =      16.43 minutes
	system time =      48.19 seconds =       0.80 minutes
	total time  =        166 seconds =       2.77 minutes
Total time:
	user time   =    1319.66 seconds =      21.99 minutes
	system time =      90.46 seconds =       1.51 minutes
	total time  =        242 seconds =       4.03 minutes

    Psi4 stopped on: Monday, 09 November 2020 12:23AM
    Psi4 wall time for execution: 0:04:02.04

*** Psi4 exiting successfully. Buy a developer a beer!
