
    -----------------------------------------------------------------------
          Psi4: An Open-Source Ab Initio Electronic Structure Package
                               Psi4 1.3.2 release

                         Git: Rev {HEAD} ecbda83 


    R. M. Parrish, L. A. Burns, D. G. A. Smith, A. C. Simmonett,
    A. E. DePrince III, E. G. Hohenstein, U. Bozkaya, A. Yu. Sokolov,
    R. Di Remigio, R. M. Richard, J. F. Gonthier, A. M. James,
    H. R. McAlexander, A. Kumar, M. Saitow, X. Wang, B. P. Pritchard,
    P. Verma, H. F. Schaefer III, K. Patkowski, R. A. King, E. F. Valeev,
    F. A. Evangelista, J. M. Turney, T. D. Crawford, and C. D. Sherrill,
    J. Chem. Theory Comput. 13(7) pp 3185--3197 (2017).
    (doi: 10.1021/acs.jctc.7b00174)


                         Additional Contributions by
    P. Kraus, H. Kruse, M. H. Lechner, M. C. Schieber, R. A. Shaw,
    A. Alenaizan, R. Galvelis, Z. L. Glick, S. Lehtola, and J. P. Misiewicz

    -----------------------------------------------------------------------


    Psi4 started on: Monday, 09 November 2020 01:56AM

    Process ID: 122901
    Host:       node59.bme.utexas.edu
    PSIDATADIR: /home/xy3866/psi4conda/share/psi4
    Memory:     500.0 MiB
    Threads:    8
    
  ==> Input File <==

--------------------------------------------------------------------------
#psi4
#
memory 32 gb

molecule  {
0 1
  C       -2.6260010    -1.3181790     0.0001460
  C       -0.1785650    -0.3909870     0.0002200
  C       -1.6028750    -0.2271810    -0.0000330
  C        0.4037930     0.9065250    -0.0001510
  C       -1.8343220     1.1308500    -0.0000640
  C        2.0432510    -1.3188980     0.0000320
  C        2.5978260    -0.0201320    -0.0000760
  C        0.6688440    -1.5149670    -0.0002860
  C        1.7894520     1.1098640     0.0002960
  N       -0.6328400     1.8116850    -0.0001020
  H        2.7093923    -2.1785291     0.0996420
  H        3.6789480     0.0978590     0.0002690
  H        0.2537760    -2.5213680    -0.0000660
  H        2.2194000     2.1097800     0.0002850
  H       -3.6376700    -0.9013790    -0.0001930
  H       -2.5281620    -1.9588410     0.8832840
  H       -2.7737480     1.6710560    -0.0003610
  H       -0.5326520     2.8176750    -0.0001200
  H       -2.5278290    -1.9594320    -0.8825300
units angstrom
no_reorient  #important for SAPT in psi4, default
symmetry c1  #important for SAPT in psi4, default
}

set PROPERTIES_ORIGIN ["COM"]
properties('MP2/aug-cc-pvtz', properties = ['dipole'])
--------------------------------------------------------------------------

  Memory set to  29.802 GiB by Python driver.
    SCF Algorithm Type (re)set to DF.

*** tstart() called on node59.bme.utexas.edu
*** at Mon Nov  9 01:56:37 2020

   => Loading Basis Set <=

    Name: AUG-CC-PVTZ
    Role: ORBITAL
    Keyword: BASIS
    atoms 1-9   entry C          line   235 file /home/xy3866/psi4conda/share/psi4/basis/aug-cc-pvtz.gbs 
    atoms 10    entry N          line   281 file /home/xy3866/psi4conda/share/psi4/basis/aug-cc-pvtz.gbs 
    atoms 11-19 entry H          line    36 file /home/xy3866/psi4conda/share/psi4/basis/aug-cc-pvtz.gbs 


         ---------------------------------------------------------
                                   SCF
               by Justin Turney, Rob Parrish, Andy Simmonett
                          and Daniel G. A. Smith
                              RHF Reference
                        8 Threads,  30517 MiB Core
         ---------------------------------------------------------

  ==> Geometry <==

    Molecular point group: c1
    Full point group: C1

    Geometry (in Angstrom), charge = 0, multiplicity = 1:

       Center              X                  Y                   Z               Mass       
    ------------   -----------------  -----------------  -----------------  -----------------
         C           -2.649743608158    -1.339591631656    -0.000621308674    12.000000000000
         C           -0.202307608158    -0.412399631656    -0.000547308674    12.000000000000
         C           -1.626617608158    -0.248593631656    -0.000800308674    12.000000000000
         C            0.380050391842     0.885112368344    -0.000918308674    12.000000000000
         C           -1.858064608158     1.109437368344    -0.000831308674    12.000000000000
         C            2.019508391842    -1.340310631656    -0.000735308674    12.000000000000
         C            2.574083391842    -0.041544631656    -0.000843308674    12.000000000000
         C            0.645101391842    -1.536379631656    -0.001053308674    12.000000000000
         C            1.765709391842     1.088451368344    -0.000471308674    12.000000000000
         N           -0.656582608158     1.790272368344    -0.000869308674    14.003074004430
         H            2.685649691842    -2.199941731656     0.098874691326     1.007825032230
         H            3.655205391842     0.076446368344    -0.000498308674     1.007825032230
         H            0.230033391842    -2.542780631656    -0.000833308674     1.007825032230
         H            2.195657391842     2.088367368344    -0.000482308674     1.007825032230
         H           -3.661412608158    -0.922791631656    -0.000960308674     1.007825032230
         H           -2.551904608158    -1.980253631656     0.882516691326     1.007825032230
         H           -2.797490608158     1.649643368344    -0.001128308674     1.007825032230
         H           -0.556394608158     2.796262368344    -0.000887308674     1.007825032230
         H           -2.551571608158    -1.980844631656    -0.883297308674     1.007825032230

  Running in c1 symmetry.

  Rotational constants: A =      0.08685  B =      0.04227  C =      0.02859 [cm^-1]
  Rotational constants: A =   2603.69388  B =   1267.35557  C =    857.00188 [MHz]
  Nuclear repulsion =  483.240730380104822

  Charge       = 0
  Multiplicity = 1
  Electrons    = 70
  Nalpha       = 35
  Nbeta        = 35

  ==> Algorithm <==

  SCF Algorithm Type is DF.
  DIIS enabled.
  MOM disabled.
  Fractional occupation disabled.
  Guess Type is SAD.
  Energy threshold   = 1.00e-10
  Density threshold  = 1.00e-10
  Integral threshold = 0.00e+00

  ==> Primary Basis <==

  Basis Set: AUG-CC-PVTZ
    Blend: AUG-CC-PVTZ
    Number of shells: 221
    Number of basis function: 667
    Number of Cartesian functions: 775
    Spherical Harmonics?: true
    Max angular momentum: 3

   => Loading Basis Set <=

    Name: (AUG-CC-PVTZ AUX)
    Role: JKFIT
    Keyword: DF_BASIS_SCF
    atoms 1-9   entry C          line   162 file /home/xy3866/psi4conda/share/psi4/basis/aug-cc-pvtz-jkfit.gbs 
    atoms 10    entry N          line   224 file /home/xy3866/psi4conda/share/psi4/basis/aug-cc-pvtz-jkfit.gbs 
    atoms 11-19 entry H          line    70 file /home/xy3866/psi4conda/share/psi4/basis/aug-cc-pvtz-jkfit.gbs 

  ==> Pre-Iterations <==

   -------------------------------------------------------
    Irrep   Nso     Nmo     Nalpha   Nbeta   Ndocc  Nsocc
   -------------------------------------------------------
     A        667     667       0       0       0       0
   -------------------------------------------------------
    Total     667     667      35      35      35       0
   -------------------------------------------------------

  ==> Integral Setup <==

  DFHelper Memory: AOs need 4.717 GiB; user supplied 22.352 GiB. Using in-core AOs.

  ==> MemDFJK: Density-Fitted J/K Matrices <==

    J tasked:                   Yes
    K tasked:                   Yes
    wK tasked:                   No
    OpenMP threads:               8
    Memory [MiB]:             22888
    Algorithm:                 Disk
    Schwarz Cutoff:           1E-12
    Mask sparsity (%):       4.8583
    Fitting Condition:        1E-10

   => Auxiliary Basis Set <=

  Basis Set: (AUG-CC-PVTZ AUX)
    Blend: AUG-CC-PVTZ-JKFIT
    Number of shells: 426
    Number of basis function: 1454
    Number of Cartesian functions: 1805
    Spherical Harmonics?: true
    Max angular momentum: 4

  Minimum eigenvalue in the overlap matrix is 5.7029638334E-07.
  Using Symmetric Orthogonalization.

  SCF Guess: Superposition of Atomic Densities via on-the-fly atomic UHF.

  ==> Iterations <==

                           Total Energy        Delta E     RMS |[F,P]|

   @DF-RHF iter SAD:  -400.45836633191533   -4.00458e+02   0.00000e+00 
   @DF-RHF iter   1:  -400.33374876694188    1.24618e-01   1.05090e-03 DIIS
   @DF-RHF iter   2:  -400.57295403167740   -2.39205e-01   5.23779e-04 DIIS
   @DF-RHF iter   3:  -400.63471743806622   -6.17634e-02   1.21385e-04 DIIS
   @DF-RHF iter   4:  -400.63880087804506   -4.08344e-03   5.35453e-05 DIIS
   @DF-RHF iter   5:  -400.63953300560553   -7.32128e-04   8.86555e-06 DIIS
   @DF-RHF iter   6:  -400.63957080905209   -3.78034e-05   4.16767e-06 DIIS
   @DF-RHF iter   7:  -400.63957991488763   -9.10584e-06   1.62772e-06 DIIS
   @DF-RHF iter   8:  -400.63958243222544   -2.51734e-06   7.11920e-07 DIIS
   @DF-RHF iter   9:  -400.63958296972191   -5.37496e-07   3.27212e-07 DIIS
   @DF-RHF iter  10:  -400.63958307742701   -1.07705e-07   1.46449e-07 DIIS
   @DF-RHF iter  11:  -400.63958310716993   -2.97429e-08   6.34944e-08 DIIS
   @DF-RHF iter  12:  -400.63958311185058   -4.68066e-09   2.57630e-08 DIIS
   @DF-RHF iter  13:  -400.63958311236252   -5.11932e-10   7.97314e-09 DIIS
   @DF-RHF iter  14:  -400.63958311239901   -3.64935e-11   2.75295e-09 DIIS
   @DF-RHF iter  15:  -400.63958311240265   -3.63798e-12   1.03181e-09 DIIS
   @DF-RHF iter  16:  -400.63958311240299   -3.41061e-13   5.74390e-10 DIIS
   @DF-RHF iter  17:  -400.63958311240259    3.97904e-13   2.86862e-10 DIIS
   @DF-RHF iter  18:  -400.63958311240265   -5.68434e-14   1.07889e-10 DIIS
   @DF-RHF iter  19:  -400.63958311240481   -2.16005e-12   4.81277e-11 DIIS
  Energy and wave function converged.


  ==> Post-Iterations <==

    Orbital Energies [Eh]
    ---------------------

    Doubly Occupied:                                                      

       1A    -15.600008     2A    -11.265374     3A    -11.264582  
       4A    -11.231889     5A    -11.230746     6A    -11.229521  
       7A    -11.222774     8A    -11.221854     9A    -11.221450  
      10A    -11.221391    11A     -1.291743    12A     -1.127018  
      13A     -1.072168    14A     -0.997267    15A     -0.985695  
      16A     -0.930985    17A     -0.838900    18A     -0.803847  
      19A     -0.755746    20A     -0.720099    21A     -0.659855  
      22A     -0.644131    23A     -0.603547    24A     -0.592728  
      25A     -0.591898    26A     -0.569738    27A     -0.551430  
      28A     -0.542274    29A     -0.529664    30A     -0.497592  
      31A     -0.475814    32A     -0.462599    33A     -0.374588  
      34A     -0.298622    35A     -0.277776  

    Virtual:                                                              

      36A      0.024795    37A      0.031235    38A      0.032988  
      39A      0.043044    40A      0.044640    41A      0.049726  
      42A      0.061111    43A      0.063749    44A      0.075609  
      45A      0.083559    46A      0.087571    47A      0.096854  
      48A      0.105528    49A      0.105897    50A      0.108347  
      51A      0.115689    52A      0.117200    53A      0.117501  
      54A      0.123836    55A      0.126255    56A      0.128004  
      57A      0.131551    58A      0.133201    59A      0.140083  
      60A      0.147794    61A      0.148223    62A      0.150923  
      63A      0.156556    64A      0.159136    65A      0.159687  
      66A      0.165215    67A      0.173910    68A      0.175399  
      69A      0.182032    70A      0.182382    71A      0.195694  
      72A      0.197259    73A      0.210427    74A      0.211403  
      75A      0.215469    76A      0.218599    77A      0.219137  
      78A      0.230262    79A      0.240870    80A      0.249200  
      81A      0.250014    82A      0.250406    83A      0.267270  
      84A      0.268444    85A      0.270164    86A      0.284622  
      87A      0.285245    88A      0.292398    89A      0.299697  
      90A      0.306346    91A      0.314736    92A      0.318891  
      93A      0.321362    94A      0.325561    95A      0.333145  
      96A      0.336328    97A      0.339117    98A      0.342109  
      99A      0.346391   100A      0.348953   101A      0.354459  
     102A      0.356267   103A      0.365581   104A      0.370341  
     105A      0.372130   106A      0.373652   107A      0.378914  
     108A      0.387610   109A      0.397415   110A      0.401593  
     111A      0.404017   112A      0.409104   113A      0.414775  
     114A      0.421313   115A      0.426899   116A      0.429499  
     117A      0.431937   118A      0.435524   119A      0.440426  
     120A      0.445390   121A      0.458385   122A      0.459304  
     123A      0.461422   124A      0.468430   125A      0.470048  
     126A      0.475856   127A      0.479156   128A      0.488580  
     129A      0.491205   130A      0.493498   131A      0.493990  
     132A      0.501768   133A      0.504148   134A      0.507624  
     135A      0.511227   136A      0.516342   137A      0.517545  
     138A      0.520333   139A      0.522728   140A      0.528461  
     141A      0.534979   142A      0.537563   143A      0.544957  
     144A      0.547900   145A      0.550518   146A      0.553307  
     147A      0.559796   148A      0.564734   149A      0.570671  
     150A      0.571411   151A      0.578098   152A      0.590753  
     153A      0.595647   154A      0.615479   155A      0.623664  
     156A      0.626924   157A      0.628680   158A      0.632619  
     159A      0.636849   160A      0.654169   161A      0.661000  
     162A      0.669158   163A      0.677138   164A      0.681760  
     165A      0.698209   166A      0.701922   167A      0.706777  
     168A      0.711193   169A      0.725179   170A      0.729792  
     171A      0.733225   172A      0.736124   173A      0.737133  
     174A      0.752146   175A      0.756082   176A      0.761500  
     177A      0.765630   178A      0.772424   179A      0.779623  
     180A      0.788440   181A      0.801442   182A      0.818446  
     183A      0.820792   184A      0.831004   185A      0.834008  
     186A      0.842098   187A      0.851799   188A      0.858166  
     189A      0.859669   190A      0.863600   191A      0.867186  
     192A      0.882804   193A      0.886256   194A      0.886406  
     195A      0.896043   196A      0.899495   197A      0.902106  
     198A      0.906647   199A      0.906971   200A      0.915471  
     201A      0.917747   202A      0.931159   203A      0.933341  
     204A      0.939607   205A      0.946451   206A      0.950367  
     207A      0.957143   208A      0.959709   209A      0.974788  
     210A      0.976888   211A      0.984443   212A      0.985506  
     213A      0.999398   214A      1.001287   215A      1.004188  
     216A      1.008878   217A      1.014063   218A      1.019709  
     219A      1.021416   220A      1.027585   221A      1.029981  
     222A      1.034234   223A      1.048916   224A      1.054002  
     225A      1.060022   226A      1.062227   227A      1.068386  
     228A      1.076174   229A      1.082575   230A      1.082969  
     231A      1.090951   232A      1.092826   233A      1.101103  
     234A      1.101710   235A      1.115767   236A      1.127774  
     237A      1.133440   238A      1.136291   239A      1.141033  
     240A      1.150902   241A      1.154390   242A      1.155881  
     243A      1.161875   244A      1.168031   245A      1.171413  
     246A      1.181158   247A      1.186361   248A      1.189430  
     249A      1.190616   250A      1.197578   251A      1.204552  
     252A      1.207060   253A      1.218936   254A      1.226520  
     255A      1.229015   256A      1.237023   257A      1.239416  
     258A      1.243203   259A      1.254690   260A      1.262550  
     261A      1.274355   262A      1.282614   263A      1.284635  
     264A      1.298641   265A      1.301648   266A      1.307494  
     267A      1.310648   268A      1.320567   269A      1.331208  
     270A      1.338931   271A      1.355810   272A      1.360439  
     273A      1.370275   274A      1.371924   275A      1.378888  
     276A      1.382926   277A      1.388629   278A      1.400398  
     279A      1.402722   280A      1.410100   281A      1.416749  
     282A      1.433531   283A      1.434433   284A      1.449719  
     285A      1.455173   286A      1.460937   287A      1.463573  
     288A      1.470724   289A      1.474552   290A      1.481374  
     291A      1.487003   292A      1.491654   293A      1.504994  
     294A      1.518638   295A      1.528811   296A      1.532925  
     297A      1.552023   298A      1.559246   299A      1.573059  
     300A      1.596275   301A      1.599885   302A      1.604953  
     303A      1.615926   304A      1.626206   305A      1.631446  
     306A      1.649708   307A      1.654238   308A      1.669258  
     309A      1.673542   310A      1.685329   311A      1.689310  
     312A      1.700516   313A      1.710301   314A      1.714659  
     315A      1.721388   316A      1.732152   317A      1.735951  
     318A      1.743625   319A      1.753805   320A      1.768345  
     321A      1.780191   322A      1.787708   323A      1.792948  
     324A      1.805261   325A      1.814422   326A      1.818317  
     327A      1.825050   328A      1.833703   329A      1.853577  
     330A      1.858947   331A      1.876725   332A      1.883961  
     333A      1.888154   334A      1.897406   335A      1.904764  
     336A      1.916824   337A      1.922968   338A      1.933756  
     339A      1.946175   340A      1.951635   341A      1.958532  
     342A      1.970242   343A      1.980642   344A      1.990068  
     345A      2.004332   346A      2.007653   347A      2.023748  
     348A      2.029049   349A      2.037433   350A      2.043525  
     351A      2.051129   352A      2.058895   353A      2.067242  
     354A      2.077741   355A      2.085627   356A      2.101589  
     357A      2.106387   358A      2.129595   359A      2.131785  
     360A      2.135912   361A      2.145857   362A      2.152934  
     363A      2.165277   364A      2.176712   365A      2.188417  
     366A      2.191728   367A      2.195416   368A      2.212112  
     369A      2.224644   370A      2.238887   371A      2.240698  
     372A      2.258911   373A      2.268923   374A      2.271107  
     375A      2.287262   376A      2.304165   377A      2.306346  
     378A      2.312209   379A      2.317662   380A      2.336716  
     381A      2.348269   382A      2.371624   383A      2.372442  
     384A      2.380708   385A      2.401126   386A      2.404957  
     387A      2.417893   388A      2.427293   389A      2.448010  
     390A      2.462665   391A      2.467174   392A      2.493236  
     393A      2.513397   394A      2.531845   395A      2.548684  
     396A      2.557278   397A      2.564752   398A      2.585555  
     399A      2.587387   400A      2.602260   401A      2.618942  
     402A      2.632140   403A      2.651637   404A      2.671514  
     405A      2.701148   406A      2.718434   407A      2.741207  
     408A      2.747470   409A      2.763134   410A      2.821778  
     411A      2.831692   412A      2.858063   413A      2.862126  
     414A      2.887133   415A      2.953195   416A      2.971527  
     417A      3.003964   418A      3.016412   419A      3.045163  
     420A      3.058452   421A      3.091906   422A      3.138512  
     423A      3.182102   424A      3.225793   425A      3.238491  
     426A      3.260197   427A      3.286189   428A      3.291584  
     429A      3.295966   430A      3.322313   431A      3.351159  
     432A      3.368120   433A      3.371157   434A      3.383154  
     435A      3.386904   436A      3.398311   437A      3.414258  
     438A      3.431935   439A      3.441200   440A      3.446957  
     441A      3.449677   442A      3.463851   443A      3.480559  
     444A      3.487605   445A      3.495190   446A      3.504560  
     447A      3.518815   448A      3.545939   449A      3.559271  
     450A      3.561985   451A      3.570676   452A      3.576108  
     453A      3.583490   454A      3.590481   455A      3.609751  
     456A      3.621515   457A      3.633363   458A      3.636653  
     459A      3.645135   460A      3.651037   461A      3.657108  
     462A      3.670466   463A      3.683948   464A      3.700112  
     465A      3.702002   466A      3.722307   467A      3.731298  
     468A      3.737945   469A      3.744806   470A      3.756541  
     471A      3.765379   472A      3.786972   473A      3.799193  
     474A      3.809512   475A      3.820372   476A      3.835702  
     477A      3.843211   478A      3.853542   479A      3.862788  
     480A      3.872676   481A      3.892189   482A      3.901239  
     483A      3.912363   484A      3.915135   485A      3.937150  
     486A      3.938398   487A      3.939916   488A      3.948164  
     489A      3.952728   490A      3.967504   491A      3.985390  
     492A      3.992671   493A      4.000614   494A      4.015817  
     495A      4.028482   496A      4.030263   497A      4.040508  
     498A      4.073442   499A      4.079151   500A      4.084279  
     501A      4.098853   502A      4.107583   503A      4.132287  
     504A      4.134239   505A      4.146886   506A      4.147640  
     507A      4.151029   508A      4.162879   509A      4.177385  
     510A      4.177831   511A      4.184760   512A      4.212599  
     513A      4.221516   514A      4.235819   515A      4.249711  
     516A      4.250830   517A      4.265225   518A      4.274996  
     519A      4.281007   520A      4.296168   521A      4.299787  
     522A      4.316533   523A      4.326209   524A      4.340342  
     525A      4.347665   526A      4.378189   527A      4.380853  
     528A      4.384748   529A      4.392227   530A      4.399997  
     531A      4.406506   532A      4.416192   533A      4.418035  
     534A      4.430837   535A      4.440205   536A      4.454818  
     537A      4.467481   538A      4.477916   539A      4.490056  
     540A      4.499134   541A      4.519214   542A      4.533267  
     543A      4.534972   544A      4.550033   545A      4.562497  
     546A      4.568489   547A      4.574354   548A      4.587672  
     549A      4.609126   550A      4.656107   551A      4.662161  
     552A      4.678297   553A      4.692704   554A      4.706707  
     555A      4.709043   556A      4.732350   557A      4.740711  
     558A      4.755537   559A      4.785199   560A      4.803515  
     561A      4.807726   562A      4.815408   563A      4.843395  
     564A      4.850764   565A      4.861729   566A      4.870764  
     567A      4.882273   568A      4.900560   569A      4.911655  
     570A      4.951971   571A      4.964255   572A      4.976389  
     573A      4.988207   574A      5.007866   575A      5.020431  
     576A      5.041611   577A      5.052363   578A      5.075640  
     579A      5.084622   580A      5.085672   581A      5.103523  
     582A      5.125890   583A      5.142489   584A      5.153615  
     585A      5.159422   586A      5.163344   587A      5.170513  
     588A      5.191854   589A      5.194480   590A      5.211751  
     591A      5.222632   592A      5.232148   593A      5.242227  
     594A      5.243588   595A      5.283402   596A      5.294806  
     597A      5.324716   598A      5.351656   599A      5.383522  
     600A      5.384952   601A      5.405903   602A      5.412637  
     603A      5.441524   604A      5.467075   605A      5.511162  
     606A      5.528836   607A      5.556391   608A      5.569955  
     609A      5.588044   610A      5.596402   611A      5.610240  
     612A      5.623877   613A      5.639541   614A      5.669922  
     615A      5.672417   616A      5.688773   617A      5.712095  
     618A      5.764683   619A      5.768088   620A      5.828664  
     621A      5.852467   622A      5.859261   623A      5.887759  
     624A      5.918745   625A      5.935559   626A      6.011879  
     627A      6.073075   628A      6.091672   629A      6.101287  
     630A      6.129199   631A      6.175602   632A      6.178457  
     633A      6.221767   634A      6.239049   635A      6.250868  
     636A      6.266568   637A      6.316316   638A      6.349102  
     639A      6.390131   640A      6.446219   641A      6.475618  
     642A      6.569013   643A      6.633156   644A      6.673758  
     645A      6.702646   646A      6.770069   647A      6.834572  
     648A      6.865029   649A      6.890014   650A      6.957531  
     651A      7.013912   652A      7.029305   653A      7.107674  
     654A      7.183104   655A      7.219123   656A      7.524023  
     657A      7.845448   658A     16.302282   659A     16.749415  
     660A     17.209012   661A     18.824501   662A     18.941590  
     663A     19.152574   664A     19.904279   665A     20.447007  
     666A     20.675903   667A     21.065741  

    Final Occupation by Irrep:
              A 
    DOCC [    35 ]

  @DF-RHF Final Energy:  -400.63958311240481

   => Energetics <=

    Nuclear Repulsion Energy =            483.2407303801048215
    One-Electron Energy =               -1499.9500013379370102
    Two-Electron Energy =                 616.0696878454273246
    Total Energy =                       -400.6395831124048073

Computation Completed

*** tstop() called on node59.bme.utexas.edu at Mon Nov  9 01:57:54 2020
Module time:
	user time   =     334.40 seconds =       5.57 minutes
	system time =      45.21 seconds =       0.75 minutes
	total time  =         77 seconds =       1.28 minutes
Total time:
	user time   =     334.40 seconds =       5.57 minutes
	system time =      45.21 seconds =       0.75 minutes
	total time  =         77 seconds =       1.28 minutes
   => Loading Basis Set <=

    Name: (AUG-CC-PVTZ AUX)
    Role: RIFIT
    Keyword: DF_BASIS_MP2
    atoms 1-9   entry C          line   148 file /home/xy3866/psi4conda/share/psi4/basis/aug-cc-pvtz-ri.gbs 
    atoms 10    entry N          line   206 file /home/xy3866/psi4conda/share/psi4/basis/aug-cc-pvtz-ri.gbs 
    atoms 11-19 entry H          line    30 file /home/xy3866/psi4conda/share/psi4/basis/aug-cc-pvtz-ri.gbs 


*** tstart() called on node59.bme.utexas.edu
*** at Mon Nov  9 01:57:55 2020


  //>>>>>>>>>>>>>>>>>>>>>>>>>>>>>>>>>>>//
  //               DFMP2               //
  //<<<<<<<<<<<<<<<<<<<<<<<<<<<<<<<<<<<//

	 --------------------------------------------------------
	                          DF-MP2                         
	      2nd-Order Density-Fitted Moller-Plesset Theory     
	              RMP2 Wavefunction,   8 Threads             
	                                                         
	        Rob Parrish, Justin Turney, Andy Simmonett,      
	           Ed Hohenstein, and C. David Sherrill          
	 --------------------------------------------------------

   => Auxiliary Basis Set <=

  Basis Set: (AUG-CC-PVTZ AUX)
    Blend: AUG-CC-PVTZ-RI
    Number of shells: 406
    Number of basis function: 1474
    Number of Cartesian functions: 1855
    Spherical Harmonics?: true
    Max angular momentum: 4

	 --------------------------------------------------------
	                 NBF =   667, NAUX =  1474
	 --------------------------------------------------------
	   CLASS    FOCC     OCC    AOCC    AVIR     VIR    FVIR
	   PAIRS       0      35      35     632     632       0
	 --------------------------------------------------------

  DFHelper Memory: AOs need 4.717 GiB; user supplied 22.352 GiB. Using in-core AOs.


         ------------------------------------------------------------
                                     CPHF                           
                                  Rob Parrish                       
         ------------------------------------------------------------

  ==> Geometry <==

    Molecular point group: c1
    Full point group: C1

    Geometry (in Angstrom), charge = 0, multiplicity = 1:

       Center              X                  Y                   Z               Mass       
    ------------   -----------------  -----------------  -----------------  -----------------
         C           -2.649743608158    -1.339591631656    -0.000621308674    12.000000000000
         C           -0.202307608158    -0.412399631656    -0.000547308674    12.000000000000
         C           -1.626617608158    -0.248593631656    -0.000800308674    12.000000000000
         C            0.380050391842     0.885112368344    -0.000918308674    12.000000000000
         C           -1.858064608158     1.109437368344    -0.000831308674    12.000000000000
         C            2.019508391842    -1.340310631656    -0.000735308674    12.000000000000
         C            2.574083391842    -0.041544631656    -0.000843308674    12.000000000000
         C            0.645101391842    -1.536379631656    -0.001053308674    12.000000000000
         C            1.765709391842     1.088451368344    -0.000471308674    12.000000000000
         N           -0.656582608158     1.790272368344    -0.000869308674    14.003074004430
         H            2.685649691842    -2.199941731656     0.098874691326     1.007825032230
         H            3.655205391842     0.076446368344    -0.000498308674     1.007825032230
         H            0.230033391842    -2.542780631656    -0.000833308674     1.007825032230
         H            2.195657391842     2.088367368344    -0.000482308674     1.007825032230
         H           -3.661412608158    -0.922791631656    -0.000960308674     1.007825032230
         H           -2.551904608158    -1.980253631656     0.882516691326     1.007825032230
         H           -2.797490608158     1.649643368344    -0.001128308674     1.007825032230
         H           -0.556394608158     2.796262368344    -0.000887308674     1.007825032230
         H           -2.551571608158    -1.980844631656    -0.883297308674     1.007825032230

  Nuclear repulsion =  483.240730380104822
  Reference energy  = -400.639583112404807

  ==> Basis Set <==

  Basis Set: AUG-CC-PVTZ
    Blend: AUG-CC-PVTZ
    Number of shells: 221
    Number of basis function: 667
    Number of Cartesian functions: 775
    Spherical Harmonics?: true
    Max angular momentum: 3

  ==> CGRSolver (by Rob Parrish) <==

   Number of roots    =         1
   Preconditioning    =    JACOBI
   Convergence cutoff =     1E-06
   Maximum iterations =       100

  ==> CPHFRHamiltonian (by Rob Parrish) <== 

  ==> MemDFJK: Density-Fitted J/K Matrices <==

    J tasked:                   Yes
    K tasked:                   Yes
    wK tasked:                   No
    OpenMP threads:               8
    Memory [MiB]:             22888
    Algorithm:                 Disk
    Schwarz Cutoff:           1E-12
    Mask sparsity (%):       4.8583
    Fitting Condition:        1E-10

   => Auxiliary Basis Set <=

  Basis Set: (AUG-CC-PVTZ AUX)
    Blend: AUG-CC-PVTZ-JKFIT
    Number of shells: 426
    Number of basis function: 1454
    Number of Cartesian functions: 1805
    Spherical Harmonics?: true
    Max angular momentum: 4

  ==> CPHF Iterations <==

  => Iterations <=

             Iter  Converged  Remaining    Residual
  CGR           1          0          1   8.885E-02
  CGR           2          0          1   3.228E-02
  CGR           3          0          1   1.822E-02
  CGR           4          0          1   6.894E-03
  CGR           5          0          1   3.131E-03
  CGR           6          0          1   1.718E-03
  CGR           7          0          1   5.435E-04
  CGR           8          0          1   1.818E-04
  CGR           9          0          1   6.802E-05
  CGR          10          0          1   3.428E-05
  CGR          11          0          1   1.750E-05
  CGR          12          0          1   6.149E-06
  CGR          13          0          1   1.911E-06
  CGR          14          1          0   5.227E-07

    CGRSolver converged.

	-----------------------------------------------------------
	 ==================> DF-MP2 Energies <==================== 
	-----------------------------------------------------------
	 Reference Energy          =    -400.6395831124048073 [Eh]
	 Singles Energy            =      -0.0000000000000000 [Eh]
	 Same-Spin Energy          =      -0.4517185150592584 [Eh]
	 Opposite-Spin Energy      =      -1.4041741936160275 [Eh]
	 Correlation Energy        =      -1.8558927086752859 [Eh]
	 Total Energy              =    -402.4954758210801060 [Eh]
	-----------------------------------------------------------
	 ================> DF-SCS-MP2 Energies <================== 
	-----------------------------------------------------------
	 SCS Same-Spin Scale       =       0.3333333333333333 [-]
	 SCS Opposite-Spin Scale   =       1.2000000000000000 [-]
	 SCS Same-Spin Energy      =      -0.1505728383530861 [Eh]
	 SCS Opposite-Spin Energy  =      -1.6850090323392328 [Eh]
	 SCS Correlation Energy    =      -1.8355818706923190 [Eh]
	 SCS Total Energy          =    -402.4751649830971019 [Eh]
	-----------------------------------------------------------



Properties will be evaluated at  -0.000000,  -0.000000,   0.000000 [a0]

Properties computed using the MP2 density matrix

  Nuclear Dipole Moment: [e a0]
     X:    -3.1407      Y:    -2.8325      Z:     0.0875

  Electronic Dipole Moment: [e a0]
     X:     2.7609      Y:     3.5457      Z:    -0.0621

  Dipole Moment: [e a0]
     X:    -0.3798      Y:     0.7131      Z:     0.0253     Total:     0.8084

  Dipole Moment: [D]
     X:    -0.9654      Y:     1.8126      Z:     0.0644     Total:     2.0547


*** tstop() called on node59.bme.utexas.edu at Mon Nov  9 02:00:39 2020
Module time:
	user time   =     977.80 seconds =      16.30 minutes
	system time =      46.23 seconds =       0.77 minutes
	total time  =        164 seconds =       2.73 minutes
Total time:
	user time   =    1313.42 seconds =      21.89 minutes
	system time =      91.53 seconds =       1.53 minutes
	total time  =        242 seconds =       4.03 minutes

    Psi4 stopped on: Monday, 09 November 2020 02:00AM
    Psi4 wall time for execution: 0:04:02.39

*** Psi4 exiting successfully. Buy a developer a beer!
