
    -----------------------------------------------------------------------
          Psi4: An Open-Source Ab Initio Electronic Structure Package
                               Psi4 1.4a3.dev225 

                         Git: Rev {master} 7105e37 


    D. G. A. Smith, L. A. Burns, A. C. Simmonett, R. M. Parrish,
    M. C. Schieber, R. Galvelis, P. Kraus, H. Kruse, R. Di Remigio,
    A. Alenaizan, A. M. James, S. Lehtola, J. P. Misiewicz, M. Scheurer,
    R. A. Shaw, J. B. Schriber, Y. Xie, Z. L. Glick, D. A. Sirianni,
    J. S. O'Brien, J. M. Waldrop, A. Kumar, E. G. Hohenstein,
    B. P. Pritchard, B. R. Brooks, H. F. Schaefer III, A. Yu. Sokolov,
    K. Patkowski, A. E. DePrince III, U. Bozkaya, R. A. King,
    F. A. Evangelista, J. M. Turney, T. D. Crawford, C. D. Sherrill,
    J. Chem. Phys. 152(18) 184108 (2020). https://doi.org/10.1063/5.0006002

                            Additional Code Authors
    E. T. Seidl, C. L. Janssen, E. F. Valeev, M. L. Leininger,
    J. F. Gonthier, R. M. Richard, H. R. McAlexander, M. Saitow, X. Wang,
    P. Verma, and M. H. Lechner

             Previous Authors, Complete List of Code Contributors,
                       and Citations for Specific Modules
    https://github.com/psi4/psi4/blob/master/codemeta.json
    https://github.com/psi4/psi4/graphs/contributors
    http://psicode.org/psi4manual/master/introduction.html#citing-psifour

    -----------------------------------------------------------------------


    Psi4 started on: Saturday, 20 March 2021 07:37AM

    Process ID: 35932
    Host:       c446-102.stampede2.tacc.utexas.edu
    PSIDATADIR: /home1/07844/xy3866/miniconda3/envs/p4env/share/psi4
    Memory:     500.0 MiB
    Threads:    32
    
  ==> Input File <==

--------------------------------------------------------------------------
#psi4
#
memory 32 gb

molecule  {
0 1
  O        0.1973020    -1.3235490    -0.2892290
  C       -1.0344600    -0.8194530     0.2767900
  C       -1.2574290     0.6116450    -0.1105210
  C       -0.1783580     1.4194390    -0.0692080
  C        1.1257810     0.8237890     0.1750290
  C        1.2187544    -0.5368161    -0.0387822
  H       -0.9620370    -0.9265990     1.3719500
  H       -1.8114290    -1.4891710    -0.0946800
  H       -2.2490060     0.9624120    -0.3801030
  H       -0.2469520     2.4774150    -0.3092500
  H        2.0071080     1.4278200     0.3572680
  H        2.2048620    -1.0348020    -0.0884010
units angstrom
no_reorient  #important for SAPT in psi4, default
symmetry c1  #important for SAPT in psi4, default
}

set PROPERTIES_ORIGIN ["COM"]
properties('MP2/aug-cc-pvtz', properties = ['dipole'])
--------------------------------------------------------------------------

  Memory set to  29.802 GiB by Python driver.
    SCF Algorithm Type (re)set to DF.

*** tstart() called on c446-102.stampede2.tacc.utexas.edu
*** at Sat Mar 20 07:37:17 2021

   => Loading Basis Set <=

    Name: AUG-CC-PVTZ
    Role: ORBITAL
    Keyword: BASIS
    atoms 1    entry O          line   331 file /home1/07844/xy3866/miniconda3/envs/p4env/share/psi4/basis/aug-cc-pvtz.gbs 
    atoms 2-6  entry C          line   239 file /home1/07844/xy3866/miniconda3/envs/p4env/share/psi4/basis/aug-cc-pvtz.gbs 
    atoms 7-12 entry H          line    40 file /home1/07844/xy3866/miniconda3/envs/p4env/share/psi4/basis/aug-cc-pvtz.gbs 


         ---------------------------------------------------------
                                   SCF
               by Justin Turney, Rob Parrish, Andy Simmonett
                          and Daniel G. A. Smith
                              RHF Reference
                       32 Threads,  30517 MiB Core
         ---------------------------------------------------------

  ==> Geometry <==

    Molecular point group: c1
    Full point group: C1

    Geometry (in Angstrom), charge = 0, multiplicity = 1:

       Center              X                  Y                   Z               Mass       
    ------------   -----------------  -----------------  -----------------  -----------------
         O            0.190213413777    -1.302113080713    -0.277490953817    15.994914619570
         C           -1.041548586223    -0.798017080713     0.288528046183    12.000000000000
         C           -1.264517586223     0.633080919287    -0.098782953817    12.000000000000
         C           -0.185446586223     1.440874919287    -0.057469953817    12.000000000000
         C            1.118692413777     0.845224919287     0.186767046183    12.000000000000
         C            1.211665813777    -0.515380180713    -0.027044153817    12.000000000000
         H           -0.969125586223    -0.905163080713     1.383688046183     1.007825032230
         H           -1.818517586223    -1.467735080713    -0.082941953817     1.007825032230
         H           -2.256094586223     0.983847919287    -0.368364953817     1.007825032230
         H           -0.254040586223     2.498850919287    -0.297511953817     1.007825032230
         H            2.000019413777     1.449255919287     0.369006046183     1.007825032230
         H            2.197773413777    -1.013366080713    -0.076662953817     1.007825032230

  Running in c1 symmetry.

  Rotational constants: A =      0.18969  B =      0.17707  C =      0.09694 [cm^-1]
  Rotational constants: A =   5686.76942  B =   5308.41199  C =   2906.08068 [MHz]
  Nuclear repulsion =  224.071988257887142

  Charge       = 0
  Multiplicity = 1
  Electrons    = 44
  Nalpha       = 22
  Nbeta        = 22

  ==> Algorithm <==

  SCF Algorithm Type is DF.
  DIIS enabled.
  MOM disabled.
  Fractional occupation disabled.
  Guess Type is SAD.
  Energy threshold   = 1.00e-10
  Density threshold  = 1.00e-10
  Integral threshold = 1.00e-12

  ==> Primary Basis <==

  Basis Set: AUG-CC-PVTZ
    Blend: AUG-CC-PVTZ
    Number of shells: 138
    Number of basis functions: 414
    Number of Cartesian functions: 480
    Spherical Harmonics?: true
    Max angular momentum: 3

   => Loading Basis Set <=

    Name: (AUG-CC-PVTZ AUX)
    Role: JKFIT
    Keyword: DF_BASIS_SCF
    atoms 1    entry O          line   286 file /home1/07844/xy3866/miniconda3/envs/p4env/share/psi4/basis/aug-cc-pvtz-jkfit.gbs 
    atoms 2-6  entry C          line   162 file /home1/07844/xy3866/miniconda3/envs/p4env/share/psi4/basis/aug-cc-pvtz-jkfit.gbs 
    atoms 7-12 entry H          line    70 file /home1/07844/xy3866/miniconda3/envs/p4env/share/psi4/basis/aug-cc-pvtz-jkfit.gbs 

  ==> Integral Setup <==

  DFHelper Memory: AOs need 1.209 GiB; user supplied 22.352 GiB. Using in-core AOs.

  ==> MemDFJK: Density-Fitted J/K Matrices <==

    J tasked:                   Yes
    K tasked:                   Yes
    wK tasked:                   No
    OpenMP threads:              32
    Memory [MiB]:             22888
    Algorithm:                 Core
    Schwarz Cutoff:           1E-12
    Mask sparsity (%):       1.8437
    Fitting Condition:        1E-10

   => Auxiliary Basis Set <=

  Basis Set: (AUG-CC-PVTZ AUX)
    Blend: AUG-CC-PVTZ-JKFIT
    Number of shells: 264
    Number of basis functions: 900
    Number of Cartesian functions: 1116
    Spherical Harmonics?: true
    Max angular momentum: 4

  Minimum eigenvalue in the overlap matrix is 4.1901063247E-06.
  Reciprocal condition number of the overlap matrix is 2.5269261106E-07.
    Using symmetric orthogonalization.

  ==> Pre-Iterations <==

  SCF Guess: Superposition of Atomic Densities via on-the-fly atomic UHF (no occupation information).

   -------------------------
    Irrep   Nso     Nmo    
   -------------------------
     A        414     414 
   -------------------------
    Total     414     414
   -------------------------

  ==> Iterations <==

                           Total Energy        Delta E     RMS |[F,P]|

   @DF-RHF iter SAD:  -267.16004479664730   -2.67160e+02   0.00000e+00 
   @DF-RHF iter   1:  -267.56609490377002   -4.06050e-01   1.27207e-03 DIIS
   @DF-RHF iter   2:  -267.70110686460515   -1.35012e-01   6.14259e-04 DIIS
   @DF-RHF iter   3:  -267.73299870834865   -3.18918e-02   1.25026e-04 DIIS
   @DF-RHF iter   4:  -267.73523626078031   -2.23755e-03   3.97471e-05 DIIS
   @DF-RHF iter   5:  -267.73542054078780   -1.84280e-04   1.31343e-05 DIIS
   @DF-RHF iter   6:  -267.73545128531907   -3.07445e-05   5.15897e-06 DIIS
   @DF-RHF iter   7:  -267.73545890369826   -7.61838e-06   2.06500e-06 DIIS
   @DF-RHF iter   8:  -267.73546021328167   -1.30958e-06   9.28490e-07 DIIS
   @DF-RHF iter   9:  -267.73546056040976   -3.47128e-07   3.18710e-07 DIIS
   @DF-RHF iter  10:  -267.73546060116394   -4.07542e-08   1.52196e-07 DIIS
   @DF-RHF iter  11:  -267.73546060973388   -8.56994e-09   5.21473e-08 DIIS
   @DF-RHF iter  12:  -267.73546061082226   -1.08838e-09   2.16654e-08 DIIS
   @DF-RHF iter  13:  -267.73546061094385   -1.21588e-10   6.64548e-09 DIIS
   @DF-RHF iter  14:  -267.73546061095374   -9.89075e-12   2.12077e-09 DIIS
   @DF-RHF iter  15:  -267.73546061095544   -1.70530e-12   5.76417e-10 DIIS
   @DF-RHF iter  16:  -267.73546061095550   -5.68434e-14   2.69330e-10 DIIS
   @DF-RHF iter  17:  -267.73546061095556   -5.68434e-14   1.00043e-10 DIIS
   @DF-RHF iter  18:  -267.73546061095567   -1.13687e-13   4.45738e-11 DIIS
  Energy and wave function converged.


  ==> Post-Iterations <==

    Orbital Energies [Eh]
    ---------------------

    Doubly Occupied:                                                      

       1A    -20.596050     2A    -11.307076     3A    -11.294772  
       4A    -11.240847     5A    -11.227997     6A    -11.224201  
       7A     -1.433457     8A     -1.094825     9A     -1.033056  
      10A     -0.898777    11A     -0.842133    12A     -0.721094  
      13A     -0.706944    14A     -0.657464    15A     -0.638021  
      16A     -0.608481    17A     -0.570298    18A     -0.535312  
      19A     -0.515392    20A     -0.468492    21A     -0.416400  
      22A     -0.294850  

    Virtual:                                                              

      23A      0.029778    24A      0.035049    25A      0.037807  
      26A      0.046870    27A      0.051970    28A      0.053369  
      29A      0.084811    30A      0.093870    31A      0.098783  
      32A      0.105078    33A      0.110479    34A      0.119099  
      35A      0.121579    36A      0.124713    37A      0.129646  
      38A      0.131897    39A      0.138993    40A      0.145035  
      41A      0.147508    42A      0.151122    43A      0.153305  
      44A      0.154716    45A      0.160627    46A      0.198059  
      47A      0.209108    48A      0.220490    49A      0.232223  
      50A      0.238763    51A      0.248158    52A      0.261528  
      53A      0.266480    54A      0.275087    55A      0.287717  
      56A      0.290917    57A      0.298536    58A      0.304957  
      59A      0.309143    60A      0.316717    61A      0.322495  
      62A      0.327215    63A      0.337679    64A      0.339640  
      65A      0.348487    66A      0.354861    67A      0.361195  
      68A      0.364956    69A      0.374297    70A      0.382129  
      71A      0.394985    72A      0.400298    73A      0.405248  
      74A      0.416779    75A      0.420099    76A      0.433931  
      77A      0.440693    78A      0.445974    79A      0.450446  
      80A      0.459802    81A      0.467358    82A      0.476973  
      83A      0.481942    84A      0.484406    85A      0.492032  
      86A      0.503148    87A      0.503378    88A      0.513793  
      89A      0.524563    90A      0.526847    91A      0.537139  
      92A      0.543933    93A      0.553385    94A      0.558947  
      95A      0.568857    96A      0.573801    97A      0.580730  
      98A      0.590649    99A      0.604237   100A      0.611806  
     101A      0.640381   102A      0.643398   103A      0.649933  
     104A      0.650919   105A      0.663716   106A      0.684383  
     107A      0.710010   108A      0.717094   109A      0.733759  
     110A      0.752915   111A      0.764554   112A      0.773044  
     113A      0.782299   114A      0.801940   115A      0.804655  
     116A      0.811445   117A      0.819958   118A      0.831049  
     119A      0.836565   120A      0.846438   121A      0.854555  
     122A      0.863019   123A      0.878384   124A      0.879911  
     125A      0.890256   126A      0.905251   127A      0.910398  
     128A      0.921763   129A      0.931208   130A      0.938573  
     131A      0.963845   132A      0.973374   133A      0.983390  
     134A      0.990169   135A      0.992605   136A      1.002127  
     137A      1.022461   138A      1.025800   139A      1.037274  
     140A      1.042885   141A      1.047080   142A      1.053343  
     143A      1.059456   144A      1.069418   145A      1.077083  
     146A      1.084118   147A      1.088361   148A      1.092911  
     149A      1.109673   150A      1.127089   151A      1.131574  
     152A      1.137725   153A      1.145073   154A      1.156396  
     155A      1.163703   156A      1.167578   157A      1.180460  
     158A      1.188755   159A      1.196481   160A      1.200209  
     161A      1.210029   162A      1.220758   163A      1.227866  
     164A      1.250901   165A      1.268357   166A      1.275459  
     167A      1.281995   168A      1.288600   169A      1.303061  
     170A      1.320576   171A      1.330214   172A      1.337750  
     173A      1.355944   174A      1.372976   175A      1.402002  
     176A      1.420775   177A      1.438031   178A      1.447617  
     179A      1.452497   180A      1.463006   181A      1.493821  
     182A      1.512377   183A      1.520162   184A      1.532819  
     185A      1.551671   186A      1.567244   187A      1.572686  
     188A      1.599025   189A      1.608921   190A      1.625029  
     191A      1.642771   192A      1.655563   193A      1.665778  
     194A      1.683850   195A      1.717461   196A      1.739884  
     197A      1.750667   198A      1.758210   199A      1.763283  
     200A      1.778432   201A      1.785785   202A      1.813339  
     203A      1.818463   204A      1.827874   205A      1.842069  
     206A      1.856909   207A      1.862825   208A      1.882284  
     209A      1.898901   210A      1.909030   211A      1.919052  
     212A      1.935405   213A      1.951061   214A      1.956494  
     215A      1.980663   216A      1.991015   217A      1.998232  
     218A      2.005642   219A      2.025296   220A      2.045623  
     221A      2.057266   222A      2.074668   223A      2.081846  
     224A      2.083619   225A      2.102538   226A      2.151860  
     227A      2.169316   228A      2.176217   229A      2.195281  
     230A      2.202425   231A      2.207517   232A      2.252309  
     233A      2.269517   234A      2.298797   235A      2.308211  
     236A      2.340154   237A      2.358214   238A      2.371841  
     239A      2.392088   240A      2.422534   241A      2.452145  
     242A      2.479374   243A      2.493392   244A      2.550777  
     245A      2.556868   246A      2.580015   247A      2.614906  
     248A      2.628260   249A      2.662307   250A      2.689921  
     251A      2.742483   252A      2.812575   253A      2.847704  
     254A      2.864418   255A      2.890211   256A      2.895759  
     257A      2.966844   258A      2.984955   259A      3.020680  
     260A      3.076028   261A      3.094630   262A      3.125241  
     263A      3.138987   264A      3.185084   265A      3.193108  
     266A      3.242757   267A      3.273884   268A      3.292033  
     269A      3.312628   270A      3.319681   271A      3.354024  
     272A      3.382560   273A      3.393824   274A      3.424299  
     275A      3.439659   276A      3.479190   277A      3.485878  
     278A      3.497238   279A      3.514471   280A      3.531247  
     281A      3.547138   282A      3.558846   283A      3.571970  
     284A      3.583145   285A      3.618411   286A      3.642146  
     287A      3.647802   288A      3.678796   289A      3.693271  
     290A      3.732852   291A      3.746988   292A      3.762417  
     293A      3.773641   294A      3.786668   295A      3.820728  
     296A      3.824641   297A      3.839807   298A      3.849642  
     299A      3.857735   300A      3.871250   301A      3.889989  
     302A      3.920845   303A      3.958576   304A      3.969275  
     305A      3.980247   306A      4.001294   307A      4.019253  
     308A      4.030169   309A      4.045389   310A      4.065753  
     311A      4.073618   312A      4.079376   313A      4.102975  
     314A      4.113265   315A      4.131290   316A      4.161958  
     317A      4.184546   318A      4.201830   319A      4.224550  
     320A      4.235122   321A      4.252318   322A      4.267119  
     323A      4.287838   324A      4.298861   325A      4.310619  
     326A      4.345240   327A      4.365242   328A      4.372955  
     329A      4.400967   330A      4.423913   331A      4.424833  
     332A      4.451010   333A      4.467084   334A      4.473143  
     335A      4.507405   336A      4.547579   337A      4.606925  
     338A      4.610965   339A      4.644303   340A      4.670403  
     341A      4.692518   342A      4.728737   343A      4.774564  
     344A      4.795611   345A      4.808757   346A      4.826232  
     347A      4.870135   348A      4.899737   349A      4.902003  
     350A      4.943035   351A      4.968983   352A      4.976032  
     353A      5.018251   354A      5.039505   355A      5.059907  
     356A      5.076841   357A      5.093551   358A      5.119961  
     359A      5.149246   360A      5.154874   361A      5.196315  
     362A      5.215767   363A      5.229654   364A      5.243502  
     365A      5.283666   366A      5.311503   367A      5.332778  
     368A      5.381187   369A      5.396613   370A      5.448317  
     371A      5.473110   372A      5.512660   373A      5.542471  
     374A      5.557485   375A      5.582577   376A      5.609794  
     377A      5.655799   378A      5.696774   379A      5.716380  
     380A      5.811944   381A      5.887560   382A      5.956351  
     383A      6.009273   384A      6.051256   385A      6.132573  
     386A      6.172376   387A      6.226361   388A      6.300230  
     389A      6.408349   390A      6.491198   391A      6.566671  
     392A      6.668371   393A      6.756300   394A      6.786552  
     395A      6.837694   396A      6.956502   397A      6.962187  
     398A      7.031418   399A      7.169817   400A      7.199684  
     401A      7.411623   402A      7.549858   403A      7.597290  
     404A      7.689603   405A      7.829679   406A      7.916124  
     407A      8.291641   408A      8.422519   409A     15.316254  
     410A     16.571809   411A     17.419383   412A     17.887437  
     413A     18.523818   414A     19.322512  

    Final Occupation by Irrep:
              A 
    DOCC [    22 ]

  @DF-RHF Final Energy:  -267.73546061095567

   => Energetics <=

    Nuclear Repulsion Energy =            224.0719882578871420
    One-Electron Energy =                -806.9630177700522609
    Two-Electron Energy =                 315.1555689012094490
    Total Energy =                       -267.7354606109556698

Computation Completed

*** tstop() called on c446-102.stampede2.tacc.utexas.edu at Sat Mar 20 07:37:32 2021
Module time:
	user time   =     222.29 seconds =       3.70 minutes
	system time =      18.02 seconds =       0.30 minutes
	total time  =         15 seconds =       0.25 minutes
Total time:
	user time   =     222.29 seconds =       3.70 minutes
	system time =      18.02 seconds =       0.30 minutes
	total time  =         15 seconds =       0.25 minutes
   => Loading Basis Set <=

    Name: (AUG-CC-PVTZ AUX)
    Role: RIFIT
    Keyword: DF_BASIS_MP2
    atoms 1    entry O          line   264 file /home1/07844/xy3866/miniconda3/envs/p4env/share/psi4/basis/aug-cc-pvtz-ri.gbs 
    atoms 2-6  entry C          line   148 file /home1/07844/xy3866/miniconda3/envs/p4env/share/psi4/basis/aug-cc-pvtz-ri.gbs 
    atoms 7-12 entry H          line    30 file /home1/07844/xy3866/miniconda3/envs/p4env/share/psi4/basis/aug-cc-pvtz-ri.gbs 


*** tstart() called on c446-102.stampede2.tacc.utexas.edu
*** at Sat Mar 20 07:37:33 2021


  //>>>>>>>>>>>>>>>>>>>>>>>>>>>>>>>>>>>//
  //               DFMP2               //
  //<<<<<<<<<<<<<<<<<<<<<<<<<<<<<<<<<<<//

	 --------------------------------------------------------
	                          DF-MP2                         
	      2nd-Order Density-Fitted Moller-Plesset Theory     
	              RMP2 Wavefunction,  32 Threads             
	                                                         
	        Rob Parrish, Justin Turney, Andy Simmonett,      
	           Ed Hohenstein, and C. David Sherrill          
	 --------------------------------------------------------

   => Auxiliary Basis Set <=

  Basis Set: (AUG-CC-PVTZ AUX)
    Blend: AUG-CC-PVTZ-RI
    Number of shells: 252
    Number of basis functions: 912
    Number of Cartesian functions: 1146
    Spherical Harmonics?: true
    Max angular momentum: 4

	 --------------------------------------------------------
	                 NBF =   414, NAUX =   912
	 --------------------------------------------------------
	   CLASS    FOCC     OCC    AOCC    AVIR     VIR    FVIR
	   PAIRS       0      22      22     392     392       0
	 --------------------------------------------------------

  DFHelper Memory: AOs need 1.220 GiB; user supplied 22.352 GiB. Using in-core AOs.


         ------------------------------------------------------------
                                     CPHF                           
                                  Rob Parrish                       
         ------------------------------------------------------------

  ==> Geometry <==

    Molecular point group: c1
    Full point group: C1

    Geometry (in Angstrom), charge = 0, multiplicity = 1:

       Center              X                  Y                   Z               Mass       
    ------------   -----------------  -----------------  -----------------  -----------------
         O            0.190213413777    -1.302113080713    -0.277490953817    15.994914619570
         C           -1.041548586223    -0.798017080713     0.288528046183    12.000000000000
         C           -1.264517586223     0.633080919287    -0.098782953817    12.000000000000
         C           -0.185446586223     1.440874919287    -0.057469953817    12.000000000000
         C            1.118692413777     0.845224919287     0.186767046183    12.000000000000
         C            1.211665813777    -0.515380180713    -0.027044153817    12.000000000000
         H           -0.969125586223    -0.905163080713     1.383688046183     1.007825032230
         H           -1.818517586223    -1.467735080713    -0.082941953817     1.007825032230
         H           -2.256094586223     0.983847919287    -0.368364953817     1.007825032230
         H           -0.254040586223     2.498850919287    -0.297511953817     1.007825032230
         H            2.000019413777     1.449255919287     0.369006046183     1.007825032230
         H            2.197773413777    -1.013366080713    -0.076662953817     1.007825032230

  Nuclear repulsion =  224.071988257887142
  Reference energy  = -267.735460610955670

  ==> Basis Set <==

  Basis Set: AUG-CC-PVTZ
    Blend: AUG-CC-PVTZ
    Number of shells: 138
    Number of basis functions: 414
    Number of Cartesian functions: 480
    Spherical Harmonics?: true
    Max angular momentum: 3

  ==> CGRSolver (by Rob Parrish) <==

   Number of roots    =         1
   Preconditioning    =    JACOBI
   Convergence cutoff =     1E-06
   Maximum iterations =       100

  ==> CPHFRHamiltonian (by Rob Parrish) <== 

  ==> MemDFJK: Density-Fitted J/K Matrices <==

    J tasked:                   Yes
    K tasked:                   Yes
    wK tasked:                   No
    OpenMP threads:              32
    Memory [MiB]:             22888
    Algorithm:                 Core
    Schwarz Cutoff:           1E-12
    Mask sparsity (%):       0.9335
    Fitting Condition:        1E-10

   => Auxiliary Basis Set <=

  Basis Set: (AUG-CC-PVTZ AUX)
    Blend: AUG-CC-PVTZ-JKFIT
    Number of shells: 264
    Number of basis functions: 900
    Number of Cartesian functions: 1116
    Spherical Harmonics?: true
    Max angular momentum: 4

  ==> CPHF Iterations <==

  => Iterations <=

             Iter  Converged  Remaining    Residual
  CGR           1          0          1   1.116E-01
  CGR           2          0          1   3.267E-02
  CGR           3          0          1   1.545E-02
  CGR           4          0          1   4.647E-03
  CGR           5          0          1   1.503E-03
  CGR           6          0          1   7.178E-04
  CGR           7          0          1   3.150E-04
  CGR           8          0          1   1.127E-04
  CGR           9          0          1   3.812E-05
  CGR          10          0          1   1.646E-05
  CGR          11          0          1   3.936E-06
  CGR          12          0          1   1.241E-06
  CGR          13          1          0   3.444E-07

    CGRSolver converged.

	-----------------------------------------------------------
	 ==================> DF-MP2 Energies <==================== 
	-----------------------------------------------------------
	 Reference Energy          =    -267.7354606109556698 [Eh]
	 Singles Energy            =      -0.0000000000000000 [Eh]
	 Same-Spin Energy          =      -0.2746113017787495 [Eh]
	 Opposite-Spin Energy      =      -0.8865204752142419 [Eh]
	 Correlation Energy        =      -1.1611317769929914 [Eh]
	 Total Energy              =    -268.8965923879486581 [Eh]
	-----------------------------------------------------------
	 ================> DF-SCS-MP2 Energies <================== 
	-----------------------------------------------------------
	 SCS Same-Spin Scale       =       0.3333333333333333 [-]
	 SCS Opposite-Spin Scale   =       1.2000000000000000 [-]
	 SCS Same-Spin Energy      =      -0.0915371005929165 [Eh]
	 SCS Opposite-Spin Energy  =      -1.0638245702570903 [Eh]
	 SCS Correlation Energy    =      -1.1553616708500067 [Eh]
	 SCS Total Energy          =    -268.8908222818056970 [Eh]
	-----------------------------------------------------------



Properties will be evaluated at   0.000000,  -0.000000,  -0.000000 [a0]

Properties computed using the MP2 density matrix

  Nuclear Dipole Moment: [e a0]
     X:    -1.0303      Y:     1.4428      Z:     0.8679

  Electronic Dipole Moment: [e a0]
     X:     0.8606      Y:    -1.2779      Z:    -0.7172

  Dipole Moment: [e a0]
     X:    -0.1697      Y:     0.1649      Z:     0.1507     Total:     0.2805

  Dipole Moment: [D]
     X:    -0.4314      Y:     0.4191      Z:     0.3830     Total:     0.7130


*** tstop() called on c446-102.stampede2.tacc.utexas.edu at Sat Mar 20 07:38:43 2021
Module time:
	user time   =     492.60 seconds =       8.21 minutes
	system time =      17.32 seconds =       0.29 minutes
	total time  =         70 seconds =       1.17 minutes
Total time:
	user time   =     715.84 seconds =      11.93 minutes
	system time =      35.39 seconds =       0.59 minutes
	total time  =         86 seconds =       1.43 minutes

    Psi4 stopped on: Saturday, 20 March 2021 07:38AM
    Psi4 wall time for execution: 0:01:26.04

*** Psi4 exiting successfully. Buy a developer a beer!
