45085116                                                                
Freq      RMP2-FC                                                     6-31G(d)            
Number of atoms                            I               19
Info1-9                                    I   N=           9
          31          29        1002           0           0         100
           6           2           1
Charge                                     I                0
Multiplicity                               I                1
Number of electrons                        I               64
Number of alpha electrons                  I               32
Number of beta electrons                   I               32
Number of basis functions                  I              142
Number of independent functions            I              142
Number of point charges in /Mol/           I                0
Number of translation vectors              I                0
Atomic numbers                             I   N=          19
           8           8           7           6           6           6
           6           6           1           1           1           1
           1           1           1           1           1           1
           1
Nuclear charges                            R   N=          19
  8.00000000E+00  8.00000000E+00  7.00000000E+00  6.00000000E+00  6.00000000E+00
  6.00000000E+00  6.00000000E+00  6.00000000E+00  1.00000000E+00  1.00000000E+00
  1.00000000E+00  1.00000000E+00  1.00000000E+00  1.00000000E+00  1.00000000E+00
  1.00000000E+00  1.00000000E+00  1.00000000E+00  1.00000000E+00
Current cartesian coordinates              R   N=          57
 -2.96830644E+00 -2.85789234E+00 -4.40852619E-01  2.61237712E-01  3.03783159E+00
 -5.78190810E-01  1.32265905E+00 -9.25303567E-01  8.01169181E-01 -2.92085117E+00
 -1.76385866E-01 -8.24251114E-01  3.92754006E+00 -2.64319154E-01  1.37412206E+00
 -2.77840231E-01  7.93240618E-01 -2.11962870E-01 -4.85289382E+00  1.18321276E+00
  8.13828296E-01  5.61769305E+00 -3.18100997E-01 -9.58290369E-01 -3.25363888E+00
  2.68892977E-01 -2.82566145E+00  3.91093428E+00  1.63058688E+00  2.19452045E+00
  4.60554884E+00 -1.58117329E+00  2.81656653E+00  7.27236779E-01 -2.74264348E+00
  8.68872204E-01 -4.52478902E+00  7.13293348E-01  2.79866654E+00 -6.77826066E+00
  6.19250675E-01  3.04047981E-01 -4.66808877E+00  3.22213158E+00  5.59856332E-01
  5.62917521E+00 -2.19908870E+00 -1.81343275E+00  4.92078555E+00  1.04047672E+00
 -2.34600101E+00  7.56124040E+00  1.85897379E-01 -4.61983626E-01 -4.69409452E+00
 -3.42589738E+00 -7.11964050E-01
Force Field                                I                0
Int Atom Types                             I   N=          19
           0           0           0           0           0           0
           0           0           0           0           0           0
           0           0           0           0           0           0
           0
MM charges                                 R   N=          19
  0.00000000E+00  0.00000000E+00  0.00000000E+00  0.00000000E+00  0.00000000E+00
  0.00000000E+00  0.00000000E+00  0.00000000E+00  0.00000000E+00  0.00000000E+00
  0.00000000E+00  0.00000000E+00  0.00000000E+00  0.00000000E+00  0.00000000E+00
  0.00000000E+00  0.00000000E+00  0.00000000E+00  0.00000000E+00
Integer atomic weights                     I   N=          19
          16          16          14          12          12          12
          12          12           1           1           1           1
           1           1           1           1           1           1
           1
Real atomic weights                        R   N=          19
  1.59949146E+01  1.59949146E+01  1.40030740E+01  1.20000000E+01  1.20000000E+01
  1.20000000E+01  1.20000000E+01  1.20000000E+01  1.00782504E+00  1.00782504E+00
  1.00782504E+00  1.00782504E+00  1.00782504E+00  1.00782504E+00  1.00782504E+00
  1.00782504E+00  1.00782504E+00  1.00782504E+00  1.00782504E+00
Atom fragment info                         I   N=          19
           0           0           0           0           0           0
           0           0           0           0           0           0
           0           0           0           0           0           0
           0
Atom residue num                           I   N=          19
           0           0           0           0           0           0
           0           0           0           0           0           0
           0           0           0           0           0           0
           0
Nuclear spins                              I   N=          19
           0           0           2           0           0           0
           0           0           1           1           1           1
           1           1           1           1           1           1
           1
Nuclear ZEff                               R   N=          19
 -5.60000000E+00 -5.60000000E+00 -4.55000000E+00 -3.60000000E+00 -3.60000000E+00
 -3.60000000E+00 -3.60000000E+00 -3.60000000E+00 -1.00000000E+00 -1.00000000E+00
 -1.00000000E+00 -1.00000000E+00 -1.00000000E+00 -1.00000000E+00 -1.00000000E+00
 -1.00000000E+00 -1.00000000E+00 -1.00000000E+00 -1.00000000E+00
Nuclear QMom                               R   N=          19
  0.00000000E+00  0.00000000E+00  2.04400000E+00  0.00000000E+00  0.00000000E+00
  0.00000000E+00  0.00000000E+00  0.00000000E+00  0.00000000E+00  0.00000000E+00
  0.00000000E+00  0.00000000E+00  0.00000000E+00  0.00000000E+00  0.00000000E+00
  0.00000000E+00  0.00000000E+00  0.00000000E+00  0.00000000E+00
Nuclear GFac                               R   N=          19
  0.00000000E+00  0.00000000E+00  4.03761000E-01  0.00000000E+00  0.00000000E+00
  0.00000000E+00  0.00000000E+00  0.00000000E+00  2.79284600E+00  2.79284600E+00
  2.79284600E+00  2.79284600E+00  2.79284600E+00  2.79284600E+00  2.79284600E+00
  2.79284600E+00  2.79284600E+00  2.79284600E+00  2.79284600E+00
MicOpt                                     I   N=          19
          -1          -1          -1          -1          -1          -1
          -1          -1          -1          -1          -1          -1
          -1          -1          -1          -1          -1          -1
          -1
Number of contracted shells                I               54
Number of primitive shells                 I              132
Pure/Cartesian d shells                    I                1
Pure/Cartesian f shells                    I                0
Highest angular momentum                   I                2
Largest degree of contraction              I                6
Shell types                                I   N=          54
           0          -1          -1           2           0          -1
          -1           2           0          -1          -1           2
           0          -1          -1           2           0          -1
          -1           2           0          -1          -1           2
           0          -1          -1           2           0          -1
          -1           2           0           0           0           0
           0           0           0           0           0           0
           0           0           0           0           0           0
           0           0           0           0           0           0
Number of primitives per shell             I   N=          54
           6           3           1           1           6           3
           1           1           6           3           1           1
           6           3           1           1           6           3
           1           1           6           3           1           1
           6           3           1           1           6           3
           1           1           3           1           3           1
           3           1           3           1           3           1
           3           1           3           1           3           1
           3           1           3           1           3           1
Shell to atom map                          I   N=          54
           1           1           1           1           2           2
           2           2           3           3           3           3
           4           4           4           4           5           5
           5           5           6           6           6           6
           7           7           7           7           8           8
           8           8           9           9          10          10
          11          11          12          12          13          13
          14          14          15          15          16          16
          17          17          18          18          19          19
Primitive exponents                        R   N=         132
  5.48467166E+03  8.25234946E+02  1.88046958E+02  5.29645000E+01  1.68975704E+01
  5.79963534E+00  1.55396162E+01  3.59993359E+00  1.01376175E+00  2.70005823E-01
  8.00000000E-01  5.48467166E+03  8.25234946E+02  1.88046958E+02  5.29645000E+01
  1.68975704E+01  5.79963534E+00  1.55396162E+01  3.59993359E+00  1.01376175E+00
  2.70005823E-01  8.00000000E-01  4.17351146E+03  6.27457911E+02  1.42902093E+02
  4.02343293E+01  1.28202129E+01  4.39043701E+00  1.16263619E+01  2.71627981E+00
  7.72218397E-01  2.12031498E-01  8.00000000E-01  3.04752488E+03  4.57369518E+02
  1.03948685E+02  2.92101553E+01  9.28666296E+00  3.16392696E+00  7.86827235E+00
  1.88128854E+00  5.44249258E-01  1.68714478E-01  8.00000000E-01  3.04752488E+03
  4.57369518E+02  1.03948685E+02  2.92101553E+01  9.28666296E+00  3.16392696E+00
  7.86827235E+00  1.88128854E+00  5.44249258E-01  1.68714478E-01  8.00000000E-01
  3.04752488E+03  4.57369518E+02  1.03948685E+02  2.92101553E+01  9.28666296E+00
  3.16392696E+00  7.86827235E+00  1.88128854E+00  5.44249258E-01  1.68714478E-01
  8.00000000E-01  3.04752488E+03  4.57369518E+02  1.03948685E+02  2.92101553E+01
  9.28666296E+00  3.16392696E+00  7.86827235E+00  1.88128854E+00  5.44249258E-01
  1.68714478E-01  8.00000000E-01  3.04752488E+03  4.57369518E+02  1.03948685E+02
  2.92101553E+01  9.28666296E+00  3.16392696E+00  7.86827235E+00  1.88128854E+00
  5.44249258E-01  1.68714478E-01  8.00000000E-01  1.87311370E+01  2.82539436E+00
  6.40121692E-01  1.61277759E-01  1.87311370E+01  2.82539436E+00  6.40121692E-01
  1.61277759E-01  1.87311370E+01  2.82539436E+00  6.40121692E-01  1.61277759E-01
  1.87311370E+01  2.82539436E+00  6.40121692E-01  1.61277759E-01  1.87311370E+01
  2.82539436E+00  6.40121692E-01  1.61277759E-01  1.87311370E+01  2.82539436E+00
  6.40121692E-01  1.61277759E-01  1.87311370E+01  2.82539436E+00  6.40121692E-01
  1.61277759E-01  1.87311370E+01  2.82539436E+00  6.40121692E-01  1.61277759E-01
  1.87311370E+01  2.82539436E+00  6.40121692E-01  1.61277759E-01  1.87311370E+01
  2.82539436E+00  6.40121692E-01  1.61277759E-01  1.87311370E+01  2.82539436E+00
  6.40121692E-01  1.61277759E-01
Contraction coefficients                   R   N=         132
  1.83107443E-03  1.39501722E-02  6.84450781E-02  2.32714336E-01  4.70192898E-01
  3.58520853E-01 -1.10777550E-01 -1.48026263E-01  1.13076702E+00  1.00000000E+00
  1.00000000E+00  1.83107443E-03  1.39501722E-02  6.84450781E-02  2.32714336E-01
  4.70192898E-01  3.58520853E-01 -1.10777550E-01 -1.48026263E-01  1.13076702E+00
  1.00000000E+00  1.00000000E+00  1.83477216E-03  1.39946270E-02  6.85865518E-02
  2.32240873E-01  4.69069948E-01  3.60455199E-01 -1.14961182E-01 -1.69117479E-01
  1.14585195E+00  1.00000000E+00  1.00000000E+00  1.83473713E-03  1.40373228E-02
  6.88426223E-02  2.32184443E-01  4.67941348E-01  3.62311985E-01 -1.19332420E-01
 -1.60854152E-01  1.14345644E+00  1.00000000E+00  1.00000000E+00  1.83473713E-03
  1.40373228E-02  6.88426223E-02  2.32184443E-01  4.67941348E-01  3.62311985E-01
 -1.19332420E-01 -1.60854152E-01  1.14345644E+00  1.00000000E+00  1.00000000E+00
  1.83473713E-03  1.40373228E-02  6.88426223E-02  2.32184443E-01  4.67941348E-01
  3.62311985E-01 -1.19332420E-01 -1.60854152E-01  1.14345644E+00  1.00000000E+00
  1.00000000E+00  1.83473713E-03  1.40373228E-02  6.88426223E-02  2.32184443E-01
  4.67941348E-01  3.62311985E-01 -1.19332420E-01 -1.60854152E-01  1.14345644E+00
  1.00000000E+00  1.00000000E+00  1.83473713E-03  1.40373228E-02  6.88426223E-02
  2.32184443E-01  4.67941348E-01  3.62311985E-01 -1.19332420E-01 -1.60854152E-01
  1.14345644E+00  1.00000000E+00  1.00000000E+00  3.34946043E-02  2.34726953E-01
  8.13757326E-01  1.00000000E+00  3.34946043E-02  2.34726953E-01  8.13757326E-01
  1.00000000E+00  3.34946043E-02  2.34726953E-01  8.13757326E-01  1.00000000E+00
  3.34946043E-02  2.34726953E-01  8.13757326E-01  1.00000000E+00  3.34946043E-02
  2.34726953E-01  8.13757326E-01  1.00000000E+00  3.34946043E-02  2.34726953E-01
  8.13757326E-01  1.00000000E+00  3.34946043E-02  2.34726953E-01  8.13757326E-01
  1.00000000E+00  3.34946043E-02  2.34726953E-01  8.13757326E-01  1.00000000E+00
  3.34946043E-02  2.34726953E-01  8.13757326E-01  1.00000000E+00  3.34946043E-02
  2.34726953E-01  8.13757326E-01  1.00000000E+00  3.34946043E-02  2.34726953E-01
  8.13757326E-01  1.00000000E+00
P(S=P) Contraction coefficients            R   N=         132
  0.00000000E+00  0.00000000E+00  0.00000000E+00  0.00000000E+00  0.00000000E+00
  0.00000000E+00  7.08742682E-02  3.39752839E-01  7.27158577E-01  1.00000000E+00
  0.00000000E+00  0.00000000E+00  0.00000000E+00  0.00000000E+00  0.00000000E+00
  0.00000000E+00  0.00000000E+00  7.08742682E-02  3.39752839E-01  7.27158577E-01
  1.00000000E+00  0.00000000E+00  0.00000000E+00  0.00000000E+00  0.00000000E+00
  0.00000000E+00  0.00000000E+00  0.00000000E+00  6.75797439E-02  3.23907296E-01
  7.40895140E-01  1.00000000E+00  0.00000000E+00  0.00000000E+00  0.00000000E+00
  0.00000000E+00  0.00000000E+00  0.00000000E+00  0.00000000E+00  6.89990666E-02
  3.16423961E-01  7.44308291E-01  1.00000000E+00  0.00000000E+00  0.00000000E+00
  0.00000000E+00  0.00000000E+00  0.00000000E+00  0.00000000E+00  0.00000000E+00
  6.89990666E-02  3.16423961E-01  7.44308291E-01  1.00000000E+00  0.00000000E+00
  0.00000000E+00  0.00000000E+00  0.00000000E+00  0.00000000E+00  0.00000000E+00
  0.00000000E+00  6.89990666E-02  3.16423961E-01  7.44308291E-01  1.00000000E+00
  0.00000000E+00  0.00000000E+00  0.00000000E+00  0.00000000E+00  0.00000000E+00
  0.00000000E+00  0.00000000E+00  6.89990666E-02  3.16423961E-01  7.44308291E-01
  1.00000000E+00  0.00000000E+00  0.00000000E+00  0.00000000E+00  0.00000000E+00
  0.00000000E+00  0.00000000E+00  0.00000000E+00  6.89990666E-02  3.16423961E-01
  7.44308291E-01  1.00000000E+00  0.00000000E+00  0.00000000E+00  0.00000000E+00
  0.00000000E+00  0.00000000E+00  0.00000000E+00  0.00000000E+00  0.00000000E+00
  0.00000000E+00  0.00000000E+00  0.00000000E+00  0.00000000E+00  0.00000000E+00
  0.00000000E+00  0.00000000E+00  0.00000000E+00  0.00000000E+00  0.00000000E+00
  0.00000000E+00  0.00000000E+00  0.00000000E+00  0.00000000E+00  0.00000000E+00
  0.00000000E+00  0.00000000E+00  0.00000000E+00  0.00000000E+00  0.00000000E+00
  0.00000000E+00  0.00000000E+00  0.00000000E+00  0.00000000E+00  0.00000000E+00
  0.00000000E+00  0.00000000E+00  0.00000000E+00  0.00000000E+00  0.00000000E+00
  0.00000000E+00  0.00000000E+00  0.00000000E+00  0.00000000E+00  0.00000000E+00
  0.00000000E+00  0.00000000E+00
Coordinates of each shell                  R   N=         162
 -2.96830644E+00 -2.85789234E+00 -4.40852619E-01 -2.96830644E+00 -2.85789234E+00
 -4.40852619E-01 -2.96830644E+00 -2.85789234E+00 -4.40852619E-01 -2.96830644E+00
 -2.85789234E+00 -4.40852619E-01  2.61237712E-01  3.03783159E+00 -5.78190810E-01
  2.61237712E-01  3.03783159E+00 -5.78190810E-01  2.61237712E-01  3.03783159E+00
 -5.78190810E-01  2.61237712E-01  3.03783159E+00 -5.78190810E-01  1.32265905E+00
 -9.25303567E-01  8.01169181E-01  1.32265905E+00 -9.25303567E-01  8.01169181E-01
  1.32265905E+00 -9.25303567E-01  8.01169181E-01  1.32265905E+00 -9.25303567E-01
  8.01169181E-01 -2.92085117E+00 -1.76385866E-01 -8.24251114E-01 -2.92085117E+00
 -1.76385866E-01 -8.24251114E-01 -2.92085117E+00 -1.76385866E-01 -8.24251114E-01
 -2.92085117E+00 -1.76385866E-01 -8.24251114E-01  3.92754006E+00 -2.64319154E-01
  1.37412206E+00  3.92754006E+00 -2.64319154E-01  1.37412206E+00  3.92754006E+00
 -2.64319154E-01  1.37412206E+00  3.92754006E+00 -2.64319154E-01  1.37412206E+00
 -2.77840231E-01  7.93240618E-01 -2.11962870E-01 -2.77840231E-01  7.93240618E-01
 -2.11962870E-01 -2.77840231E-01  7.93240618E-01 -2.11962870E-01 -2.77840231E-01
  7.93240618E-01 -2.11962870E-01 -4.85289382E+00  1.18321276E+00  8.13828296E-01
 -4.85289382E+00  1.18321276E+00  8.13828296E-01 -4.85289382E+00  1.18321276E+00
  8.13828296E-01 -4.85289382E+00  1.18321276E+00  8.13828296E-01  5.61769305E+00
 -3.18100997E-01 -9.58290369E-01  5.61769305E+00 -3.18100997E-01 -9.58290369E-01
  5.61769305E+00 -3.18100997E-01 -9.58290369E-01  5.61769305E+00 -3.18100997E-01
 -9.58290369E-01 -3.25363888E+00  2.68892977E-01 -2.82566145E+00 -3.25363888E+00
  2.68892977E-01 -2.82566145E+00  3.91093428E+00  1.63058688E+00  2.19452045E+00
  3.91093428E+00  1.63058688E+00  2.19452045E+00  4.60554884E+00 -1.58117329E+00
  2.81656653E+00  4.60554884E+00 -1.58117329E+00  2.81656653E+00  7.27236779E-01
 -2.74264348E+00  8.68872204E-01  7.27236779E-01 -2.74264348E+00  8.68872204E-01
 -4.52478902E+00  7.13293348E-01  2.79866654E+00 -4.52478902E+00  7.13293348E-01
  2.79866654E+00 -6.77826066E+00  6.19250675E-01  3.04047981E-01 -6.77826066E+00
  6.19250675E-01  3.04047981E-01 -4.66808877E+00  3.22213158E+00  5.59856332E-01
 -4.66808877E+00  3.22213158E+00  5.59856332E-01  5.62917521E+00 -2.19908870E+00
 -1.81343275E+00  5.62917521E+00 -2.19908870E+00 -1.81343275E+00  4.92078555E+00
  1.04047672E+00 -2.34600101E+00  4.92078555E+00  1.04047672E+00 -2.34600101E+00
  7.56124040E+00  1.85897379E-01 -4.61983626E-01  7.56124040E+00  1.85897379E-01
 -4.61983626E-01 -4.69409452E+00 -3.42589738E+00 -7.11964050E-01 -4.69409452E+00
 -3.42589738E+00 -7.11964050E-01
Constraint Structure                       R   N=          57
 -2.96830644E+00 -2.85789234E+00 -4.40852619E-01  2.61237712E-01  3.03783159E+00
 -5.78190810E-01  1.32265905E+00 -9.25303567E-01  8.01169181E-01 -2.92085117E+00
 -1.76385866E-01 -8.24251114E-01  3.92754006E+00 -2.64319154E-01  1.37412206E+00
 -2.77840231E-01  7.93240618E-01 -2.11962870E-01 -4.85289382E+00  1.18321276E+00
  8.13828296E-01  5.61769305E+00 -3.18100997E-01 -9.58290369E-01 -3.25363888E+00
  2.68892977E-01 -2.82566145E+00  3.91093428E+00  1.63058688E+00  2.19452045E+00
  4.60554884E+00 -1.58117329E+00  2.81656653E+00  7.27236779E-01 -2.74264348E+00
  8.68872204E-01 -4.52478902E+00  7.13293348E-01  2.79866654E+00 -6.77826066E+00
  6.19250675E-01  3.04047981E-01 -4.66808877E+00  3.22213158E+00  5.59856332E-01
  5.62917521E+00 -2.19908870E+00 -1.81343275E+00  4.92078555E+00  1.04047672E+00
 -2.34600101E+00  7.56124040E+00  1.85897379E-01 -4.61983626E-01 -4.69409452E+00
 -3.42589738E+00 -7.11964050E-01
Num ILSW                                   I              100
ILSW                                       I   N=         100
           0           1           0           0           2           0
           0           0           0           0           0          -1
           0           0           0           0           0           0
           0           0           0           0           1           0
           1           0           0           0           0           0
           0           0      100000           0          -1           0
           0           0           0           0           0           0
           0           0           0           1           1           0
           0           0           1           0           0           0
           0           0           4          40           0           0
           0           0           0           0           0           0
           0           0           0           0           0           0
           0           0           0           0           0           0
           0           0           0           0           0           0
           0           0           0           0           0           0
           0           0           0           0           0           0
           0           0           0           0
Num RLSW                                   I               40
RLSW                                       R   N=          40
  1.00000000E+00  1.00000000E+00  1.00000000E+00  1.00000000E+00  1.00000000E+00
  0.00000000E+00  0.00000000E+00  1.00000000E+00  0.00000000E+00  0.00000000E+00
  0.00000000E+00  0.00000000E+00  1.00000000E+00  0.00000000E+00  0.00000000E+00
  0.00000000E+00  0.00000000E+00  1.00000000E+00  0.00000000E+00  0.00000000E+00
  0.00000000E+00  0.00000000E+00  1.00000000E+00  0.00000000E+00  0.00000000E+00
  0.00000000E+00  0.00000000E+00  1.00000000E+00  0.00000000E+00  0.00000000E+00
  0.00000000E+00  0.00000000E+00  0.00000000E+00  0.00000000E+00  0.00000000E+00
  0.00000000E+00  0.00000000E+00  0.00000000E+00  1.00000000E+00  1.00000000E+00
MxBond                                     I                4
NBond                                      I   N=          19
           2           1           3           4           4           3
           4           4           1           1           1           1
           1           1           1           1           1           1
           1
IBond                                      I   N=          76
           4          19           0           0           6           0
           0           0           5           6          12           0
           1           6           7           9           3           8
          10          11           2           3           4           0
           4          13          14          15           5          16
          17          18           4           0           0           0
           5           0           0           0           5           0
           0           0           3           0           0           0
           7           0           0           0           7           0
           0           0           7           0           0           0
           8           0           0           0           8           0
           0           0           8           0           0           0
           1           0           0           0
RBond                                      R   N=          76
  1.00000000E+00  1.00000000E+00  0.00000000E+00  0.00000000E+00  2.00000000E+00
  0.00000000E+00  0.00000000E+00  0.00000000E+00  1.00000000E+00  1.00000000E+00
  1.00000000E+00  0.00000000E+00  1.00000000E+00  1.00000000E+00  1.00000000E+00
  1.00000000E+00  1.00000000E+00  1.00000000E+00  1.00000000E+00  1.00000000E+00
  2.00000000E+00  1.00000000E+00  1.00000000E+00  0.00000000E+00  1.00000000E+00
  1.00000000E+00  1.00000000E+00  1.00000000E+00  1.00000000E+00  1.00000000E+00
  1.00000000E+00  1.00000000E+00  1.00000000E+00  0.00000000E+00  0.00000000E+00
  0.00000000E+00  1.00000000E+00  0.00000000E+00  0.00000000E+00  0.00000000E+00
  1.00000000E+00  0.00000000E+00  0.00000000E+00  0.00000000E+00  1.00000000E+00
  0.00000000E+00  0.00000000E+00  0.00000000E+00  1.00000000E+00  0.00000000E+00
  0.00000000E+00  0.00000000E+00  1.00000000E+00  0.00000000E+00  0.00000000E+00
  0.00000000E+00  1.00000000E+00  0.00000000E+00  0.00000000E+00  0.00000000E+00
  1.00000000E+00  0.00000000E+00  0.00000000E+00  0.00000000E+00  1.00000000E+00
  0.00000000E+00  0.00000000E+00  0.00000000E+00  1.00000000E+00  0.00000000E+00
  0.00000000E+00  0.00000000E+00  1.00000000E+00  0.00000000E+00  0.00000000E+00
  0.00000000E+00
Virial Ratio                               R      2.002441048472664E+00
SCF Energy                                 R     -3.999281446516108E+02
MP2 Energy                                 R     -4.010970751831054E+02
Total Energy                               R     -4.010970751831054E+02
Post-SCF wavefunction norm                 R      1.650738690342994E+00
RMS Force                                  R      5.045419650171360E-07
RMS Density                                R      9.991884157454082E-10
External E-field                           R   N=          35
  0.00000000E+00  0.00000000E+00  0.00000000E+00  0.00000000E+00  0.00000000E+00
  0.00000000E+00  0.00000000E+00  0.00000000E+00  0.00000000E+00  0.00000000E+00
  0.00000000E+00  0.00000000E+00  0.00000000E+00  0.00000000E+00  0.00000000E+00
  0.00000000E+00  0.00000000E+00  0.00000000E+00  0.00000000E+00  0.00000000E+00
  0.00000000E+00  0.00000000E+00  0.00000000E+00  0.00000000E+00  0.00000000E+00
  0.00000000E+00  0.00000000E+00  0.00000000E+00  0.00000000E+00  0.00000000E+00
  0.00000000E+00  0.00000000E+00  0.00000000E+00  0.00000000E+00  0.00000000E+00
IOpCl                                      I                0
IROHF                                      I                0
Alpha Orbital Energies                     R   N=         142
 -2.05846712E+01 -2.05142591E+01 -1.55792465E+01 -1.13440341E+01 -1.12997461E+01
 -1.12586223E+01 -1.12294015E+01 -1.12109088E+01 -1.38423546E+00 -1.35516461E+00
 -1.22079044E+00 -1.04373730E+00 -1.00812671E+00 -9.00223042E-01 -8.41091980E-01
 -7.71992315E-01 -7.14830140E-01 -6.92909077E-01 -6.39331113E-01 -6.29688372E-01
 -6.07070692E-01 -5.83933321E-01 -5.79608087E-01 -5.56556106E-01 -5.37554916E-01
 -5.21776478E-01 -5.16534376E-01 -5.04612138E-01 -4.87968742E-01 -4.56371844E-01
 -4.08301204E-01 -3.76771454E-01  1.91126108E-01  2.10390139E-01  2.47919860E-01
  2.80171909E-01  2.85220614E-01  2.96467067E-01  3.07682337E-01  3.10548385E-01
  3.24288150E-01  3.27804264E-01  3.32271583E-01  3.43775628E-01  3.84161460E-01
  4.10896768E-01  4.16692705E-01  4.24272106E-01  4.79337382E-01  5.37338558E-01
  6.31331400E-01  7.26252336E-01  7.31438472E-01  7.33510610E-01  7.54835773E-01
  7.71096555E-01  7.78348564E-01  8.18583326E-01  8.32354182E-01  8.67814088E-01
  8.94564710E-01  9.26411058E-01  9.39572591E-01  9.68846835E-01  9.83767887E-01
  1.02678853E+00  1.05216979E+00  1.08268444E+00  1.10234175E+00  1.10916312E+00
  1.12290839E+00  1.14977737E+00  1.15217496E+00  1.16869620E+00  1.18110799E+00
  1.19304447E+00  1.19433014E+00  1.21065137E+00  1.22845512E+00  1.24395475E+00
  1.25377853E+00  1.28918842E+00  1.29825979E+00  1.33775109E+00  1.39466833E+00
  1.42583760E+00  1.43501079E+00  1.51242413E+00  1.59061856E+00  1.59956794E+00
  1.67403228E+00  1.71030356E+00  1.72370136E+00  1.78504395E+00  1.80982099E+00
  1.83638327E+00  1.92294985E+00  1.99512541E+00  2.02062398E+00  2.06626144E+00
  2.09344586E+00  2.11707540E+00  2.12764411E+00  2.15092967E+00  2.18191320E+00
  2.23171494E+00  2.24513371E+00  2.29613255E+00  2.30830497E+00  2.32420782E+00
  2.34818648E+00  2.39840955E+00  2.42935027E+00  2.46049321E+00  2.51729918E+00
  2.54685159E+00  2.58878015E+00  2.59979363E+00  2.63597929E+00  2.67598090E+00
  2.70289119E+00  2.73324266E+00  2.78212840E+00  2.82183721E+00  2.87099172E+00
  2.88666262E+00  2.97451828E+00  3.01198257E+00  3.05390018E+00  3.10583564E+00
  3.15356825E+00  3.29539755E+00  3.40095715E+00  3.53624291E+00  4.26099473E+00
  4.42881368E+00  4.57126658E+00  4.60410293E+00  4.64231476E+00  4.80563511E+00
  4.87465846E+00  5.07642612E+00
Alpha MO coefficients                      R   N=       20164
  9.94636991E-01  2.11422435E-02 -1.03106101E-03  6.59203649E-04 -3.12901549E-04
  4.01999275E-03  6.83826050E-04 -3.59095001E-04  1.98063891E-04 -4.13336168E-03
 -4.25556139E-03 -3.92713003E-03 -5.98571875E-05 -3.99977713E-05  4.40788317E-05
  3.27981529E-05  7.95613256E-05 -1.30176966E-06 -9.19618376E-06  2.06259006E-06
 -5.00503059E-04  3.54707709E-05  1.36475250E-04 -1.95260078E-05  4.77426750E-05
  4.08980033E-05  4.62933282E-05 -1.20134737E-05  5.36836817E-06 -4.49359613E-06
 -1.00338815E-05 -1.30746552E-05 -3.76592569E-05  2.03334270E-05 -1.69361310E-05
  3.82911230E-04  2.31702399E-04 -2.86663224E-04  1.35143659E-04 -4.11353920E-05
 -2.99586140E-05 -2.17131700E-05  1.45932822E-05 -1.90056871E-05  1.43574173E-05
 -3.04917700E-05  1.63228262E-04  7.81301471E-06 -3.34308603E-04  4.56398386E-05
  3.18155410E-04 -3.61735216E-04 -2.63811273E-05  6.10227246E-05 -6.00456400E-05
  8.42531412E-05 -6.91687484E-05  1.37162354E-05 -1.78299380E-05 -1.88651262E-05
  3.91692762E-06  2.60884505E-05  1.99573043E-05  1.90950707E-05  5.90686423E-06
 -2.76735353E-04  7.88956974E-05  5.25184595E-05 -1.38230213E-05  8.92755015E-07
 -4.74035458E-06  3.81923067E-06 -1.66273629E-05  2.81401566E-06 -1.45261198E-06
  5.39899011E-06  4.41720769E-05  3.10442415E-05 -2.01077007E-05  1.45396748E-05
  5.24635418E-04  7.70127371E-05  2.68787493E-04 -5.29961353E-05 -5.75534264E-06
 -1.28836938E-06  1.52496568E-06 -3.72401164E-05  1.13365197E-05 -1.55137971E-05
  3.94151076E-06  6.04538448E-05 -9.19680279E-06  4.44875162E-05  1.06375118E-05
 -2.98765721E-04 -9.07792744E-05  6.00840717E-05  1.25106497E-04 -7.09022577E-06
 -4.61999732E-05 -1.58820269E-05  2.16437378E-05  3.66987247E-06 -2.00224810E-05
  1.34346288E-06  1.88420643E-06 -4.60038436E-06 -1.62404080E-06  3.55202922E-06
  2.72442264E-06 -3.29886333E-06  8.90348016E-06  5.68459005E-06  2.76526304E-06
  4.88019411E-06  4.90420952E-06 -2.84121684E-07 -2.20817238E-06 -8.28059780E-07
 -3.10219145E-05 -8.03834572E-05  1.26968208E-05  1.52243581E-05  4.17795277E-06
  6.62632999E-05 -4.28795735E-07 -5.16287607E-04  1.89464296E-05 -5.26852212E-05
  3.19072828E-06  9.66954511E-06  1.91921248E-05  2.31020545E-05 -7.32107553E-06
  3.06878932E-05  4.03213181E-06 -1.75588301E-05  1.13283639E-06 -8.76340464E-06
  4.61091592E-04 -2.22241513E-04 -1.29036640E-05  2.35465022E-05  6.24407665E-06
  3.35196222E-06  1.38520356E-06 -1.15360132E-04 -4.47276706E-05 -4.61834137E-05