opt=Tight                                                               
Freq      RMP2-FC                                                     6-31G(d)            
Number of atoms                            I               17
Info1-9                                    I   N=           9
          26          26        1002           0           0         100
           6           2           1
Charge                                     I               -4
Multiplicity                               I                1
Number of electrons                        I              138
Number of alpha electrons                  I               69
Number of beta electrons                   I               69
Number of basis functions                  I              228
Number of independent functions            I              228
Number of point charges in /Mol/           I                0
Number of translation vectors              I                0
Atomic numbers                             I   N=          17
          15          15          15           8           8           8
           8           8           8           8           8           8
           8           6           1           1           1
Nuclear charges                            R   N=          17
  1.50000000E+01  1.50000000E+01  1.50000000E+01  8.00000000E+00  8.00000000E+00
  8.00000000E+00  8.00000000E+00  8.00000000E+00  8.00000000E+00  8.00000000E+00
  8.00000000E+00  8.00000000E+00  8.00000000E+00  6.00000000E+00  1.00000000E+00
  1.00000000E+00  1.00000000E+00
Current cartesian coordinates              R   N=          51
 -4.76257095E+00 -4.62873298E-01  7.01507915E-01  6.73719492E-01 -1.12636748E+00
 -6.78239717E-01  5.99991260E+00  7.33572788E-01  2.93835406E-01 -5.27760447E+00
  2.51551083E+00 -2.17416771E-01 -1.73282973E+00 -1.57998112E-01  1.21373330E+00
 -6.01995881E+00 -8.70353055E-01  3.24055906E+00 -5.38712732E+00 -2.21001393E+00
 -1.47135588E+00  2.81543494E+00  1.59050690E-01  1.08150727E+00  4.01984433E-01
  1.60528456E-01 -3.22176007E+00  7.61021060E-01 -3.98650200E+00 -5.43162093E-01
  6.67600747E+00 -1.29269362E+00 -1.66964296E+00  5.97979457E+00  3.45559667E+00
 -7.07301815E-01  7.24501346E+00  3.96719656E-01  2.89339748E+00 -7.82323186E+00
  3.00269546E+00 -9.92557864E-01 -8.36997877E+00  1.75921598E+00 -2.55040273E+00
 -9.14368934E+00  2.73463214E+00  5.78227851E-01 -7.90675209E+00  4.96626642E+00
 -1.61744683E+00
Force Field                                I                0
Int Atom Types                             I   N=          17
           0           0           0           0           0           0
           0           0           0           0           0           0
           0           0           0           0           0
MM charges                                 R   N=          17
  0.00000000E+00  0.00000000E+00  0.00000000E+00  0.00000000E+00  0.00000000E+00
  0.00000000E+00  0.00000000E+00  0.00000000E+00  0.00000000E+00  0.00000000E+00
  0.00000000E+00  0.00000000E+00  0.00000000E+00  0.00000000E+00  0.00000000E+00
  0.00000000E+00  0.00000000E+00
Integer atomic weights                     I   N=          17
          31          31          31          16          16          16
          16          16          16          16          16          16
          16          12           1           1           1
Real atomic weights                        R   N=          17
  3.09737634E+01  3.09737634E+01  3.09737634E+01  1.59949146E+01  1.59949146E+01
  1.59949146E+01  1.59949146E+01  1.59949146E+01  1.59949146E+01  1.59949146E+01
  1.59949146E+01  1.59949146E+01  1.59949146E+01  1.20000000E+01  1.00782504E+00
  1.00782504E+00  1.00782504E+00
Atom fragment info                         I   N=          17
           0           0           0           0           0           0
           0           0           0           0           0           0
           0           0           0           0           0
Atom residue num                           I   N=          17
           0           0           0           0           0           0
           0           0           0           0           0           0
           0           0           0           0           0
Nuclear spins                              I   N=          17
           1           1           1           0           0           0
           0           0           0           0           0           0
           0           0           1           1           1
Nuclear ZEff                               R   N=          17
 -1.29400000E+01 -1.29400000E+01 -1.29400000E+01 -5.60000000E+00 -5.60000000E+00
 -5.60000000E+00 -5.60000000E+00 -5.60000000E+00 -5.60000000E+00 -5.60000000E+00
 -5.60000000E+00 -5.60000000E+00 -5.60000000E+00 -3.60000000E+00 -1.00000000E+00
 -1.00000000E+00 -1.00000000E+00
Nuclear QMom                               R   N=          17
  0.00000000E+00  0.00000000E+00  0.00000000E+00  0.00000000E+00  0.00000000E+00
  0.00000000E+00  0.00000000E+00  0.00000000E+00  0.00000000E+00  0.00000000E+00
  0.00000000E+00  0.00000000E+00  0.00000000E+00  0.00000000E+00  0.00000000E+00
  0.00000000E+00  0.00000000E+00
Nuclear GFac                               R   N=          17
  1.13160000E+00  1.13160000E+00  1.13160000E+00  0.00000000E+00  0.00000000E+00
  0.00000000E+00  0.00000000E+00  0.00000000E+00  0.00000000E+00  0.00000000E+00
  0.00000000E+00  0.00000000E+00  0.00000000E+00  0.00000000E+00  2.79284600E+00
  2.79284600E+00  2.79284600E+00
MicOpt                                     I   N=          17
          -1          -1          -1          -1          -1          -1
          -1          -1          -1          -1          -1          -1
          -1          -1          -1          -1          -1
Number of contracted shells                I               65
Number of primitive shells                 I              184
Pure/Cartesian d shells                    I                1
Pure/Cartesian f shells                    I                0
Highest angular momentum                   I                2
Largest degree of contraction              I                6
Shell types                                I   N=          65
           0          -1          -1          -1           2           0
          -1          -1          -1           2           0          -1
          -1          -1           2           0          -1          -1
           2           0          -1          -1           2           0
          -1          -1           2           0          -1          -1
           2           0          -1          -1           2           0
          -1          -1           2           0          -1          -1
           2           0          -1          -1           2           0
          -1          -1           2           0          -1          -1
           2           0          -1          -1           2           0
           0           0           0           0           0
Number of primitives per shell             I   N=          65
           6           6           3           1           1           6
           6           3           1           1           6           6
           3           1           1           6           3           1
           1           6           3           1           1           6
           3           1           1           6           3           1
           1           6           3           1           1           6
           3           1           1           6           3           1
           1           6           3           1           1           6
           3           1           1           6           3           1
           1           6           3           1           1           3
           1           3           1           3           1
Shell to atom map                          I   N=          65
           1           1           1           1           1           2
           2           2           2           2           3           3
           3           3           3           4           4           4
           4           5           5           5           5           6
           6           6           6           7           7           7
           7           8           8           8           8           9
           9           9           9          10          10          10
          10          11          11          11          11          12
          12          12          12          13          13          13
          13          14          14          14          14          15
          15          16          16          17          17
Primitive exponents                        R   N=         184
  1.94133000E+04  2.90942000E+03  6.61364000E+02  1.85759000E+02  5.91943000E+01
  2.00310000E+01  3.39478000E+02  8.10101000E+01  2.58780000E+01  9.45221000E+00
  3.66566000E+00  1.46746000E+00  2.15623000E+00  7.48997000E-01  2.83145000E-01
  9.98317000E-02  5.50000000E-01  1.94133000E+04  2.90942000E+03  6.61364000E+02
  1.85759000E+02  5.91943000E+01  2.00310000E+01  3.39478000E+02  8.10101000E+01
  2.58780000E+01  9.45221000E+00  3.66566000E+00  1.46746000E+00  2.15623000E+00
  7.48997000E-01  2.83145000E-01  9.98317000E-02  5.50000000E-01  1.94133000E+04
  2.90942000E+03  6.61364000E+02  1.85759000E+02  5.91943000E+01  2.00310000E+01
  3.39478000E+02  8.10101000E+01  2.58780000E+01  9.45221000E+00  3.66566000E+00
  1.46746000E+00  2.15623000E+00  7.48997000E-01  2.83145000E-01  9.98317000E-02
  5.50000000E-01  5.48467166E+03  8.25234946E+02  1.88046958E+02  5.29645000E+01
  1.68975704E+01  5.79963534E+00  1.55396162E+01  3.59993359E+00  1.01376175E+00
  2.70005823E-01  8.00000000E-01  5.48467166E+03  8.25234946E+02  1.88046958E+02
  5.29645000E+01  1.68975704E+01  5.79963534E+00  1.55396162E+01  3.59993359E+00
  1.01376175E+00  2.70005823E-01  8.00000000E-01  5.48467166E+03  8.25234946E+02
  1.88046958E+02  5.29645000E+01  1.68975704E+01  5.79963534E+00  1.55396162E+01
  3.59993359E+00  1.01376175E+00  2.70005823E-01  8.00000000E-01  5.48467166E+03
  8.25234946E+02  1.88046958E+02  5.29645000E+01  1.68975704E+01  5.79963534E+00
  1.55396162E+01  3.59993359E+00  1.01376175E+00  2.70005823E-01  8.00000000E-01
  5.48467166E+03  8.25234946E+02  1.88046958E+02  5.29645000E+01  1.68975704E+01
  5.79963534E+00  1.55396162E+01  3.59993359E+00  1.01376175E+00  2.70005823E-01
  8.00000000E-01  5.48467166E+03  8.25234946E+02  1.88046958E+02  5.29645000E+01
  1.68975704E+01  5.79963534E+00  1.55396162E+01  3.59993359E+00  1.01376175E+00
  2.70005823E-01  8.00000000E-01  5.48467166E+03  8.25234946E+02  1.88046958E+02
  5.29645000E+01  1.68975704E+01  5.79963534E+00  1.55396162E+01  3.59993359E+00
  1.01376175E+00  2.70005823E-01  8.00000000E-01  5.48467166E+03  8.25234946E+02
  1.88046958E+02  5.29645000E+01  1.68975704E+01  5.79963534E+00  1.55396162E+01
  3.59993359E+00  1.01376175E+00  2.70005823E-01  8.00000000E-01  5.48467166E+03
  8.25234946E+02  1.88046958E+02  5.29645000E+01  1.68975704E+01  5.79963534E+00
  1.55396162E+01  3.59993359E+00  1.01376175E+00  2.70005823E-01  8.00000000E-01
  5.48467166E+03  8.25234946E+02  1.88046958E+02  5.29645000E+01  1.68975704E+01
  5.79963534E+00  1.55396162E+01  3.59993359E+00  1.01376175E+00  2.70005823E-01
  8.00000000E-01  3.04752488E+03  4.57369518E+02  1.03948685E+02  2.92101553E+01
  9.28666296E+00  3.16392696E+00  7.86827235E+00  1.88128854E+00  5.44249258E-01
  1.68714478E-01  8.00000000E-01  1.87311370E+01  2.82539436E+00  6.40121692E-01
  1.61277759E-01  1.87311370E+01  2.82539436E+00  6.40121692E-01  1.61277759E-01
  1.87311370E+01  2.82539436E+00  6.40121692E-01  1.61277759E-01
Contraction coefficients                   R   N=         184
  1.85159892E-03  1.42061917E-02  6.99994593E-02  2.40078860E-01  4.84761718E-01
  3.35199805E-01 -2.78217010E-03 -3.60499014E-02 -1.16631004E-01  9.68328036E-02
  6.14418023E-01  4.03798015E-01 -2.52924114E-01  3.28518447E-02  1.08125476E+00
  1.00000000E+00  1.00000000E+00  1.85159892E-03  1.42061917E-02  6.99994593E-02
  2.40078860E-01  4.84761718E-01  3.35199805E-01 -2.78217010E-03 -3.60499014E-02
 -1.16631004E-01  9.68328036E-02  6.14418023E-01  4.03798015E-01 -2.52924114E-01
  3.28518447E-02  1.08125476E+00  1.00000000E+00  1.00000000E+00  1.85159892E-03
  1.42061917E-02  6.99994593E-02  2.40078860E-01  4.84761718E-01  3.35199805E-01
 -2.78217010E-03 -3.60499014E-02 -1.16631004E-01  9.68328036E-02  6.14418023E-01
  4.03798015E-01 -2.52924114E-01  3.28518447E-02  1.08125476E+00  1.00000000E+00
  1.00000000E+00  1.83107443E-03  1.39501722E-02  6.84450781E-02  2.32714336E-01
  4.70192898E-01  3.58520853E-01 -1.10777550E-01 -1.48026263E-01  1.13076702E+00
  1.00000000E+00  1.00000000E+00  1.83107443E-03  1.39501722E-02  6.84450781E-02
  2.32714336E-01  4.70192898E-01  3.58520853E-01 -1.10777550E-01 -1.48026263E-01
  1.13076702E+00  1.00000000E+00  1.00000000E+00  1.83107443E-03  1.39501722E-02
  6.84450781E-02  2.32714336E-01  4.70192898E-01  3.58520853E-01 -1.10777550E-01
 -1.48026263E-01  1.13076702E+00  1.00000000E+00  1.00000000E+00  1.83107443E-03
  1.39501722E-02  6.84450781E-02  2.32714336E-01  4.70192898E-01  3.58520853E-01
 -1.10777550E-01 -1.48026263E-01  1.13076702E+00  1.00000000E+00  1.00000000E+00
  1.83107443E-03  1.39501722E-02  6.84450781E-02  2.32714336E-01  4.70192898E-01
  3.58520853E-01 -1.10777550E-01 -1.48026263E-01  1.13076702E+00  1.00000000E+00
  1.00000000E+00  1.83107443E-03  1.39501722E-02  6.84450781E-02  2.32714336E-01
  4.70192898E-01  3.58520853E-01 -1.10777550E-01 -1.48026263E-01  1.13076702E+00
  1.00000000E+00  1.00000000E+00  1.83107443E-03  1.39501722E-02  6.84450781E-02
  2.32714336E-01  4.70192898E-01  3.58520853E-01 -1.10777550E-01 -1.48026263E-01
  1.13076702E+00  1.00000000E+00  1.00000000E+00  1.83107443E-03  1.39501722E-02
  6.84450781E-02  2.32714336E-01  4.70192898E-01  3.58520853E-01 -1.10777550E-01
 -1.48026263E-01  1.13076702E+00  1.00000000E+00  1.00000000E+00  1.83107443E-03
  1.39501722E-02  6.84450781E-02  2.32714336E-01  4.70192898E-01  3.58520853E-01
 -1.10777550E-01 -1.48026263E-01  1.13076702E+00  1.00000000E+00  1.00000000E+00
  1.83107443E-03  1.39501722E-02  6.84450781E-02  2.32714336E-01  4.70192898E-01
  3.58520853E-01 -1.10777550E-01 -1.48026263E-01  1.13076702E+00  1.00000000E+00
  1.00000000E+00  1.83473713E-03  1.40373228E-02  6.88426223E-02  2.32184443E-01
  4.67941348E-01  3.62311985E-01 -1.19332420E-01 -1.60854152E-01  1.14345644E+00
  1.00000000E+00  1.00000000E+00  3.34946043E-02  2.34726953E-01  8.13757326E-01
  1.00000000E+00  3.34946043E-02  2.34726953E-01  8.13757326E-01  1.00000000E+00
  3.34946043E-02  2.34726953E-01  8.13757326E-01  1.00000000E+00
P(S=P) Contraction coefficients            R   N=         184
  0.00000000E+00  0.00000000E+00  0.00000000E+00  0.00000000E+00  0.00000000E+00
  0.00000000E+00  4.56461619E-03  3.36935719E-02  1.39754883E-01  3.39361717E-01
  4.50920624E-01  2.38585801E-01 -1.77653127E-02  2.74058196E-01  7.85421563E-01
  1.00000000E+00  0.00000000E+00  0.00000000E+00  0.00000000E+00  0.00000000E+00
  0.00000000E+00  0.00000000E+00  0.00000000E+00  4.56461619E-03  3.36935719E-02
  1.39754883E-01  3.39361717E-01  4.50920624E-01  2.38585801E-01 -1.77653127E-02
  2.74058196E-01  7.85421563E-01  1.00000000E+00  0.00000000E+00  0.00000000E+00
  0.00000000E+00  0.00000000E+00  0.00000000E+00  0.00000000E+00  0.00000000E+00
  4.56461619E-03  3.36935719E-02  1.39754883E-01  3.39361717E-01  4.50920624E-01
  2.38585801E-01 -1.77653127E-02  2.74058196E-01  7.85421563E-01  1.00000000E+00
  0.00000000E+00  0.00000000E+00  0.00000000E+00  0.00000000E+00  0.00000000E+00
  0.00000000E+00  0.00000000E+00  7.08742682E-02  3.39752839E-01  7.27158577E-01
  1.00000000E+00  0.00000000E+00  0.00000000E+00  0.00000000E+00  0.00000000E+00
  0.00000000E+00  0.00000000E+00  0.00000000E+00  7.08742682E-02  3.39752839E-01
  7.27158577E-01  1.00000000E+00  0.00000000E+00  0.00000000E+00  0.00000000E+00
  0.00000000E+00  0.00000000E+00  0.00000000E+00  0.00000000E+00  7.08742682E-02
  3.39752839E-01  7.27158577E-01  1.00000000E+00  0.00000000E+00  0.00000000E+00
  0.00000000E+00  0.00000000E+00  0.00000000E+00  0.00000000E+00  0.00000000E+00
  7.08742682E-02  3.39752839E-01  7.27158577E-01  1.00000000E+00  0.00000000E+00
  0.00000000E+00  0.00000000E+00  0.00000000E+00  0.00000000E+00  0.00000000E+00
  0.00000000E+00  7.08742682E-02  3.39752839E-01  7.27158577E-01  1.00000000E+00
  0.00000000E+00  0.00000000E+00  0.00000000E+00  0.00000000E+00  0.00000000E+00
  0.00000000E+00  0.00000000E+00  7.08742682E-02  3.39752839E-01  7.27158577E-01
  1.00000000E+00  0.00000000E+00  0.00000000E+00  0.00000000E+00  0.00000000E+00
  0.00000000E+00  0.00000000E+00  0.00000000E+00  7.08742682E-02  3.39752839E-01
  7.27158577E-01  1.00000000E+00  0.00000000E+00  0.00000000E+00  0.00000000E+00
  0.00000000E+00  0.00000000E+00  0.00000000E+00  0.00000000E+00  7.08742682E-02
  3.39752839E-01  7.27158577E-01  1.00000000E+00  0.00000000E+00  0.00000000E+00
  0.00000000E+00  0.00000000E+00  0.00000000E+00  0.00000000E+00  0.00000000E+00
  7.08742682E-02  3.39752839E-01  7.27158577E-01  1.00000000E+00  0.00000000E+00
  0.00000000E+00  0.00000000E+00  0.00000000E+00  0.00000000E+00  0.00000000E+00
  0.00000000E+00  7.08742682E-02  3.39752839E-01  7.27158577E-01  1.00000000E+00
  0.00000000E+00  0.00000000E+00  0.00000000E+00  0.00000000E+00  0.00000000E+00
  0.00000000E+00  0.00000000E+00  6.89990666E-02  3.16423961E-01  7.44308291E-01
  1.00000000E+00  0.00000000E+00  0.00000000E+00  0.00000000E+00  0.00000000E+00
  0.00000000E+00  0.00000000E+00  0.00000000E+00  0.00000000E+00  0.00000000E+00
  0.00000000E+00  0.00000000E+00  0.00000000E+00  0.00000000E+00
Coordinates of each shell                  R   N=         195
 -4.76257086E+00 -4.62873759E-01  7.01507576E-01 -4.76257086E+00 -4.62873759E-01
  7.01507576E-01 -4.76257086E+00 -4.62873759E-01  7.01507576E-01 -4.76257086E+00
 -4.62873759E-01  7.01507576E-01 -4.76257086E+00 -4.62873759E-01  7.01507576E-01
  6.73719614E-01 -1.12636769E+00 -6.78240055E-01  6.73719614E-01 -1.12636769E+00
 -6.78240055E-01  6.73719614E-01 -1.12636769E+00 -6.78240055E-01  6.73719614E-01
 -1.12636769E+00 -6.78240055E-01  6.73719614E-01 -1.12636769E+00 -6.78240055E-01
  5.99991263E+00  7.33572826E-01  2.93835068E-01  5.99991263E+00  7.33572826E-01
  2.93835068E-01  5.99991263E+00  7.33572826E-01  2.93835068E-01  5.99991263E+00
  7.33572826E-01  2.93835068E-01  5.99991263E+00  7.33572826E-01  2.93835068E-01
 -5.27760451E+00  2.51551035E+00 -2.17417109E-01 -5.27760451E+00  2.51551035E+00
 -2.17417109E-01 -5.27760451E+00  2.51551035E+00 -2.17417109E-01 -5.27760451E+00
  2.51551035E+00 -2.17417109E-01 -1.73282965E+00 -1.57998432E-01  1.21373296E+00
 -1.73282965E+00 -1.57998432E-01  1.21373296E+00 -1.73282965E+00 -1.57998432E-01
  1.21373296E+00 -1.73282965E+00 -1.57998432E-01  1.21373296E+00 -6.01995870E+00
 -8.70353573E-01  3.24055873E+00 -6.01995870E+00 -8.70353573E-01  3.24055873E+00
 -6.01995870E+00 -8.70353573E-01  3.24055873E+00 -6.01995870E+00 -8.70353573E-01
  3.24055873E+00 -5.38712715E+00 -2.21001441E+00 -1.47135622E+00 -5.38712715E+00
 -2.21001441E+00 -1.47135622E+00 -5.38712715E+00 -2.21001441E+00 -1.47135622E+00
 -5.38712715E+00 -2.21001441E+00 -1.47135622E+00  2.81543500E+00  1.59050580E-01
  1.08150693E+00  2.81543500E+00  1.59050580E-01  1.08150693E+00  2.81543500E+00
  1.59050580E-01  1.08150693E+00  2.81543500E+00  1.59050580E-01  1.08150693E+00
  4.01984496E-01  1.60528234E-01 -3.22176041E+00  4.01984496E-01  1.60528234E-01
 -3.22176041E+00  4.01984496E-01  1.60528234E-01 -3.22176041E+00  4.01984496E-01
  1.60528234E-01 -3.22176041E+00  7.61021315E-01 -3.98650220E+00 -5.43162431E-01
  7.61021315E-01 -3.98650220E+00 -5.43162431E-01  7.61021315E-01 -3.98650220E+00
 -5.43162431E-01  7.61021315E-01 -3.98650220E+00 -5.43162431E-01  6.67600761E+00
 -1.29269355E+00 -1.66964330E+00  6.67600761E+00 -1.29269355E+00 -1.66964330E+00
  6.67600761E+00 -1.29269355E+00 -1.66964330E+00  6.67600761E+00 -1.29269355E+00
 -1.66964330E+00  5.97979448E+00  3.45559671E+00 -7.07302153E-01  5.97979448E+00
  3.45559671E+00 -7.07302153E-01  5.97979448E+00  3.45559671E+00 -7.07302153E-01
  5.97979448E+00  3.45559671E+00 -7.07302153E-01  7.24501351E+00  3.96719751E-01
  2.89339714E+00  7.24501351E+00  3.96719751E-01  2.89339714E+00  7.24501351E+00
  3.96719751E-01  2.89339714E+00  7.24501351E+00  3.96719751E-01  2.89339714E+00
 -7.82323193E+00  3.00269485E+00 -9.92558203E-01 -7.82323193E+00  3.00269485E+00
 -9.92558203E-01 -7.82323193E+00  3.00269485E+00 -9.92558203E-01 -7.82323193E+00
  3.00269485E+00 -9.92558203E-01 -8.36997878E+00  1.75921535E+00 -2.55040307E+00
 -8.36997878E+00  1.75921535E+00 -2.55040307E+00 -9.14368939E+00  2.73463147E+00
  5.78227512E-01 -9.14368939E+00  2.73463147E+00  5.78227512E-01 -7.90675225E+00
  4.96626581E+00 -1.61744717E+00 -7.90675225E+00  4.96626581E+00 -1.61744717E+00
Constraint Structure                       R   N=          51
 -4.76257086E+00 -4.62873759E-01  7.01507576E-01  6.73719614E-01 -1.12636769E+00
 -6.78240055E-01  5.99991263E+00  7.33572826E-01  2.93835068E-01 -5.27760451E+00
  2.51551035E+00 -2.17417109E-01 -1.73282965E+00 -1.57998432E-01  1.21373296E+00
 -6.01995870E+00 -8.70353573E-01  3.24055873E+00 -5.38712715E+00 -2.21001441E+00
 -1.47135622E+00  2.81543500E+00  1.59050580E-01  1.08150693E+00  4.01984496E-01
  1.60528234E-01 -3.22176041E+00  7.61021315E-01 -3.98650220E+00 -5.43162431E-01
  6.67600761E+00 -1.29269355E+00 -1.66964330E+00  5.97979448E+00  3.45559671E+00
 -7.07302153E-01  7.24501351E+00  3.96719751E-01  2.89339714E+00 -7.82323193E+00
  3.00269485E+00 -9.92558203E-01 -8.36997878E+00  1.75921535E+00 -2.55040307E+00
 -9.14368939E+00  2.73463147E+00  5.78227512E-01 -7.90675225E+00  4.96626581E+00
 -1.61744717E+00
Num ILSW                                   I              100
ILSW                                       I   N=         100
           0           1           0           1           2           0
           0           0           0           0           0          -1
           0           0           0           0           0           0
           0           0           0           0           1           0
           1           0           0           0           0           0
           0           0      100000           0          -1           0
           0           0           0           0           0           0
           0           0           0           1           1           0
           0           0           1           0           0           0
           0           0           4          40           0           0
           0           0           0           0           0           0
           0           0           0           0           0           0
           0           0           0           0           0           0
           0           0           0           0           0           0
           0           0           0           0           0           0
           0           0           0           0           0           0
           0           0           0           0
Num RLSW                                   I               40
RLSW                                       R   N=          40
  1.00000000E+00  1.00000000E+00  1.00000000E+00  1.00000000E+00  1.00000000E+00
  0.00000000E+00  0.00000000E+00  1.00000000E+00  0.00000000E+00  0.00000000E+00
  0.00000000E+00  0.00000000E+00  1.00000000E+00  0.00000000E+00  0.00000000E+00
  0.00000000E+00  0.00000000E+00  1.00000000E+00  0.00000000E+00  0.00000000E+00
  0.00000000E+00  0.00000000E+00  1.00000000E+00  0.00000000E+00  0.00000000E+00
  0.00000000E+00  0.00000000E+00  1.00000000E+00  0.00000000E+00  0.00000000E+00
  0.00000000E+00  0.00000000E+00  0.00000000E+00  0.00000000E+00  0.00000000E+00
  0.00000000E+00  0.00000000E+00  0.00000000E+00  1.00000000E+00  1.00000000E+00
MxBond                                     I                4
NBond                                      I   N=          17
           4           4           4           2           2           1
           1           2           1           1           1           1
           1           4           1           1           1
IBond                                      I   N=          68
           4           5           6           7           5           8
           9          10           8          11          12          13
           1          14           0           0           1           2
           0           0           1           0           0           0
           1           0           0           0           2           3
           0           0           2           0           0           0
           2           0           0           0           3           0
           0           0           3           0           0           0
           3           0           0           0           4          15
          16          17          14           0           0           0
          14           0           0           0          14           0
           0           0
RBond                                      R   N=          68
  1.00000000E+00  1.00000000E+00  2.00000000E+00  2.00000000E+00  1.00000000E+00
  1.00000000E+00  2.00000000E+00  2.00000000E+00  1.00000000E+00  1.00000000E+00
  1.00000000E+00  1.00000000E+00  1.00000000E+00  1.00000000E+00  0.00000000E+00
  0.00000000E+00  1.00000000E+00  1.00000000E+00  0.00000000E+00  0.00000000E+00
  2.00000000E+00  0.00000000E+00  0.00000000E+00  0.00000000E+00  2.00000000E+00
  0.00000000E+00  0.00000000E+00  0.00000000E+00  1.00000000E+00  1.00000000E+00
  0.00000000E+00  0.00000000E+00  2.00000000E+00  0.00000000E+00  0.00000000E+00
  0.00000000E+00  2.00000000E+00  0.00000000E+00  0.00000000E+00  0.00000000E+00
  1.00000000E+00  0.00000000E+00  0.00000000E+00  0.00000000E+00  1.00000000E+00
  0.00000000E+00  0.00000000E+00  0.00000000E+00  1.00000000E+00  0.00000000E+00
  0.00000000E+00  0.00000000E+00  1.00000000E+00  1.00000000E+00  1.00000000E+00
  1.00000000E+00  1.00000000E+00  0.00000000E+00  0.00000000E+00  0.00000000E+00
  1.00000000E+00  0.00000000E+00  0.00000000E+00  0.00000000E+00  1.00000000E+00
  0.00000000E+00  0.00000000E+00  0.00000000E+00
Virial Ratio                               R      2.002488385264773E+00
SCF Energy                                 R     -1.811195477813798E+03
MP2 Energy                                 R     -1.813468561229111E+03
Total Energy                               R     -1.813468561229111E+03
Post-SCF wavefunction norm                 R      1.825168946099731E+00
RMS Force                                  R      4.494230754808790E-05
RMS Density                                R      1.801942138087884E-09
External E-field                           R   N=          35
  0.00000000E+00  0.00000000E+00  0.00000000E+00  0.00000000E+00  0.00000000E+00
  0.00000000E+00  0.00000000E+00  0.00000000E+00  0.00000000E+00  0.00000000E+00
  0.00000000E+00  0.00000000E+00  0.00000000E+00  0.00000000E+00  0.00000000E+00
  0.00000000E+00  0.00000000E+00  0.00000000E+00  0.00000000E+00  0.00000000E+00
  0.00000000E+00  0.00000000E+00  0.00000000E+00  0.00000000E+00  0.00000000E+00
  0.00000000E+00  0.00000000E+00  0.00000000E+00  0.00000000E+00  0.00000000E+00
  0.00000000E+00  0.00000000E+00  0.00000000E+00  0.00000000E+00  0.00000000E+00
IOpCl                                      I                0
IROHF                                      I                0
Alpha Orbital Energies                     R   N=         228
 -8.00473300E+01 -8.00414993E+01 -7.99936778E+01 -2.05494685E+01 -2.05412533E+01
 -2.05133588E+01 -2.04703974E+01 -2.04678838E+01 -2.04596486E+01 -2.04576604E+01
 -2.04296870E+01 -2.04274117E+01 -2.04267357E+01 -1.12632988E+01 -7.56636202E+00
 -7.55904051E+00 -7.51203961E+00 -5.46554288E+00 -5.46471411E+00 -5.46367104E+00
 -5.45832241E+00 -5.45747161E+00 -5.45631070E+00 -5.41166876E+00 -5.40961649E+00
 -5.40950632E+00 -1.37257551E+00 -1.33522305E+00 -1.29530485E+00 -1.25695259E+00
 -1.23988578E+00 -1.21994734E+00 -1.21330527E+00 -1.20264785E+00 -1.16668236E+00
 -1.16479716E+00 -9.18024534E-01 -7.84441572E-01 -7.03930067E-01 -6.54446745E-01
 -6.26255356E-01 -6.17859914E-01 -6.06963677E-01 -5.89690191E-01 -5.71940890E-01
 -5.58158451E-01 -5.45038947E-01 -5.28675408E-01 -5.15950891E-01 -5.07198444E-01
 -4.96785853E-01 -4.87506974E-01 -4.81218792E-01 -4.58312926E-01 -4.47130417E-01
 -4.42691788E-01 -4.35387744E-01 -4.22372272E-01 -4.13698772E-01 -4.03493848E-01
 -4.00574604E-01 -3.99866630E-01 -3.97456476E-01 -3.85352029E-01 -3.83352032E-01
 -3.75714308E-01 -3.59784387E-01 -3.53227311E-01 -3.29156352E-01  2.58829389E-01
  2.87051505E-01  3.09642459E-01  3.22975295E-01  3.24251525E-01  3.32908654E-01
  3.46418661E-01  3.57321094E-01  3.78070016E-01  3.89349276E-01  3.99311935E-01
  4.11450744E-01  4.14368181E-01  4.18033208E-01  4.52596797E-01  4.63188714E-01
  5.02751177E-01  5.54834262E-01  5.98031710E-01  6.04279399E-01  6.05971047E-01
  6.20809775E-01  6.50994425E-01  6.76921565E-01  6.81091382E-01  6.98064793E-01
  7.10514060E-01  7.20548237E-01  7.79950724E-01  8.02978030E-01  8.46370921E-01
  9.44718263E-01  9.61096945E-01  9.78461556E-01  1.00138338E+00  1.00425979E+00
  1.01228881E+00  1.07785582E+00  1.09399847E+00  1.09433285E+00  1.11048071E+00
  1.12321583E+00  1.13093256E+00  1.13749680E+00  1.14502290E+00  1.15333002E+00
  1.19925332E+00  1.21620912E+00  1.23325683E+00  1.26061508E+00  1.27623668E+00
  1.29384720E+00  1.30128488E+00  1.31024932E+00  1.33146100E+00  1.34407824E+00
  1.36270011E+00  1.36874770E+00  1.37857452E+00  1.39010229E+00  1.39371970E+00
  1.40930539E+00  1.41408937E+00  1.42248537E+00  1.42516567E+00  1.43245821E+00