
    -----------------------------------------------------------------------
          Psi4: An Open-Source Ab Initio Electronic Structure Package
                               Psi4 1.4a3.dev225 

                         Git: Rev {master} 7105e37 


    D. G. A. Smith, L. A. Burns, A. C. Simmonett, R. M. Parrish,
    M. C. Schieber, R. Galvelis, P. Kraus, H. Kruse, R. Di Remigio,
    A. Alenaizan, A. M. James, S. Lehtola, J. P. Misiewicz, M. Scheurer,
    R. A. Shaw, J. B. Schriber, Y. Xie, Z. L. Glick, D. A. Sirianni,
    J. S. O'Brien, J. M. Waldrop, A. Kumar, E. G. Hohenstein,
    B. P. Pritchard, B. R. Brooks, H. F. Schaefer III, A. Yu. Sokolov,
    K. Patkowski, A. E. DePrince III, U. Bozkaya, R. A. King,
    F. A. Evangelista, J. M. Turney, T. D. Crawford, C. D. Sherrill,
    J. Chem. Phys. 152(18) 184108 (2020). https://doi.org/10.1063/5.0006002

                            Additional Code Authors
    E. T. Seidl, C. L. Janssen, E. F. Valeev, M. L. Leininger,
    J. F. Gonthier, R. M. Richard, H. R. McAlexander, M. Saitow, X. Wang,
    P. Verma, and M. H. Lechner

             Previous Authors, Complete List of Code Contributors,
                       and Citations for Specific Modules
    https://github.com/psi4/psi4/blob/master/codemeta.json
    https://github.com/psi4/psi4/graphs/contributors
    http://psicode.org/psi4manual/master/introduction.html#citing-psifour

    -----------------------------------------------------------------------


    Psi4 started on: Sunday, 28 February 2021 11:34AM

    Process ID: 273195
    Host:       c421-112.stampede2.tacc.utexas.edu
    PSIDATADIR: /home1/07844/xy3866/miniconda3/envs/p4env/share/psi4
    Memory:     500.0 MiB
    Threads:    32
    
  ==> Input File <==

--------------------------------------------------------------------------
#psi4
#
memory 32 gb

molecule  {
0 1
  S        1.2441830     0.0010390    -0.8590750
  F        1.5874080    -1.0933110     1.5061340
  F        3.3145200    -0.0009050     0.7339870
  F        1.5874370     1.0896860     1.5087600
  O        1.5908610    -1.3092419    -1.4133404
  O        1.6149580     1.2891350    -1.4486230
  C       -0.4817510     0.0005820    -0.4824320
  C       -1.1416100    -1.2204050    -0.3274150
  C       -1.1416150     1.2211910    -0.3244870
  C       -3.1954030    -0.0001810     0.1494170
  C        1.9826530    -0.0010090     0.8356960
  C       -2.4997500    -1.2060900    -0.0161970
  C       -2.4997550     1.2061250    -0.0133040
  C       -4.6532730    -0.0006360     0.5253300
  H       -0.6057720    -2.1536140    -0.4772800
  H       -0.6057800     2.1547590    -0.4721140
  H       -3.0298860    -2.1498930     0.0955450
  H       -3.0298940     2.1496560     0.1007020
  H       -5.1606490     0.8856040     0.1349280
  H       -5.1606620    -0.8858980     0.1327310
  H       -4.7748820    -0.0019860     1.6139510
units angstrom
no_reorient  #important for SAPT in psi4, default
symmetry c1  #important for SAPT in psi4, default
}

set PROPERTIES_ORIGIN ["COM"]
properties('MP2/aug-cc-pvtz', properties = ['dipole'])
--------------------------------------------------------------------------

  Memory set to  29.802 GiB by Python driver.
    SCF Algorithm Type (re)set to DF.

*** tstart() called on c421-112.stampede2.tacc.utexas.edu
*** at Sun Feb 28 11:35:03 2021

   => Loading Basis Set <=

    Name: AUG-CC-PVTZ
    Role: ORBITAL
    Keyword: BASIS
    atoms 1     entry S          line   906 file /home1/07844/xy3866/miniconda3/envs/p4env/share/psi4/basis/aug-cc-pvtz.gbs 
    atoms 2-4   entry F          line   377 file /home1/07844/xy3866/miniconda3/envs/p4env/share/psi4/basis/aug-cc-pvtz.gbs 
    atoms 5-6   entry O          line   331 file /home1/07844/xy3866/miniconda3/envs/p4env/share/psi4/basis/aug-cc-pvtz.gbs 
    atoms 7-14  entry C          line   239 file /home1/07844/xy3866/miniconda3/envs/p4env/share/psi4/basis/aug-cc-pvtz.gbs 
    atoms 15-21 entry H          line    40 file /home1/07844/xy3866/miniconda3/envs/p4env/share/psi4/basis/aug-cc-pvtz.gbs 


         ---------------------------------------------------------
                                   SCF
               by Justin Turney, Rob Parrish, Andy Simmonett
                          and Daniel G. A. Smith
                              RHF Reference
                       32 Threads,  30517 MiB Core
         ---------------------------------------------------------

  ==> Geometry <==

    Molecular point group: c1
    Full point group: C1

    Geometry (in Angstrom), charge = 0, multiplicity = 1:

       Center              X                  Y                   Z               Mass       
    ------------   -----------------  -----------------  -----------------  -----------------
         S            1.118141109228     0.002739403837    -0.873699557233    31.972071174400
         F            1.461366109228    -1.091610596163     1.491509442767    18.998403162730
         F            3.188478109228     0.000795403837     0.719362442767    18.998403162730
         F            1.461395109228     1.091386403837     1.494135442767    18.998403162730
         O            1.464819109228    -1.307541496163    -1.427964957233    15.994914619570
         O            1.488916109228     1.290835403837    -1.463247557233    15.994914619570
         C           -0.607792890772     0.002282403837    -0.497056557233    12.000000000000
         C           -1.267651890772    -1.218704596163    -0.342039557233    12.000000000000
         C           -1.267656890772     1.222891403837    -0.339111557233    12.000000000000
         C           -3.321444890772     0.001519403837     0.134792442767    12.000000000000
         C            1.856611109228     0.000691403837     0.821071442767    12.000000000000
         C           -2.625791890772    -1.204389596163    -0.030821557233    12.000000000000
         C           -2.625796890772     1.207825403837    -0.027928557233    12.000000000000
         C           -4.779314890772     0.001064403837     0.510705442767    12.000000000000
         H           -0.731813890772    -2.151913596163    -0.491904557233     1.007825032230
         H           -0.731821890772     2.156459403837    -0.486738557233     1.007825032230
         H           -3.155927890772    -2.148192596163     0.080920442767     1.007825032230
         H           -3.155935890772     2.151356403837     0.086077442767     1.007825032230
         H           -5.286690890772     0.887304403837     0.120303442767     1.007825032230
         H           -5.286703890772    -0.884197596163     0.118106442767     1.007825032230
         H           -4.900923890772    -0.000285596163     1.599326442767     1.007825032230

  Running in c1 symmetry.

  Rotational constants: A =      0.04257  B =      0.01265  C =      0.01250 [cm^-1]
  Rotational constants: A =   1276.34001  B =    379.24733  C =    374.86640 [MHz]
  Nuclear repulsion = 1103.108772331098862

  Charge       = 0
  Multiplicity = 1
  Electrons    = 114
  Nalpha       = 57
  Nbeta        = 57

  ==> Algorithm <==

  SCF Algorithm Type is DF.
  DIIS enabled.
  MOM disabled.
  Fractional occupation disabled.
  Guess Type is SAD.
  Energy threshold   = 1.00e-10
  Density threshold  = 1.00e-10
  Integral threshold = 1.00e-12

  ==> Primary Basis <==

  Basis Set: AUG-CC-PVTZ
    Blend: AUG-CC-PVTZ
    Number of shells: 261
    Number of basis functions: 809
    Number of Cartesian functions: 949
    Spherical Harmonics?: true
    Max angular momentum: 3

   => Loading Basis Set <=

    Name: (AUG-CC-PVTZ AUX)
    Role: JKFIT
    Keyword: DF_BASIS_SCF
    atoms 1     entry S          line   730 file /home1/07844/xy3866/miniconda3/envs/p4env/share/psi4/basis/aug-cc-pvtz-jkfit.gbs 
    atoms 2-4   entry F          line   348 file /home1/07844/xy3866/miniconda3/envs/p4env/share/psi4/basis/aug-cc-pvtz-jkfit.gbs 
    atoms 5-6   entry O          line   286 file /home1/07844/xy3866/miniconda3/envs/p4env/share/psi4/basis/aug-cc-pvtz-jkfit.gbs 
    atoms 7-14  entry C          line   162 file /home1/07844/xy3866/miniconda3/envs/p4env/share/psi4/basis/aug-cc-pvtz-jkfit.gbs 
    atoms 15-21 entry H          line    70 file /home1/07844/xy3866/miniconda3/envs/p4env/share/psi4/basis/aug-cc-pvtz-jkfit.gbs 

  ==> Integral Setup <==

  DFHelper Memory: AOs need 7.762 GiB; user supplied 22.352 GiB. Using in-core AOs.

  ==> MemDFJK: Density-Fitted J/K Matrices <==

    J tasked:                   Yes
    K tasked:                   Yes
    wK tasked:                   No
    OpenMP threads:              32
    Memory [MiB]:             22888
    Algorithm:                 Core
    Schwarz Cutoff:           1E-12
    Mask sparsity (%):      16.0625
    Fitting Condition:        1E-10

   => Auxiliary Basis Set <=

  Basis Set: (AUG-CC-PVTZ AUX)
    Blend: AUG-CC-PVTZ-JKFIT
    Number of shells: 530
    Number of basis functions: 1820
    Number of Cartesian functions: 2268
    Spherical Harmonics?: true
    Max angular momentum: 4

  Minimum eigenvalue in the overlap matrix is 4.7018436065E-07.
  Reciprocal condition number of the overlap matrix is 2.4963927803E-08.
    Using symmetric orthogonalization.

  ==> Pre-Iterations <==

  SCF Guess: Superposition of Atomic Densities via on-the-fly atomic UHF (no occupation information).

   -------------------------
    Irrep   Nso     Nmo    
   -------------------------
     A        809     809 
   -------------------------
    Total     809     809
   -------------------------

  ==> Iterations <==

                           Total Energy        Delta E     RMS |[F,P]|

   @DF-RHF iter SAD: -1152.51358298265154   -1.15251e+03   0.00000e+00 
   @DF-RHF iter   1: -1152.31673379108020    1.96849e-01   1.30874e-03 DIIS
   @DF-RHF iter   2: -1152.58883600542140   -2.72102e-01   1.00280e-03 DIIS
   @DF-RHF iter   3: -1152.82181806222957   -2.32982e-01   1.36244e-04 DIIS
   @DF-RHF iter   4: -1152.82847731284096   -6.65925e-03   5.47966e-05 DIIS
   @DF-RHF iter   5: -1152.82968686861636   -1.20956e-03   1.37809e-05 DIIS
   @DF-RHF iter   6: -1152.82978702629703   -1.00158e-04   5.19906e-06 DIIS
   @DF-RHF iter   7: -1152.82981208921137   -2.50629e-05   2.24525e-06 DIIS
   @DF-RHF iter   8: -1152.82981944968947   -7.36048e-06   1.22267e-06 DIIS
   @DF-RHF iter   9: -1152.82982196685111   -2.51716e-06   5.03839e-07 DIIS
   @DF-RHF iter  10: -1152.82982246024585   -4.93395e-07   1.64051e-07 DIIS
   @DF-RHF iter  11: -1152.82982249450947   -3.42636e-08   6.16300e-08 DIIS
   @DF-RHF iter  12: -1152.82982249780116   -3.29169e-09   2.15259e-08 DIIS
   @DF-RHF iter  13: -1152.82982249815404   -3.52884e-10   7.35701e-09 DIIS
   @DF-RHF iter  14: -1152.82982249818792   -3.38787e-11   3.41240e-09 DIIS
   @DF-RHF iter  15: -1152.82982249819747   -9.54969e-12   1.27600e-09 DIIS
   @DF-RHF iter  16: -1152.82982249819815   -6.82121e-13   4.18248e-10 DIIS
   @DF-RHF iter  17: -1152.82982249819770    4.54747e-13   1.87957e-10 DIIS
   @DF-RHF iter  18: -1152.82982249819770    0.00000e+00   6.30532e-11 DIIS
  Energy and wave function converged.


  ==> Post-Iterations <==

    Orbital Energies [Eh]
    ---------------------

    Doubly Occupied:                                                      

       1A    -92.216649     2A    -26.370574     3A    -26.370492  
       4A    -26.368388     5A    -20.576895     6A    -20.574249  
       7A    -11.549020     8A    -11.291855     9A    -11.286915  
      10A    -11.283846    11A    -11.283599    12A    -11.264443  
      13A    -11.264372    14A    -11.251985    15A     -9.185266  
      16A     -6.870128    17A     -6.869444    18A     -6.869083  
      19A     -1.756115    20A     -1.664293    21A     -1.663737  
      22A     -1.466548    23A     -1.361190    24A     -1.197168  
      25A     -1.099661    26A     -1.052873    27A     -1.038069  
      28A     -0.980234    29A     -0.916521    30A     -0.868980  
      31A     -0.856334    32A     -0.849764    33A     -0.844478  
      34A     -0.796607    35A     -0.743017    36A     -0.735910  
      37A     -0.725617    38A     -0.694777    39A     -0.692620  
      40A     -0.683517    41A     -0.677367    42A     -0.670796  
      43A     -0.666074    44A     -0.648675    45A     -0.638346  
      46A     -0.624521    47A     -0.604501    48A     -0.569553  
      49A     -0.544997    50A     -0.531813    51A     -0.526327  
      52A     -0.524493    53A     -0.514705    54A     -0.499412  
      55A     -0.467320    56A     -0.373275    57A     -0.371589  

    Virtual:                                                              

      58A      0.019323    59A      0.028779    60A      0.034332  
      61A      0.035726    62A      0.049143    63A      0.052170  
      64A      0.061134    65A      0.067851    66A      0.068259  
      67A      0.073265    68A      0.081799    69A      0.082014  
      70A      0.093294    71A      0.099620    72A      0.101661  
      73A      0.105039    74A      0.106277    75A      0.116130  
      76A      0.117497    77A      0.121283    78A      0.126076  
      79A      0.131054    80A      0.132522    81A      0.137927  
      82A      0.138545    83A      0.140818    84A      0.141187  
      85A      0.145745    86A      0.148986    87A      0.162239  
      88A      0.170454    89A      0.178421    90A      0.184533  
      91A      0.185579    92A      0.193917    93A      0.195128  
      94A      0.202006    95A      0.206974    96A      0.215348  
      97A      0.220203    98A      0.225913    99A      0.226590  
     100A      0.233473   101A      0.234528   102A      0.238637  
     103A      0.245008   104A      0.247038   105A      0.248399  
     106A      0.252670   107A      0.255023   108A      0.269061  
     109A      0.274886   110A      0.281002   111A      0.281393  
     112A      0.282837   113A      0.283885   114A      0.288501  
     115A      0.295064   116A      0.300137   117A      0.301339  
     118A      0.302929   119A      0.303521   120A      0.311655  
     121A      0.312475   122A      0.316764   123A      0.319009  
     124A      0.321449   125A      0.333851   126A      0.344396  
     127A      0.345381   128A      0.345805   129A      0.347024  
     130A      0.354204   131A      0.355244   132A      0.357910  
     133A      0.362179   134A      0.368406   135A      0.371298  
     136A      0.374906   137A      0.382030   138A      0.387470  
     139A      0.388733   140A      0.394473   141A      0.395665  
     142A      0.398889   143A      0.401950   144A      0.406303  
     145A      0.411237   146A      0.412176   147A      0.423081  
     148A      0.425242   149A      0.441443   150A      0.442012  
     151A      0.450112   152A      0.451724   153A      0.454368  
     154A      0.454869   155A      0.462903   156A      0.464887  
     157A      0.469505   158A      0.477210   159A      0.485639  
     160A      0.486296   161A      0.489548   162A      0.493010  
     163A      0.493580   164A      0.496385   165A      0.501220  
     166A      0.505020   167A      0.511996   168A      0.516272  
     169A      0.517700   170A      0.523694   171A      0.525049  
     172A      0.529598   173A      0.532084   174A      0.537309  
     175A      0.540742   176A      0.544974   177A      0.549258  
     178A      0.550445   179A      0.552321   180A      0.559307  
     181A      0.563190   182A      0.568020   183A      0.572454  
     184A      0.586882   185A      0.591618   186A      0.601437  
     187A      0.611422   188A      0.614333   189A      0.626924  
     190A      0.633411   191A      0.640470   192A      0.640759  
     193A      0.655761   194A      0.658057   195A      0.667943  
     196A      0.676830   197A      0.694108   198A      0.697484  
     199A      0.698827   200A      0.706584   201A      0.708511  
     202A      0.711910   203A      0.723881   204A      0.724593  
     205A      0.736007   206A      0.740590   207A      0.751648  
     208A      0.755862   209A      0.757466   210A      0.759616  
     211A      0.765665   212A      0.781969   213A      0.787738  
     214A      0.796040   215A      0.804014   216A      0.818380  
     217A      0.826729   218A      0.829819   219A      0.835661  
     220A      0.837485   221A      0.839065   222A      0.846935  
     223A      0.851257   224A      0.859139   225A      0.861388  
     226A      0.863895   227A      0.873262   228A      0.880037  
     229A      0.881060   230A      0.895163   231A      0.900036  
     232A      0.900384   233A      0.905197   234A      0.908139  
     235A      0.912257   236A      0.918556   237A      0.925353  
     238A      0.929429   239A      0.932152   240A      0.934660  
     241A      0.947804   242A      0.957628   243A      0.965004  
     244A      0.969846   245A      0.973244   246A      0.983000  
     247A      0.986384   248A      0.988358   249A      0.993483  
     250A      0.998771   251A      1.004498   252A      1.009815  
     253A      1.015399   254A      1.018232   255A      1.027186  
     256A      1.028234   257A      1.031357   258A      1.038379  
     259A      1.042566   260A      1.043592   261A      1.054090  
     262A      1.057985   263A      1.070148   264A      1.074195  
     265A      1.079683   266A      1.083241   267A      1.086803  
     268A      1.087794   269A      1.088816   270A      1.091445  
     271A      1.099864   272A      1.101293   273A      1.107192  
     274A      1.110315   275A      1.116202   276A      1.128241  
     277A      1.137258   278A      1.142509   279A      1.144871  
     280A      1.148442   281A      1.150390   282A      1.159232  
     283A      1.167412   284A      1.169046   285A      1.169822  
     286A      1.178972   287A      1.185082   288A      1.194393  
     289A      1.200529   290A      1.206514   291A      1.208139  
     292A      1.223338   293A      1.227108   294A      1.233424  
     295A      1.237718   296A      1.240689   297A      1.243109  
     298A      1.248711   299A      1.258458   300A      1.264950  
     301A      1.266131   302A      1.273835   303A      1.276487  
     304A      1.282076   305A      1.282303   306A      1.293217  
     307A      1.296490   308A      1.312386   309A      1.314175  
     310A      1.320825   311A      1.332389   312A      1.340913  
     313A      1.342497   314A      1.343678   315A      1.359482  
     316A      1.364787   317A      1.379539   318A      1.384471  
     319A      1.385443   320A      1.390885   321A      1.392232  
     322A      1.400153   323A      1.401362   324A      1.403486  
     325A      1.408640   326A      1.420274   327A      1.436513  
     328A      1.444274   329A      1.455595   330A      1.456699  
     331A      1.464216   332A      1.472504   333A      1.498674  
     334A      1.507268   335A      1.519559   336A      1.520217  
     337A      1.527468   338A      1.529391   339A      1.537781  
     340A      1.544309   341A      1.549082   342A      1.550255  
     343A      1.560507   344A      1.563512   345A      1.568114  
     346A      1.581877   347A      1.591757   348A      1.594253  
     349A      1.596867   350A      1.610442   351A      1.618496  
     352A      1.625894   353A      1.639134   354A      1.646438  
     355A      1.649469   356A      1.660590   357A      1.673022  
     358A      1.683011   359A      1.693556   360A      1.694097  
     361A      1.703042   362A      1.706982   363A      1.709330  
     364A      1.714846   365A      1.724622   366A      1.729701  
     367A      1.740351   368A      1.750444   369A      1.757818  
     370A      1.764449   371A      1.779209   372A      1.789755  
     373A      1.791118   374A      1.801852   375A      1.809977  
     376A      1.820677   377A      1.826493   378A      1.831619  
     379A      1.845220   380A      1.853911   381A      1.855696  
     382A      1.859160   383A      1.876336   384A      1.890621  
     385A      1.891339   386A      1.900876   387A      1.903488  
     388A      1.911006   389A      1.914363   390A      1.921356  
     391A      1.926375   392A      1.931979   393A      1.948108  
     394A      1.960005   395A      1.963697   396A      1.971145  
     397A      1.977849   398A      2.001528   399A      2.013575  
     400A      2.022828   401A      2.029583   402A      2.037161  
     403A      2.048952   404A      2.052657   405A      2.058674  
     406A      2.072868   407A      2.092189   408A      2.093129  
     409A      2.095621   410A      2.118982   411A      2.125534  
     412A      2.129850   413A      2.134464   414A      2.143441  
     415A      2.152033   416A      2.154292   417A      2.168493  
     418A      2.181628   419A      2.185155   420A      2.193712  
     421A      2.199500   422A      2.219229   423A      2.225771  
     424A      2.246029   425A      2.250491   426A      2.259442  
     427A      2.288276   428A      2.291134   429A      2.299099  
     430A      2.300064   431A      2.325740   432A      2.338074  
     433A      2.345145   434A      2.354141   435A      2.359206  
     436A      2.380733   437A      2.382465   438A      2.391933  
     439A      2.397096   440A      2.414709   441A      2.427992  
     442A      2.438157   443A      2.443960   444A      2.459130  
     445A      2.460921   446A      2.464700   447A      2.472292  
     448A      2.481291   449A      2.517623   450A      2.533336  
     451A      2.539162   452A      2.547141   453A      2.549317  
     454A      2.551346   455A      2.567812   456A      2.584735  
     457A      2.587810   458A      2.602391   459A      2.630690  
     460A      2.641032   461A      2.643625   462A      2.665314  
     463A      2.678316   464A      2.683613   465A      2.695356  
     466A      2.732798   467A      2.740713   468A      2.752339  
     469A      2.771918   470A      2.780248   471A      2.788865  
     472A      2.804735   473A      2.807794   474A      2.816623  
     475A      2.833832   476A      2.842131   477A      2.864600  
     478A      2.866061   479A      2.870650   480A      2.887151  
     481A      2.902892   482A      2.912541   483A      2.932928  
     484A      2.948012   485A      2.955056   486A      2.968255  
     487A      2.991620   488A      2.999168   489A      3.005314  
     490A      3.005951   491A      3.028249   492A      3.035802  
     493A      3.052974   494A      3.078884   495A      3.090083  
     496A      3.100493   497A      3.107605   498A      3.114937  
     499A      3.153559   500A      3.167577   501A      3.169603  
     502A      3.192053   503A      3.205999   504A      3.222566  
     505A      3.226184   506A      3.229792   507A      3.235822  
     508A      3.241173   509A      3.265670   510A      3.279588  
     511A      3.281949   512A      3.289206   513A      3.303173  
     514A      3.320042   515A      3.321392   516A      3.324256  
     517A      3.345162   518A      3.351583   519A      3.355706  
     520A      3.379897   521A      3.383519   522A      3.392266  
     523A      3.404958   524A      3.418933   525A      3.420330  
     526A      3.430295   527A      3.439480   528A      3.448504  
     529A      3.473904   530A      3.476702   531A      3.483615  
     532A      3.498431   533A      3.505117   534A      3.511377  
     535A      3.517273   536A      3.524348   537A      3.531279  
     538A      3.541049   539A      3.547564   540A      3.548743  
     541A      3.562336   542A      3.574439   543A      3.580464  
     544A      3.581957   545A      3.585891   546A      3.613371  
     547A      3.617104   548A      3.633733   549A      3.637909  
     550A      3.643237   551A      3.659592   552A      3.665903  
     553A      3.681567   554A      3.684238   555A      3.698279  
     556A      3.700144   557A      3.714287   558A      3.723883  
     559A      3.735853   560A      3.751945   561A      3.757793  
     562A      3.761988   563A      3.764004   564A      3.780905  
     565A      3.787451   566A      3.814451   567A      3.833954  
     568A      3.843832   569A      3.855285   570A      3.864949  
     571A      3.866763   572A      3.873443   573A      3.881436  
     574A      3.883983   575A      3.887976   576A      3.906750  
     577A      3.924805   578A      3.939069   579A      3.943977  
     580A      3.946544   581A      3.956991   582A      3.958371  
     583A      3.961234   584A      3.967252   585A      3.975485  
     586A      3.989741   587A      3.996099   588A      4.006447  
     589A      4.010023   590A      4.032421   591A      4.049903  
     592A      4.055250   593A      4.063891   594A      4.079529  
     595A      4.089674   596A      4.092945   597A      4.107963  
     598A      4.123339   599A      4.143019   600A      4.158020  
     601A      4.159592   602A      4.164146   603A      4.175027  
     604A      4.184704   605A      4.191268   606A      4.203772  
     607A      4.218121   608A      4.219082   609A      4.240973  
     610A      4.241167   611A      4.252287   612A      4.255171  
     613A      4.272557   614A      4.298083   615A      4.301736  
     616A      4.314912   617A      4.336920   618A      4.347961  
     619A      4.354088   620A      4.374399   621A      4.391566  
     622A      4.401245   623A      4.405435   624A      4.409483  
     625A      4.432092   626A      4.435296   627A      4.450956  
     628A      4.455144   629A      4.458469   630A      4.473780  
     631A      4.481568   632A      4.509402   633A      4.524658  
     634A      4.533257   635A      4.539972   636A      4.560263  
     637A      4.576565   638A      4.588873   639A      4.628852  
     640A      4.635190   641A      4.654210   642A      4.655237  
     643A      4.656958   644A      4.672878   645A      4.704319  
     646A      4.712314   647A      4.716759   648A      4.717108  
     649A      4.742597   650A      4.753725   651A      4.785729  
     652A      4.796089   653A      4.810299   654A      4.825067  
     655A      4.828564   656A      4.842552   657A      4.859490  
     658A      4.886590   659A      4.896680   660A      4.902658  
     661A      4.914106   662A      4.932984   663A      4.936615  
     664A      4.962441   665A      4.979938   666A      4.982452  
     667A      5.008954   668A      5.014247   669A      5.037882  
     670A      5.045601   671A      5.048850   672A      5.064604  
     673A      5.076511   674A      5.081337   675A      5.102695  
     676A      5.108522   677A      5.125946   678A      5.139067  
     679A      5.166184   680A      5.186402   681A      5.190337  
     682A      5.210439   683A      5.222172   684A      5.252825  
     685A      5.254690   686A      5.302198   687A      5.308700  
     688A      5.359147   689A      5.398303   690A      5.408701  
     691A      5.417089   692A      5.434304   693A      5.462532  
     694A      5.477743   695A      5.494018   696A      5.501001  
     697A      5.592285   698A      5.657376   699A      5.668379  
     700A      5.717740   701A      5.719641   702A      5.730051  
     703A      5.736175   704A      5.774750   705A      5.780090  
     706A      5.798335   707A      5.848145   708A      5.883730  
     709A      5.903094   710A      5.906809   711A      5.947674  
     712A      5.959299   713A      6.024853   714A      6.051378  
     715A      6.059878   716A      6.068003   717A      6.072099  
     718A      6.143690   719A      6.170440   720A      6.222835  
     721A      6.319706   722A      6.364852   723A      6.395729  
     724A      6.455248   725A      6.482901   726A      6.558957  
     727A      6.637885   728A      6.684815   729A      6.748541  
     730A      6.752873   731A      6.761746   732A      6.823203  
     733A      6.824079   734A      6.885577   735A      6.891474  
     736A      6.896618   737A      6.926989   738A      6.944250  
     739A      6.954776   740A      6.964844   741A      6.981968  
     742A      7.025751   743A      7.038250   744A      7.054754  
     745A      7.070436   746A      7.085758   747A      7.187431  
     748A      7.277903   749A      7.309878   750A      7.330693  
     751A      7.336717   752A      7.346137   753A      7.422438  
     754A      7.585783   755A      7.661467   756A      7.708400  
     757A      7.772600   758A      7.790272   759A      7.832520  
     760A      8.928914   761A      8.939118   762A      8.963313  
     763A      8.977892   764A      8.986574   765A      9.001037  
     766A      9.108968   767A      9.123647   768A      9.268969  
     769A      9.283686   770A      9.287546   771A      9.311738  
     772A      9.332398   773A      9.339717   774A      9.360019  
     775A      9.426989   776A      9.434082   777A      9.453048  
     778A      9.464804   779A      9.483976   780A      9.486652  
     781A      9.517707   782A      9.531682   783A      9.547525  
     784A      9.551549   785A      9.572301   786A      9.631308  
     787A      9.656244   788A      9.677125   789A      9.713168  
     790A      9.714576   791A      9.788014   792A      9.926266  
     793A      9.958571   794A     10.124393   795A     10.138871  
     796A     12.796527   797A     13.267033   798A     13.898242  
     799A     15.774211   800A     15.863891   801A     15.949198  
     802A     16.013760   803A     16.378209   804A     17.690592  
     805A     18.265697   806A     19.086454   807A     19.457742  
     808A     20.243372   809A     20.458047  

    Final Occupation by Irrep:
              A 
    DOCC [    57 ]

  @DF-RHF Final Energy: -1152.82982249819770

   => Energetics <=

    Nuclear Repulsion Energy =           1103.1087723310988622
    One-Electron Energy =               -3782.0992018742676919
    Two-Electron Energy =                1526.1606070449711297
    Total Energy =                      -1152.8298224981977000

Computation Completed

*** tstop() called on c421-112.stampede2.tacc.utexas.edu at Sun Feb 28 11:36:11 2021
Module time:
	user time   =    1241.01 seconds =      20.68 minutes
	system time =      64.05 seconds =       1.07 minutes
	total time  =         68 seconds =       1.13 minutes
Total time:
	user time   =    1241.01 seconds =      20.68 minutes
	system time =      64.05 seconds =       1.07 minutes
	total time  =         68 seconds =       1.13 minutes
   => Loading Basis Set <=

    Name: (AUG-CC-PVTZ AUX)
    Role: RIFIT
    Keyword: DF_BASIS_MP2
    atoms 1     entry S          line   666 file /home1/07844/xy3866/miniconda3/envs/p4env/share/psi4/basis/aug-cc-pvtz-ri.gbs 
    atoms 2-4   entry F          line   322 file /home1/07844/xy3866/miniconda3/envs/p4env/share/psi4/basis/aug-cc-pvtz-ri.gbs 
    atoms 5-6   entry O          line   264 file /home1/07844/xy3866/miniconda3/envs/p4env/share/psi4/basis/aug-cc-pvtz-ri.gbs 
    atoms 7-14  entry C          line   148 file /home1/07844/xy3866/miniconda3/envs/p4env/share/psi4/basis/aug-cc-pvtz-ri.gbs 
    atoms 15-21 entry H          line    30 file /home1/07844/xy3866/miniconda3/envs/p4env/share/psi4/basis/aug-cc-pvtz-ri.gbs 


*** tstart() called on c421-112.stampede2.tacc.utexas.edu
*** at Sun Feb 28 11:36:12 2021


  //>>>>>>>>>>>>>>>>>>>>>>>>>>>>>>>>>>>//
  //               DFMP2               //
  //<<<<<<<<<<<<<<<<<<<<<<<<<<<<<<<<<<<//

	 --------------------------------------------------------
	                          DF-MP2                         
	      2nd-Order Density-Fitted Moller-Plesset Theory     
	              RMP2 Wavefunction,  32 Threads             
	                                                         
	        Rob Parrish, Justin Turney, Andy Simmonett,      
	           Ed Hohenstein, and C. David Sherrill          
	 --------------------------------------------------------

   => Auxiliary Basis Set <=

  Basis Set: (AUG-CC-PVTZ AUX)
    Blend: AUG-CC-PVTZ-RI
    Number of shells: 499
    Number of basis functions: 1847
    Number of Cartesian functions: 2344
    Spherical Harmonics?: true
    Max angular momentum: 4

	 --------------------------------------------------------
	                 NBF =   809, NAUX =  1847
	 --------------------------------------------------------
	   CLASS    FOCC     OCC    AOCC    AVIR     VIR    FVIR
	   PAIRS       0      57      57     752     752       0
	 --------------------------------------------------------

  DFHelper Memory: AOs need 8.176 GiB; user supplied 22.352 GiB. Using in-core AOs.


         ------------------------------------------------------------
                                     CPHF                           
                                  Rob Parrish                       
         ------------------------------------------------------------

  ==> Geometry <==

    Molecular point group: c1
    Full point group: C1

    Geometry (in Angstrom), charge = 0, multiplicity = 1:

       Center              X                  Y                   Z               Mass       
    ------------   -----------------  -----------------  -----------------  -----------------
         S            1.118141109228     0.002739403837    -0.873699557233    31.972071174400
         F            1.461366109228    -1.091610596163     1.491509442767    18.998403162730
         F            3.188478109228     0.000795403837     0.719362442767    18.998403162730
         F            1.461395109228     1.091386403837     1.494135442767    18.998403162730
         O            1.464819109228    -1.307541496163    -1.427964957233    15.994914619570
         O            1.488916109228     1.290835403837    -1.463247557233    15.994914619570
         C           -0.607792890772     0.002282403837    -0.497056557233    12.000000000000
         C           -1.267651890772    -1.218704596163    -0.342039557233    12.000000000000
         C           -1.267656890772     1.222891403837    -0.339111557233    12.000000000000
         C           -3.321444890772     0.001519403837     0.134792442767    12.000000000000
         C            1.856611109228     0.000691403837     0.821071442767    12.000000000000
         C           -2.625791890772    -1.204389596163    -0.030821557233    12.000000000000
         C           -2.625796890772     1.207825403837    -0.027928557233    12.000000000000
         C           -4.779314890772     0.001064403837     0.510705442767    12.000000000000
         H           -0.731813890772    -2.151913596163    -0.491904557233     1.007825032230
         H           -0.731821890772     2.156459403837    -0.486738557233     1.007825032230
         H           -3.155927890772    -2.148192596163     0.080920442767     1.007825032230
         H           -3.155935890772     2.151356403837     0.086077442767     1.007825032230
         H           -5.286690890772     0.887304403837     0.120303442767     1.007825032230
         H           -5.286703890772    -0.884197596163     0.118106442767     1.007825032230
         H           -4.900923890772    -0.000285596163     1.599326442767     1.007825032230

  Nuclear repulsion = 1103.108772331098862
  Reference energy  = -1152.829822498197700

  ==> Basis Set <==

  Basis Set: AUG-CC-PVTZ
    Blend: AUG-CC-PVTZ
    Number of shells: 261
    Number of basis functions: 809
    Number of Cartesian functions: 949
    Spherical Harmonics?: true
    Max angular momentum: 3

  ==> CGRSolver (by Rob Parrish) <==

   Number of roots    =         1
   Preconditioning    =    JACOBI
   Convergence cutoff =     1E-06
   Maximum iterations =       100

  ==> CPHFRHamiltonian (by Rob Parrish) <== 

  ==> MemDFJK: Density-Fitted J/K Matrices <==

    J tasked:                   Yes
    K tasked:                   Yes
    wK tasked:                   No
    OpenMP threads:              32
    Memory [MiB]:             22888
    Algorithm:                 Core
    Schwarz Cutoff:           1E-12
    Mask sparsity (%):      11.3971
    Fitting Condition:        1E-10

   => Auxiliary Basis Set <=

  Basis Set: (AUG-CC-PVTZ AUX)
    Blend: AUG-CC-PVTZ-JKFIT
    Number of shells: 530
    Number of basis functions: 1820
    Number of Cartesian functions: 2268
    Spherical Harmonics?: true
    Max angular momentum: 4

  ==> CPHF Iterations <==

  => Iterations <=

             Iter  Converged  Remaining    Residual
  CGR           1          0          1   1.169E-01
  CGR           2          0          1   3.661E-02
  CGR           3          0          1   2.110E-02
  CGR           4          0          1   9.554E-03
  CGR           5          0          1   4.225E-03
  CGR           6          0          1   1.716E-03
  CGR           7          0          1   6.935E-04
  CGR           8          0          1   2.050E-04
  CGR           9          0          1   6.131E-05
  CGR          10          0          1   2.335E-05
  CGR          11          0          1   7.679E-06
  CGR          12          0          1   2.465E-06
  CGR          13          1          0   9.029E-07

    CGRSolver converged.

	-----------------------------------------------------------
	 ==================> DF-MP2 Energies <==================== 
	-----------------------------------------------------------
	 Reference Energy          =   -1152.8298224981977000 [Eh]
	 Singles Energy            =      -0.0000000000000000 [Eh]
	 Same-Spin Energy          =      -0.7698526719842673 [Eh]
	 Opposite-Spin Energy      =      -2.2429698393137123 [Eh]
	 Correlation Energy        =      -3.0128225112979798 [Eh]
	 Total Energy              =   -1155.8426450094957545 [Eh]
	-----------------------------------------------------------
	 ================> DF-SCS-MP2 Energies <================== 
	-----------------------------------------------------------
	 SCS Same-Spin Scale       =       0.3333333333333333 [-]
	 SCS Opposite-Spin Scale   =       1.2000000000000000 [-]
	 SCS Same-Spin Energy      =      -0.2566175573280891 [Eh]
	 SCS Opposite-Spin Energy  =      -2.6915638071764545 [Eh]
	 SCS Correlation Energy    =      -2.9481813645045434 [Eh]
	 SCS Total Energy          =   -1155.7780038627022350 [Eh]
	-----------------------------------------------------------



Properties will be evaluated at   0.000000,  -0.000000,  -0.000000 [a0]

Properties computed using the MP2 density matrix

  Nuclear Dipole Moment: [e a0]
     X:   -27.5174      Y:     0.0093      Z:    -2.5702

  Electronic Dipole Moment: [e a0]
     X:    25.4150      Y:     0.0084      Z:     3.3731

  Dipole Moment: [e a0]
     X:    -2.1024      Y:     0.0177      Z:     0.8030     Total:     2.2506

  Dipole Moment: [D]
     X:    -5.3437      Y:     0.0451      Z:     2.0409     Total:     5.7204


*** tstop() called on c421-112.stampede2.tacc.utexas.edu at Sun Feb 28 11:44:25 2021
Module time:
	user time   =    4359.37 seconds =      72.66 minutes
	system time =     107.63 seconds =       1.79 minutes
	total time  =        493 seconds =       8.22 minutes
Total time:
	user time   =    5601.47 seconds =      93.36 minutes
	system time =     171.70 seconds =       2.86 minutes
	total time  =        562 seconds =       9.37 minutes

    Psi4 stopped on: Sunday, 28 February 2021 11:44AM
    Psi4 wall time for execution: 0:09:24.05

*** Psi4 exiting successfully. Buy a developer a beer!
