
    -----------------------------------------------------------------------
          Psi4: An Open-Source Ab Initio Electronic Structure Package
                               Psi4 1.3.2 release

                         Git: Rev {HEAD} ecbda83 


    R. M. Parrish, L. A. Burns, D. G. A. Smith, A. C. Simmonett,
    A. E. DePrince III, E. G. Hohenstein, U. Bozkaya, A. Yu. Sokolov,
    R. Di Remigio, R. M. Richard, J. F. Gonthier, A. M. James,
    H. R. McAlexander, A. Kumar, M. Saitow, X. Wang, B. P. Pritchard,
    P. Verma, H. F. Schaefer III, K. Patkowski, R. A. King, E. F. Valeev,
    F. A. Evangelista, J. M. Turney, T. D. Crawford, and C. D. Sherrill,
    J. Chem. Theory Comput. 13(7) pp 3185--3197 (2017).
    (doi: 10.1021/acs.jctc.7b00174)


                         Additional Contributions by
    P. Kraus, H. Kruse, M. H. Lechner, M. C. Schieber, R. A. Shaw,
    A. Alenaizan, R. Galvelis, Z. L. Glick, S. Lehtola, and J. P. Misiewicz

    -----------------------------------------------------------------------


    Psi4 started on: Thursday, 04 February 2021 02:27AM

    Process ID: 73633
    Host:       node35.bme.utexas.edu
    PSIDATADIR: /home/xy3866/psi4conda/share/psi4
    Memory:     500.0 MiB
    Threads:    8
    
  ==> Input File <==

--------------------------------------------------------------------------
#psi4
#
memory 32 gb

molecule  {
0 1
  O       -0.1070010     1.5019560    -0.1844920
  O        2.0396856    -0.2224725     0.3674427
  C       -0.2955110     0.1009390    -0.1081660
  C       -1.2626320    -0.4138420     0.9150900
  C       -1.6307620    -0.3904120    -0.5546590
  C        0.9536540    -0.6636150    -0.4527090
  H       -1.7417500     0.3211220     1.5538480
  H       -1.0582210    -1.3705490     1.3857280
  H       -1.6856880    -1.3325510    -1.0922370
  H       -2.3335820     0.3688280    -0.8792620
  H        1.1811620    -0.5295190    -1.5194400
  H        0.8172500    -1.7319370    -0.2626510
  H        0.3174590     1.7541820     0.6550680
  H        2.3334610     0.6171320    -0.0105960
units angstrom
no_reorient  #important for SAPT in psi4, default
symmetry c1  #important for SAPT in psi4, default
}

set PROPERTIES_ORIGIN ["COM"]
properties('MP2/aug-cc-pvtz', properties = ['dipole'])
--------------------------------------------------------------------------

  Memory set to  29.802 GiB by Python driver.
    SCF Algorithm Type (re)set to DF.

*** tstart() called on node35.bme.utexas.edu
*** at Thu Feb  4 02:27:27 2021

   => Loading Basis Set <=

    Name: AUG-CC-PVTZ
    Role: ORBITAL
    Keyword: BASIS
    atoms 1-2  entry O          line   327 file /home/xy3866/psi4conda/share/psi4/basis/aug-cc-pvtz.gbs 
    atoms 3-6  entry C          line   235 file /home/xy3866/psi4conda/share/psi4/basis/aug-cc-pvtz.gbs 
    atoms 7-14 entry H          line    36 file /home/xy3866/psi4conda/share/psi4/basis/aug-cc-pvtz.gbs 


         ---------------------------------------------------------
                                   SCF
               by Justin Turney, Rob Parrish, Andy Simmonett
                          and Daniel G. A. Smith
                              RHF Reference
                        8 Threads,  30517 MiB Core
         ---------------------------------------------------------

  ==> Geometry <==

    Molecular point group: c1
    Full point group: C1

    Geometry (in Angstrom), charge = 0, multiplicity = 1:

       Center              X                  Y                   Z               Mass       
    ------------   -----------------  -----------------  -----------------  -----------------
         O           -0.128615673968     1.477608187786    -0.188467860251    15.994914619570
         O            2.018070926032    -0.246820312214     0.363466839749    15.994914619570
         C           -0.317125673968     0.076591187786    -0.112141860251    12.000000000000
         C           -1.284246673968    -0.438189812214     0.911114139749    12.000000000000
         C           -1.652376673968    -0.414759812214    -0.558634860251    12.000000000000
         C            0.932039326032    -0.687962812214    -0.456684860251    12.000000000000
         H           -1.763364673968     0.296774187786     1.549872139749     1.007825032230
         H           -1.079835673968    -1.394896812214     1.381752139749     1.007825032230
         H           -1.707302673968    -1.356898812214    -1.096212860251     1.007825032230
         H           -2.355196673968     0.344480187786    -0.883237860251     1.007825032230
         H            1.159547326032    -0.553866812214    -1.523415860251     1.007825032230
         H            0.795635326032    -1.756284812214    -0.266626860251     1.007825032230
         H            0.295844326032     1.729834187786     0.651092139749     1.007825032230
         H            2.311846326032     0.592784187786    -0.014571860251     1.007825032230

  Running in c1 symmetry.

  Rotational constants: A =      0.19839  B =      0.09470  C =      0.08147 [cm^-1]
  Rotational constants: A =   5947.59822  B =   2839.11384  C =   2442.44764 [MHz]
  Nuclear repulsion =  252.324977953640996

  Charge       = 0
  Multiplicity = 1
  Electrons    = 48
  Nalpha       = 24
  Nbeta        = 24

  ==> Algorithm <==

  SCF Algorithm Type is DF.
  DIIS enabled.
  MOM disabled.
  Fractional occupation disabled.
  Guess Type is SAD.
  Energy threshold   = 1.00e-10
  Density threshold  = 1.00e-10
  Integral threshold = 0.00e+00

  ==> Primary Basis <==

  Basis Set: AUG-CC-PVTZ
    Blend: AUG-CC-PVTZ
    Number of shells: 156
    Number of basis function: 460
    Number of Cartesian functions: 530
    Spherical Harmonics?: true
    Max angular momentum: 3

   => Loading Basis Set <=

    Name: (AUG-CC-PVTZ AUX)
    Role: JKFIT
    Keyword: DF_BASIS_SCF
    atoms 1-2  entry O          line   286 file /home/xy3866/psi4conda/share/psi4/basis/aug-cc-pvtz-jkfit.gbs 
    atoms 3-6  entry C          line   162 file /home/xy3866/psi4conda/share/psi4/basis/aug-cc-pvtz-jkfit.gbs 
    atoms 7-14 entry H          line    70 file /home/xy3866/psi4conda/share/psi4/basis/aug-cc-pvtz-jkfit.gbs 

  ==> Pre-Iterations <==

   -------------------------------------------------------
    Irrep   Nso     Nmo     Nalpha   Nbeta   Ndocc  Nsocc
   -------------------------------------------------------
     A        460     460       0       0       0       0
   -------------------------------------------------------
    Total     460     460      24      24      24       0
   -------------------------------------------------------

  ==> Integral Setup <==

  DFHelper Memory: AOs need 1.606 GiB; user supplied 22.352 GiB. Using in-core AOs.

  ==> MemDFJK: Density-Fitted J/K Matrices <==

    J tasked:                   Yes
    K tasked:                   Yes
    wK tasked:                   No
    OpenMP threads:               8
    Memory [MiB]:             22888
    Algorithm:                 Core
    Schwarz Cutoff:           1E-12
    Mask sparsity (%):       1.3062
    Fitting Condition:        1E-10

   => Auxiliary Basis Set <=

  Basis Set: (AUG-CC-PVTZ AUX)
    Blend: AUG-CC-PVTZ-JKFIT
    Number of shells: 292
    Number of basis function: 992
    Number of Cartesian functions: 1226
    Spherical Harmonics?: true
    Max angular momentum: 4

  Minimum eigenvalue in the overlap matrix is 4.8753082627E-06.
  Using Symmetric Orthogonalization.

  SCF Guess: Superposition of Atomic Densities via on-the-fly atomic UHF.

  ==> Iterations <==

                           Total Energy        Delta E     RMS |[F,P]|

   @DF-RHF iter SAD:  -305.34995443607272   -3.05350e+02   0.00000e+00 
   @DF-RHF iter   1:  -305.70203324529319   -3.52079e-01   1.41460e-03 DIIS
   @DF-RHF iter   2:  -305.87724785772537   -1.75215e-01   7.40741e-04 DIIS
   @DF-RHF iter   3:  -305.92045559993511   -4.32077e-02   1.22323e-04 DIIS
   @DF-RHF iter   4:  -305.92279362194375   -2.33802e-03   4.15235e-05 DIIS
   @DF-RHF iter   5:  -305.92300328066506   -2.09659e-04   1.00104e-05 DIIS
   @DF-RHF iter   6:  -305.92302143751078   -1.81568e-05   3.07360e-06 DIIS
   @DF-RHF iter   7:  -305.92302336651170   -1.92900e-06   9.40554e-07 DIIS
   @DF-RHF iter   8:  -305.92302356623804   -1.99726e-07   2.68887e-07 DIIS
   @DF-RHF iter   9:  -305.92302358560613   -1.93681e-08   6.67829e-08 DIIS
   @DF-RHF iter  10:  -305.92302358657048   -9.64349e-10   2.38723e-08 DIIS
   @DF-RHF iter  11:  -305.92302358667729   -1.06809e-10   5.76898e-09 DIIS
   @DF-RHF iter  12:  -305.92302358668718   -9.89075e-12   1.55654e-09 DIIS
   @DF-RHF iter  13:  -305.92302358668792   -7.38964e-13   4.45468e-10 DIIS
   @DF-RHF iter  14:  -305.92302358668820   -2.84217e-13   1.93920e-10 DIIS
   @DF-RHF iter  15:  -305.92302358668780    3.97904e-13   6.47025e-11 DIIS
  Energy and wave function converged.


  ==> Post-Iterations <==

    Orbital Energies [Eh]
    ---------------------

    Doubly Occupied:                                                      

       1A    -20.570259     2A    -20.563791     3A    -11.288944  
       4A    -11.282470     5A    -11.231265     6A    -11.230406  
       7A     -1.383011     8A     -1.353033     9A     -1.138341  
      10A     -0.953114    11A     -0.837320    12A     -0.785322  
      13A     -0.702712    14A     -0.694009    15A     -0.658906  
      16A     -0.638442    17A     -0.589410    18A     -0.565405  
      19A     -0.530820    20A     -0.519038    21A     -0.501432  
      22A     -0.473962    23A     -0.414594    24A     -0.406624  

    Virtual:                                                              

      25A      0.030029    26A      0.036145    27A      0.036658  
      28A      0.042318    29A      0.055521    30A      0.057557  
      31A      0.060214    32A      0.066637    33A      0.094470  
      34A      0.105194    35A      0.113673    36A      0.118197  
      37A      0.121241    38A      0.125193    39A      0.127798  
      40A      0.134193    41A      0.135954    42A      0.140450  
      43A      0.154874    44A      0.156169    45A      0.167149  
      46A      0.175675    47A      0.189767    48A      0.198376  
      49A      0.202421    50A      0.214324    51A      0.226701  
      52A      0.235143    53A      0.243369    54A      0.258373  
      55A      0.263410    56A      0.267983    57A      0.271905  
      58A      0.279743    59A      0.288428    60A      0.294778  
      61A      0.301692    62A      0.306066    63A      0.323901  
      64A      0.328640    65A      0.331950    66A      0.335576  
      67A      0.345768    68A      0.348118    69A      0.365082  
      70A      0.369737    71A      0.375279    72A      0.380996  
      73A      0.382592    74A      0.388100    75A      0.399865  
      76A      0.404310    77A      0.411815    78A      0.420506  
      79A      0.423581    80A      0.432587    81A      0.434107  
      82A      0.441254    83A      0.444738    84A      0.453390  
      85A      0.460960    86A      0.466777    87A      0.474066  
      88A      0.483888    89A      0.485198    90A      0.490011  
      91A      0.494398    92A      0.503272    93A      0.514280  
      94A      0.521580    95A      0.524540    96A      0.532341  
      97A      0.536752    98A      0.545061    99A      0.560266  
     100A      0.562029   101A      0.567105   102A      0.578043  
     103A      0.599164   104A      0.602772   105A      0.605825  
     106A      0.611326   107A      0.624762   108A      0.639389  
     109A      0.644533   110A      0.658368   111A      0.663251  
     112A      0.695964   113A      0.705324   114A      0.718401  
     115A      0.720439   116A      0.727453   117A      0.729604  
     118A      0.746025   119A      0.759243   120A      0.770323  
     121A      0.784854   122A      0.801199   123A      0.812785  
     124A      0.822364   125A      0.843126   126A      0.852172  
     127A      0.866441   128A      0.871750   129A      0.884107  
     130A      0.891967   131A      0.898115   132A      0.910078  
     133A      0.921359   134A      0.929003   135A      0.931282  
     136A      0.944088   137A      0.946280   138A      0.955289  
     139A      0.976587   140A      0.980673   141A      0.990390  
     142A      0.999860   143A      1.011652   144A      1.012845  
     145A      1.018558   146A      1.027931   147A      1.030814  
     148A      1.040949   149A      1.051815   150A      1.064246  
     151A      1.067206   152A      1.075057   153A      1.088262  
     154A      1.092897   155A      1.100270   156A      1.117725  
     157A      1.119934   158A      1.125221   159A      1.134971  
     160A      1.139486   161A      1.150933   162A      1.165216  
     163A      1.174651   164A      1.185502   165A      1.192320  
     166A      1.198226   167A      1.216790   168A      1.225485  
     169A      1.231226   170A      1.244268   171A      1.262215  
     172A      1.267502   173A      1.272704   174A      1.286194  
     175A      1.296188   176A      1.300943   177A      1.317819  
     178A      1.327823   179A      1.336003   180A      1.341634  
     181A      1.360327   182A      1.368020   183A      1.388580  
     184A      1.397426   185A      1.419060   186A      1.424995  
     187A      1.439183   188A      1.447559   189A      1.464708  
     190A      1.469895   191A      1.482176   192A      1.492706  
     193A      1.496985   194A      1.513913   195A      1.529340  
     196A      1.549037   197A      1.561695   198A      1.572027  
     199A      1.577622   200A      1.592859   201A      1.606659  
     202A      1.611110   203A      1.642396   204A      1.642983  
     205A      1.653777   206A      1.664444   207A      1.669836  
     208A      1.675716   209A      1.693694   210A      1.700270  
     211A      1.705619   212A      1.725964   213A      1.734982  
     214A      1.740949   215A      1.767404   216A      1.779670  
     217A      1.797947   218A      1.812587   219A      1.825054  
     220A      1.834055   221A      1.851891   222A      1.864917  
     223A      1.874877   224A      1.904166   225A      1.914234  
     226A      1.920012   227A      1.932303   228A      1.947860  
     229A      1.956763   230A      1.976992   231A      1.995448  
     232A      2.006595   233A      2.017204   234A      2.040760  
     235A      2.049235   236A      2.052666   237A      2.068422  
     238A      2.076547   239A      2.090955   240A      2.098396  
     241A      2.102672   242A      2.116862   243A      2.134430  
     244A      2.160341   245A      2.185530   246A      2.206130  
     247A      2.221234   248A      2.230001   249A      2.235538  
     250A      2.260687   251A      2.283242   252A      2.316751  
     253A      2.329343   254A      2.341552   255A      2.368375  
     256A      2.392882   257A      2.399134   258A      2.440674  
     259A      2.476030   260A      2.484886   261A      2.489174  
     262A      2.518994   263A      2.535378   264A      2.562230  
     265A      2.599015   266A      2.637284   267A      2.666054  
     268A      2.674985   269A      2.696062   270A      2.718780  
     271A      2.728709   272A      2.756636   273A      2.789476  
     274A      2.820433   275A      2.857115   276A      2.860137  
     277A      2.890562   278A      2.893685   279A      2.928128  
     280A      2.963204   281A      2.988640   282A      3.011613  
     283A      3.041510   284A      3.077270   285A      3.091420  
     286A      3.119079   287A      3.126315   288A      3.145596  
     289A      3.173216   290A      3.196985   291A      3.223796  
     292A      3.259060   293A      3.302466   294A      3.313632  
     295A      3.357726   296A      3.425133   297A      3.459384  
     298A      3.510764   299A      3.514851   300A      3.536376  
     301A      3.565772   302A      3.576005   303A      3.594567  
     304A      3.600543   305A      3.640124   306A      3.669895  
     307A      3.684791   308A      3.704566   309A      3.707468  
     310A      3.728863   311A      3.731485   312A      3.770679  
     313A      3.793493   314A      3.799501   315A      3.818846  
     316A      3.828667   317A      3.852845   318A      3.860420  
     319A      3.887524   320A      3.914536   321A      3.922235  
     322A      3.930248   323A      3.934493   324A      3.953859  
     325A      3.973269   326A      4.008881   327A      4.021474  
     328A      4.046423   329A      4.077684   330A      4.086211  
     331A      4.115159   332A      4.129637   333A      4.145642  
     334A      4.151174   335A      4.157038   336A      4.182691  
     337A      4.188079   338A      4.209255   339A      4.224046  
     340A      4.260863   341A      4.266134   342A      4.290849  
     343A      4.315113   344A      4.340876   345A      4.354111  
     346A      4.355290   347A      4.377889   348A      4.387455  
     349A      4.418394   350A      4.448033   351A      4.457548  
     352A      4.469475   353A      4.501872   354A      4.530160  
     355A      4.535107   356A      4.558013   357A      4.581058  
     358A      4.601159   359A      4.617246   360A      4.649185  
     361A      4.670779   362A      4.693497   363A      4.707649  
     364A      4.738666   365A      4.760545   366A      4.780183  
     367A      4.817921   368A      4.830105   369A      4.835581  
     370A      4.869295   371A      4.883818   372A      4.896099  
     373A      4.906695   374A      4.936625   375A      4.956532  
     376A      4.961408   377A      4.992742   378A      4.997371  
     379A      5.009735   380A      5.051559   381A      5.054195  
     382A      5.077132   383A      5.099228   384A      5.140477  
     385A      5.151748   386A      5.174565   387A      5.223027  
     388A      5.245415   389A      5.269265   390A      5.297657  
     391A      5.347720   392A      5.378479   393A      5.391205  
     394A      5.408958   395A      5.451898   396A      5.471517  
     397A      5.487109   398A      5.526800   399A      5.538388  
     400A      5.555899   401A      5.570212   402A      5.583271  
     403A      5.603931   404A      5.625219   405A      5.662869  
     406A      5.683140   407A      5.694795   408A      5.712902  
     409A      5.727386   410A      5.757185   411A      5.794162  
     412A      5.870039   413A      5.981500   414A      6.017651  
     415A      6.056649   416A      6.132252   417A      6.160415  
     418A      6.192488   419A      6.220244   420A      6.288836  
     421A      6.356941   422A      6.410665   423A      6.460055  
     424A      6.592727   425A      6.614781   426A      6.671576  
     427A      6.730462   428A      6.751802   429A      6.810263  
     430A      6.864753   431A      6.954950   432A      6.985924  
     433A      7.023979   434A      7.062685   435A      7.118782  
     436A      7.214312   437A      7.320255   438A      7.346426  
     439A      7.358229   440A      7.378457   441A      7.498274  
     442A      7.512540   443A      7.537799   444A      7.571182  
     445A      7.630941   446A      7.719572   447A      7.840530  
     448A      7.906341   449A      7.987724   450A      8.001451  
     451A      8.186330   452A      8.207095   453A      8.544035  
     454A      8.584479   455A     15.882843   456A     16.115503  
     457A     17.354001   458A     17.763092   459A     18.350015  
     460A     20.043138  

    Final Occupation by Irrep:
              A 
    DOCC [    24 ]

  @DF-RHF Final Energy:  -305.92302358668780

   => Energetics <=

    Nuclear Repulsion Energy =            252.3249779536409960
    One-Electron Energy =                -917.8707451170847662
    Two-Electron Energy =                 359.6227435767559655
    Total Energy =                       -305.9230235866878047

Computation Completed

*** tstop() called on node35.bme.utexas.edu at Thu Feb  4 02:27:46 2021
Module time:
	user time   =     121.63 seconds =       2.03 minutes
	system time =       9.09 seconds =       0.15 minutes
	total time  =         19 seconds =       0.32 minutes
Total time:
	user time   =     121.63 seconds =       2.03 minutes
	system time =       9.09 seconds =       0.15 minutes
	total time  =         19 seconds =       0.32 minutes
   => Loading Basis Set <=

    Name: (AUG-CC-PVTZ AUX)
    Role: RIFIT
    Keyword: DF_BASIS_MP2
    atoms 1-2  entry O          line   264 file /home/xy3866/psi4conda/share/psi4/basis/aug-cc-pvtz-ri.gbs 
    atoms 3-6  entry C          line   148 file /home/xy3866/psi4conda/share/psi4/basis/aug-cc-pvtz-ri.gbs 
    atoms 7-14 entry H          line    30 file /home/xy3866/psi4conda/share/psi4/basis/aug-cc-pvtz-ri.gbs 


*** tstart() called on node35.bme.utexas.edu
*** at Thu Feb  4 02:27:46 2021


  //>>>>>>>>>>>>>>>>>>>>>>>>>>>>>>>>>>>//
  //               DFMP2               //
  //<<<<<<<<<<<<<<<<<<<<<<<<<<<<<<<<<<<//

	 --------------------------------------------------------
	                          DF-MP2                         
	      2nd-Order Density-Fitted Moller-Plesset Theory     
	              RMP2 Wavefunction,   8 Threads             
	                                                         
	        Rob Parrish, Justin Turney, Andy Simmonett,      
	           Ed Hohenstein, and C. David Sherrill          
	 --------------------------------------------------------

   => Auxiliary Basis Set <=

  Basis Set: (AUG-CC-PVTZ AUX)
    Blend: AUG-CC-PVTZ-RI
    Number of shells: 280
    Number of basis function: 1004
    Number of Cartesian functions: 1256
    Spherical Harmonics?: true
    Max angular momentum: 4

	 --------------------------------------------------------
	                 NBF =   460, NAUX =  1004
	 --------------------------------------------------------
	   CLASS    FOCC     OCC    AOCC    AVIR     VIR    FVIR
	   PAIRS       0      24      24     436     436       0
	 --------------------------------------------------------

  DFHelper Memory: AOs need 1.606 GiB; user supplied 22.352 GiB. Using in-core AOs.


         ------------------------------------------------------------
                                     CPHF                           
                                  Rob Parrish                       
         ------------------------------------------------------------

  ==> Geometry <==

    Molecular point group: c1
    Full point group: C1

    Geometry (in Angstrom), charge = 0, multiplicity = 1:

       Center              X                  Y                   Z               Mass       
    ------------   -----------------  -----------------  -----------------  -----------------
         O           -0.128615673968     1.477608187786    -0.188467860251    15.994914619570
         O            2.018070926032    -0.246820312214     0.363466839749    15.994914619570
         C           -0.317125673968     0.076591187786    -0.112141860251    12.000000000000
         C           -1.284246673968    -0.438189812214     0.911114139749    12.000000000000
         C           -1.652376673968    -0.414759812214    -0.558634860251    12.000000000000
         C            0.932039326032    -0.687962812214    -0.456684860251    12.000000000000
         H           -1.763364673968     0.296774187786     1.549872139749     1.007825032230
         H           -1.079835673968    -1.394896812214     1.381752139749     1.007825032230
         H           -1.707302673968    -1.356898812214    -1.096212860251     1.007825032230
         H           -2.355196673968     0.344480187786    -0.883237860251     1.007825032230
         H            1.159547326032    -0.553866812214    -1.523415860251     1.007825032230
         H            0.795635326032    -1.756284812214    -0.266626860251     1.007825032230
         H            0.295844326032     1.729834187786     0.651092139749     1.007825032230
         H            2.311846326032     0.592784187786    -0.014571860251     1.007825032230

  Nuclear repulsion =  252.324977953640968
  Reference energy  = -305.923023586687805

  ==> Basis Set <==

  Basis Set: AUG-CC-PVTZ
    Blend: AUG-CC-PVTZ
    Number of shells: 156
    Number of basis function: 460
    Number of Cartesian functions: 530
    Spherical Harmonics?: true
    Max angular momentum: 3

  ==> CGRSolver (by Rob Parrish) <==

   Number of roots    =         1
   Preconditioning    =    JACOBI
   Convergence cutoff =     1E-06
   Maximum iterations =       100

  ==> CPHFRHamiltonian (by Rob Parrish) <== 

  ==> MemDFJK: Density-Fitted J/K Matrices <==

    J tasked:                   Yes
    K tasked:                   Yes
    wK tasked:                   No
    OpenMP threads:               8
    Memory [MiB]:             22888
    Algorithm:                 Core
    Schwarz Cutoff:           1E-12
    Mask sparsity (%):       1.3062
    Fitting Condition:        1E-10

   => Auxiliary Basis Set <=

  Basis Set: (AUG-CC-PVTZ AUX)
    Blend: AUG-CC-PVTZ-JKFIT
    Number of shells: 292
    Number of basis function: 992
    Number of Cartesian functions: 1226
    Spherical Harmonics?: true
    Max angular momentum: 4

  ==> CPHF Iterations <==

  => Iterations <=

             Iter  Converged  Remaining    Residual
  CGR           1          0          1   7.993E-02
  CGR           2          0          1   1.877E-02
  CGR           3          0          1   7.616E-03
  CGR           4          0          1   1.898E-03
  CGR           5          0          1   4.963E-04
  CGR           6          0          1   1.533E-04
  CGR           7          0          1   3.841E-05
  CGR           8          0          1   1.188E-05
  CGR           9          0          1   3.333E-06
  CGR          10          1          0   9.059E-07

    CGRSolver converged.

	-----------------------------------------------------------
	 ==================> DF-MP2 Energies <==================== 
	-----------------------------------------------------------
	 Reference Energy          =    -305.9230235866878047 [Eh]
	 Singles Energy            =      -0.0000000000000000 [Eh]
	 Same-Spin Energy          =      -0.3046821684816469 [Eh]
	 Opposite-Spin Energy      =      -0.9838912614149811 [Eh]
	 Correlation Energy        =      -1.2885734298966280 [Eh]
	 Total Energy              =    -307.2115970165844487 [Eh]
	-----------------------------------------------------------
	 ================> DF-SCS-MP2 Energies <================== 
	-----------------------------------------------------------
	 SCS Same-Spin Scale       =       0.3333333333333333 [-]
	 SCS Opposite-Spin Scale   =       1.2000000000000000 [-]
	 SCS Same-Spin Energy      =      -0.1015607228272156 [Eh]
	 SCS Opposite-Spin Energy  =      -1.1806695136979772 [Eh]
	 SCS Correlation Energy    =      -1.2822302365251930 [Eh]
	 SCS Total Energy          =    -307.2052538232130132 [Eh]
	-----------------------------------------------------------



Properties will be evaluated at  -0.000000,   0.000000,  -0.000000 [a0]

Properties computed using the MP2 density matrix

  Nuclear Dipole Moment: [e a0]
     X:    -2.1872      Y:    -1.9610      Z:    -0.1879

  Electronic Dipole Moment: [e a0]
     X:     2.0250      Y:     1.8912      Z:     0.1601

  Dipole Moment: [e a0]
     X:    -0.1623      Y:    -0.0698      Z:    -0.0278     Total:     0.1788

  Dipole Moment: [D]
     X:    -0.4125      Y:    -0.1773      Z:    -0.0707     Total:     0.4546


*** tstop() called on node35.bme.utexas.edu at Thu Feb  4 02:28:54 2021
Module time:
	user time   =     373.76 seconds =       6.23 minutes
	system time =      56.63 seconds =       0.94 minutes
	total time  =         68 seconds =       1.13 minutes
Total time:
	user time   =     495.59 seconds =       8.26 minutes
	system time =      65.73 seconds =       1.10 minutes
	total time  =         87 seconds =       1.45 minutes

    Psi4 stopped on: Thursday, 04 February 2021 02:28AM
    Psi4 wall time for execution: 0:01:28.27

*** Psi4 exiting successfully. Buy a developer a beer!
