
    -----------------------------------------------------------------------
          Psi4: An Open-Source Ab Initio Electronic Structure Package
                               Psi4 1.3.2 release

                         Git: Rev {HEAD} ecbda83 


    R. M. Parrish, L. A. Burns, D. G. A. Smith, A. C. Simmonett,
    A. E. DePrince III, E. G. Hohenstein, U. Bozkaya, A. Yu. Sokolov,
    R. Di Remigio, R. M. Richard, J. F. Gonthier, A. M. James,
    H. R. McAlexander, A. Kumar, M. Saitow, X. Wang, B. P. Pritchard,
    P. Verma, H. F. Schaefer III, K. Patkowski, R. A. King, E. F. Valeev,
    F. A. Evangelista, J. M. Turney, T. D. Crawford, and C. D. Sherrill,
    J. Chem. Theory Comput. 13(7) pp 3185--3197 (2017).
    (doi: 10.1021/acs.jctc.7b00174)


                         Additional Contributions by
    P. Kraus, H. Kruse, M. H. Lechner, M. C. Schieber, R. A. Shaw,
    A. Alenaizan, R. Galvelis, Z. L. Glick, S. Lehtola, and J. P. Misiewicz

    -----------------------------------------------------------------------


    Psi4 started on: Thursday, 04 February 2021 02:51AM

    Process ID: 75309
    Host:       node35.bme.utexas.edu
    PSIDATADIR: /home/xy3866/psi4conda/share/psi4
    Memory:     500.0 MiB
    Threads:    8
    
  ==> Input File <==

--------------------------------------------------------------------------
#psi4
#
memory 32 gb

molecule  {
0 1
  O       -0.1070010     1.5019560    -0.1844920
  O        2.0546780    -0.2388480     0.3560180
  C       -0.3001189     0.1314359    -0.2085505
  C       -1.2626320    -0.4138420     0.9150900
  C       -1.6307620    -0.3904120    -0.5546590
  C        0.9536540    -0.6636150    -0.4527090
  H       -1.7417500     0.3211220     1.5538480
  H       -1.0582210    -1.3705490     1.3857280
  H       -1.6856880    -1.3325510    -1.0922370
  H       -2.3335820     0.3688280    -0.8792620
  H        1.1811620    -0.5295190    -1.5194400
  H        0.8172500    -1.7319370    -0.2626510
  H        0.3174590     1.7541820     0.6550680
  H        2.3334610     0.6171320    -0.0105960
units angstrom
no_reorient  #important for SAPT in psi4, default
symmetry c1  #important for SAPT in psi4, default
}

set PROPERTIES_ORIGIN ["COM"]
properties('MP2/aug-cc-pvtz', properties = ['dipole'])
--------------------------------------------------------------------------

  Memory set to  29.802 GiB by Python driver.
    SCF Algorithm Type (re)set to DF.

*** tstart() called on node35.bme.utexas.edu
*** at Thu Feb  4 02:51:41 2021

   => Loading Basis Set <=

    Name: AUG-CC-PVTZ
    Role: ORBITAL
    Keyword: BASIS
    atoms 1-2  entry O          line   327 file /home/xy3866/psi4conda/share/psi4/basis/aug-cc-pvtz.gbs 
    atoms 3-6  entry C          line   235 file /home/xy3866/psi4conda/share/psi4/basis/aug-cc-pvtz.gbs 
    atoms 7-14 entry H          line    36 file /home/xy3866/psi4conda/share/psi4/basis/aug-cc-pvtz.gbs 


         ---------------------------------------------------------
                                   SCF
               by Justin Turney, Rob Parrish, Andy Simmonett
                          and Daniel G. A. Smith
                              RHF Reference
                        8 Threads,  30517 MiB Core
         ---------------------------------------------------------

  ==> Geometry <==

    Molecular point group: c1
    Full point group: C1

    Geometry (in Angstrom), charge = 0, multiplicity = 1:

       Center              X                  Y                   Z               Mass       
    ------------   -----------------  -----------------  -----------------  -----------------
         O           -0.130711100057     1.476426640880    -0.172711894073    15.994914619570
         O            2.030967899943    -0.264377359120     0.367798105927    15.994914619570
         C           -0.323829000057     0.105906540880    -0.196770394073    12.000000000000
         C           -1.286342100057    -0.439371359120     0.926870105927    12.000000000000
         C           -1.654472100057    -0.415941359120    -0.542878894073    12.000000000000
         C            0.929943899943    -0.689144359120    -0.440928894073    12.000000000000
         H           -1.765460100057     0.295592640880     1.565628105927     1.007825032230
         H           -1.081931100057    -1.396078359120     1.397508105927     1.007825032230
         H           -1.709398100057    -1.358080359120    -1.080456894073     1.007825032230
         H           -2.357292100057     0.343298640880    -0.867481894073     1.007825032230
         H            1.157451899943    -0.555048359120    -1.507659894073     1.007825032230
         H            0.793539899943    -1.757466359120    -0.250870894073     1.007825032230
         H            0.293748899943     1.728652640880     0.666848105927     1.007825032230
         H            2.309750899943     0.591602640880     0.001184105927     1.007825032230

  Running in c1 symmetry.

  Rotational constants: A =      0.19745  B =      0.09404  C =      0.08099 [cm^-1]
  Rotational constants: A =   5919.47920  B =   2819.37176  C =   2427.88516 [MHz]
  Nuclear repulsion =  251.866217847096351

  Charge       = 0
  Multiplicity = 1
  Electrons    = 48
  Nalpha       = 24
  Nbeta        = 24

  ==> Algorithm <==

  SCF Algorithm Type is DF.
  DIIS enabled.
  MOM disabled.
  Fractional occupation disabled.
  Guess Type is SAD.
  Energy threshold   = 1.00e-10
  Density threshold  = 1.00e-10
  Integral threshold = 0.00e+00

  ==> Primary Basis <==

  Basis Set: AUG-CC-PVTZ
    Blend: AUG-CC-PVTZ
    Number of shells: 156
    Number of basis function: 460
    Number of Cartesian functions: 530
    Spherical Harmonics?: true
    Max angular momentum: 3

   => Loading Basis Set <=

    Name: (AUG-CC-PVTZ AUX)
    Role: JKFIT
    Keyword: DF_BASIS_SCF
    atoms 1-2  entry O          line   286 file /home/xy3866/psi4conda/share/psi4/basis/aug-cc-pvtz-jkfit.gbs 
    atoms 3-6  entry C          line   162 file /home/xy3866/psi4conda/share/psi4/basis/aug-cc-pvtz-jkfit.gbs 
    atoms 7-14 entry H          line    70 file /home/xy3866/psi4conda/share/psi4/basis/aug-cc-pvtz-jkfit.gbs 

  ==> Pre-Iterations <==

   -------------------------------------------------------
    Irrep   Nso     Nmo     Nalpha   Nbeta   Ndocc  Nsocc
   -------------------------------------------------------
     A        460     460       0       0       0       0
   -------------------------------------------------------
    Total     460     460      24      24      24       0
   -------------------------------------------------------

  ==> Integral Setup <==

  DFHelper Memory: AOs need 1.606 GiB; user supplied 22.352 GiB. Using in-core AOs.

  ==> MemDFJK: Density-Fitted J/K Matrices <==

    J tasked:                   Yes
    K tasked:                   Yes
    wK tasked:                   No
    OpenMP threads:               8
    Memory [MiB]:             22888
    Algorithm:                 Core
    Schwarz Cutoff:           1E-12
    Mask sparsity (%):       1.3336
    Fitting Condition:        1E-10

   => Auxiliary Basis Set <=

  Basis Set: (AUG-CC-PVTZ AUX)
    Blend: AUG-CC-PVTZ-JKFIT
    Number of shells: 292
    Number of basis function: 992
    Number of Cartesian functions: 1226
    Spherical Harmonics?: true
    Max angular momentum: 4

  Minimum eigenvalue in the overlap matrix is 5.0270760946E-06.
  Using Symmetric Orthogonalization.

  SCF Guess: Superposition of Atomic Densities via on-the-fly atomic UHF.

  ==> Iterations <==

                           Total Energy        Delta E     RMS |[F,P]|

   @DF-RHF iter SAD:  -305.33051390464618   -3.05331e+02   0.00000e+00 
   @DF-RHF iter   1:  -305.69659917295337   -3.66085e-01   1.40836e-03 DIIS
   @DF-RHF iter   2:  -305.87117997582556   -1.74581e-01   7.33540e-04 DIIS
   @DF-RHF iter   3:  -305.91375975907306   -4.25798e-02   1.22020e-04 DIIS
   @DF-RHF iter   4:  -305.91611802449461   -2.35827e-03   4.17066e-05 DIIS
   @DF-RHF iter   5:  -305.91632871336992   -2.10689e-04   1.02470e-05 DIIS
   @DF-RHF iter   6:  -305.91634789071838   -1.91773e-05   3.07701e-06 DIIS
   @DF-RHF iter   7:  -305.91634996608826   -2.07537e-06   9.55653e-07 DIIS
   @DF-RHF iter   8:  -305.91635018289861   -2.16810e-07   2.97876e-07 DIIS
   @DF-RHF iter   9:  -305.91635020619515   -2.32965e-08   8.25038e-08 DIIS
   @DF-RHF iter  10:  -305.91635020756530   -1.37015e-09   3.16842e-08 DIIS
   @DF-RHF iter  11:  -305.91635020774447   -1.79170e-10   7.89213e-09 DIIS
   @DF-RHF iter  12:  -305.91635020775840   -1.39266e-11   2.81928e-09 DIIS
   @DF-RHF iter  13:  -305.91635020776164   -3.24007e-12   9.73187e-10 DIIS
   @DF-RHF iter  14:  -305.91635020776130    3.41061e-13   2.60497e-10 DIIS
   @DF-RHF iter  15:  -305.91635020776164   -3.41061e-13   6.99973e-11 DIIS
  Energy and wave function converged.


  ==> Post-Iterations <==

    Orbital Energies [Eh]
    ---------------------

    Doubly Occupied:                                                      

       1A    -20.572904     2A    -20.566157     3A    -11.293015  
       4A    -11.282251     5A    -11.235573     6A    -11.226343  
       7A     -1.391234     8A     -1.355640     9A     -1.129606  
      10A     -0.953325    11A     -0.835826    12A     -0.792825  
      13A     -0.710063    14A     -0.692533    15A     -0.655446  
      16A     -0.638161    17A     -0.587312    18A     -0.569236  
      19A     -0.534198    20A     -0.519960    21A     -0.506838  
      22A     -0.474246    23A     -0.429522    24A     -0.375932  

    Virtual:                                                              

      25A      0.029986    26A      0.035735    27A      0.037142  
      28A      0.042208    29A      0.055413    30A      0.057503  
      31A      0.060096    32A      0.066679    33A      0.095067  
      34A      0.103660    35A      0.113231    36A      0.117663  
      37A      0.121302    38A      0.125348    39A      0.127814  
      40A      0.134779    41A      0.135753    42A      0.141274  
      43A      0.154636    44A      0.156409    45A      0.166626  
      46A      0.175856    47A      0.189102    48A      0.196619  
      49A      0.202023    50A      0.210711    51A      0.226381  
      52A      0.235459    53A      0.242288    54A      0.257946  
      55A      0.262975    56A      0.268241    57A      0.271295  
      58A      0.278725    59A      0.289170    60A      0.296236  
      61A      0.299668    62A      0.306195    63A      0.322972  
      64A      0.328287    65A      0.333856    66A      0.337046  
      67A      0.345806    68A      0.347520    69A      0.364773  
      70A      0.368269    71A      0.374414    72A      0.381667  
      73A      0.383301    74A      0.388410    75A      0.398653  
      76A      0.403167    77A      0.411691    78A      0.419818  
      79A      0.422034    80A      0.432678    81A      0.433451  
      82A      0.441056    83A      0.444345    84A      0.452871  
      85A      0.457103    86A      0.465674    87A      0.474431  
      88A      0.483514    89A      0.488300    90A      0.493280  
      91A      0.494915    92A      0.502942    93A      0.513030  
      94A      0.518965    95A      0.524900    96A      0.532644  
      97A      0.537545    98A      0.542628    99A      0.557903  
     100A      0.564485   101A      0.568117   102A      0.577190  
     103A      0.597694   104A      0.600031   105A      0.606132  
     106A      0.610641   107A      0.617260   108A      0.643319  
     109A      0.646525   110A      0.661198   111A      0.666148  
     112A      0.684513   113A      0.699441   114A      0.710891  
     115A      0.719715   116A      0.730271   117A      0.736866  
     118A      0.756751   119A      0.765782   120A      0.772430  
     121A      0.777786   122A      0.799030   123A      0.810968  
     124A      0.820150   125A      0.837243   126A      0.852858  
     127A      0.858547   128A      0.870846   129A      0.882458  
     130A      0.889419   131A      0.899785   132A      0.905423  
     133A      0.915781   134A      0.928790   135A      0.932897  
     136A      0.944814   137A      0.946378   138A      0.950938  
     139A      0.973213   140A      0.978025   141A      0.988625  
     142A      0.999465   143A      1.008178   144A      1.013894  
     145A      1.016440   146A      1.022068   147A      1.028791  
     148A      1.038071   149A      1.048425   150A      1.058447  
     151A      1.063450   152A      1.077131   153A      1.082827  
     154A      1.097513   155A      1.098827   156A      1.110566  
     157A      1.116834   158A      1.122352   159A      1.135233  
     160A      1.138860   161A      1.147263   162A      1.169831  
     163A      1.172687   164A      1.187741   165A      1.192805  
     166A      1.195097   167A      1.214525   168A      1.219003  
     169A      1.232876   170A      1.246040   171A      1.266996  
     172A      1.272084   173A      1.275620   174A      1.289261  
     175A      1.297347   176A      1.308680   177A      1.318132  
     178A      1.319408   179A      1.332124   180A      1.342209  
     181A      1.356669   182A      1.376017   183A      1.380983  
     184A      1.397562   185A      1.417334   186A      1.428385  
     187A      1.435064   188A      1.449961   189A      1.466033  
     190A      1.468833   191A      1.480351   192A      1.494959  
     193A      1.496418   194A      1.506088   195A      1.526114  
     196A      1.539974   197A      1.561364   198A      1.566894  
     199A      1.573652   200A      1.587178   201A      1.599009  
     202A      1.609607   203A      1.642063   204A      1.645879  
     205A      1.652911   206A      1.664267   207A      1.670289  
     208A      1.677715   209A      1.691749   210A      1.699829  
     211A      1.709707   212A      1.721027   213A      1.738872  
     214A      1.743783   215A      1.761537   216A      1.785295  
     217A      1.797385   218A      1.816272   219A      1.824348  
     220A      1.832868   221A      1.851500   222A      1.860496  
     223A      1.867780   224A      1.899186   225A      1.911312  
     226A      1.916871   227A      1.930601   228A      1.946768  
     229A      1.960341   230A      1.969893   231A      1.992762  
     232A      2.007280   233A      2.011251   234A      2.028494  
     235A      2.048818   236A      2.050832   237A      2.068394  
     238A      2.072396   239A      2.086904   240A      2.094896  
     241A      2.100509   242A      2.117922   243A      2.121769  
     244A      2.161793   245A      2.175554   246A      2.198710  
     247A      2.208980   248A      2.225821   249A      2.245594  
     250A      2.253148   251A      2.268997   252A      2.300677  
     253A      2.316099   254A      2.322433   255A      2.366364  
     256A      2.383164   257A      2.404483   258A      2.429399  
     259A      2.464444   260A      2.479205   261A      2.488920  
     262A      2.527386   263A      2.534648   264A      2.569714  
     265A      2.598856   266A      2.637250   267A      2.657458  
     268A      2.665253   269A      2.694464   270A      2.723358  
     271A      2.738394   272A      2.757682   273A      2.787808  
     274A      2.832457   275A      2.843455   276A      2.860415  
     277A      2.893245   278A      2.900674   279A      2.938107  
     280A      2.945493   281A      2.982674   282A      2.995517  
     283A      3.038532   284A      3.077458   285A      3.092115  
     286A      3.114253   287A      3.124249   288A      3.147763  
     289A      3.169583   290A      3.207616   291A      3.217722  
     292A      3.257586   293A      3.305666   294A      3.339703  
     295A      3.359428   296A      3.399490   297A      3.474826  
     298A      3.502880   299A      3.525805   300A      3.533199  
     301A      3.558604   302A      3.578206   303A      3.589480  
     304A      3.601148   305A      3.648776   306A      3.660807  
     307A      3.673524   308A      3.700405   309A      3.701259  
     310A      3.732728   311A      3.736307   312A      3.769260  
     313A      3.773812   314A      3.791517   315A      3.804916  
     316A      3.829800   317A      3.839216   318A      3.863688  
     319A      3.905166   320A      3.910619   321A      3.919472  
     322A      3.927598   323A      3.938027   324A      3.958424  
     325A      3.972691   326A      4.008063   327A      4.023152  
     328A      4.026040   329A      4.067934   330A      4.084710  
     331A      4.117752   332A      4.123897   333A      4.150874  
     334A      4.154553   335A      4.162346   336A      4.176846  
     337A      4.188647   338A      4.211916   339A      4.227186  
     340A      4.243375   341A      4.264113   342A      4.299687  
     343A      4.305228   344A      4.325974   345A      4.347878  
     346A      4.353591   347A      4.374170   348A      4.391709  
     349A      4.412617   350A      4.454072   351A      4.461958  
     352A      4.472029   353A      4.495625   354A      4.501454  
     355A      4.542946   356A      4.557638   357A      4.578858  
     358A      4.597478   359A      4.615522   360A      4.649436  
     361A      4.667706   362A      4.680794   363A      4.704237  
     364A      4.723713   365A      4.751779   366A      4.764926  
     367A      4.806100   368A      4.823990   369A      4.832591  
     370A      4.871723   371A      4.894637   372A      4.899684  
     373A      4.908721   374A      4.924572   375A      4.937248  
     376A      4.970617   377A      4.988919   378A      5.000561  
     379A      5.005245   380A      5.027413   381A      5.046586  
     382A      5.080563   383A      5.120841   384A      5.131177  
     385A      5.141696   386A      5.174973   387A      5.193726  
     388A      5.217459   389A      5.267489   390A      5.287082  
     391A      5.350692   392A      5.367226   393A      5.385812  
     394A      5.424476   395A      5.446715   396A      5.479150  
     397A      5.496729   398A      5.507542   399A      5.524254  
     400A      5.535712   401A      5.556265   402A      5.576456  
     403A      5.599474   404A      5.609995   405A      5.651606  
     406A      5.665884   407A      5.687994   408A      5.690379  
     409A      5.725084   410A      5.745544   411A      5.787795  
     412A      5.862444   413A      5.986293   414A      6.011435  
     415A      6.044192   416A      6.104077   417A      6.159881  
     418A      6.188396   419A      6.192764   420A      6.259658  
     421A      6.328157   422A      6.408097   423A      6.434507  
     424A      6.594042   425A      6.605131   426A      6.667495  
     427A      6.728507   428A      6.761315   429A      6.810689  
     430A      6.872577   431A      6.962261   432A      6.973824  
     433A      7.029578   434A      7.060958   435A      7.109217  
     436A      7.238822   437A      7.316816   438A      7.335409  
     439A      7.354081   440A      7.423454   441A      7.496685  
     442A      7.517328   443A      7.547244   444A      7.565694  
     445A      7.614904   446A      7.689437   447A      7.812941  
     448A      7.907222   449A      7.977521   450A      8.004757  
     451A      8.193527   452A      8.245742   453A      8.535239  
     454A      8.591446   455A     15.909504   456A     16.010979  
     457A     17.493116   458A     17.585287   459A     18.131349  
     460A     20.165449  

    Final Occupation by Irrep:
              A 
    DOCC [    24 ]

  @DF-RHF Final Energy:  -305.91635020776164

   => Energetics <=

    Nuclear Repulsion Energy =            251.8662178470963511
    One-Electron Energy =                -916.9088426682247928
    Two-Electron Energy =                 359.1262746133668315
    Total Energy =                       -305.9163502077616386

Computation Completed

*** tstop() called on node35.bme.utexas.edu at Thu Feb  4 02:51:56 2021
Module time:
	user time   =     101.21 seconds =       1.69 minutes
	system time =       5.66 seconds =       0.09 minutes
	total time  =         15 seconds =       0.25 minutes
Total time:
	user time   =     101.21 seconds =       1.69 minutes
	system time =       5.66 seconds =       0.09 minutes
	total time  =         15 seconds =       0.25 minutes
   => Loading Basis Set <=

    Name: (AUG-CC-PVTZ AUX)
    Role: RIFIT
    Keyword: DF_BASIS_MP2
    atoms 1-2  entry O          line   264 file /home/xy3866/psi4conda/share/psi4/basis/aug-cc-pvtz-ri.gbs 
    atoms 3-6  entry C          line   148 file /home/xy3866/psi4conda/share/psi4/basis/aug-cc-pvtz-ri.gbs 
    atoms 7-14 entry H          line    30 file /home/xy3866/psi4conda/share/psi4/basis/aug-cc-pvtz-ri.gbs 


*** tstart() called on node35.bme.utexas.edu
*** at Thu Feb  4 02:51:56 2021


  //>>>>>>>>>>>>>>>>>>>>>>>>>>>>>>>>>>>//
  //               DFMP2               //
  //<<<<<<<<<<<<<<<<<<<<<<<<<<<<<<<<<<<//

	 --------------------------------------------------------
	                          DF-MP2                         
	      2nd-Order Density-Fitted Moller-Plesset Theory     
	              RMP2 Wavefunction,   8 Threads             
	                                                         
	        Rob Parrish, Justin Turney, Andy Simmonett,      
	           Ed Hohenstein, and C. David Sherrill          
	 --------------------------------------------------------

   => Auxiliary Basis Set <=

  Basis Set: (AUG-CC-PVTZ AUX)
    Blend: AUG-CC-PVTZ-RI
    Number of shells: 280
    Number of basis function: 1004
    Number of Cartesian functions: 1256
    Spherical Harmonics?: true
    Max angular momentum: 4

	 --------------------------------------------------------
	                 NBF =   460, NAUX =  1004
	 --------------------------------------------------------
	   CLASS    FOCC     OCC    AOCC    AVIR     VIR    FVIR
	   PAIRS       0      24      24     436     436       0
	 --------------------------------------------------------

  DFHelper Memory: AOs need 1.606 GiB; user supplied 22.352 GiB. Using in-core AOs.


         ------------------------------------------------------------
                                     CPHF                           
                                  Rob Parrish                       
         ------------------------------------------------------------

  ==> Geometry <==

    Molecular point group: c1
    Full point group: C1

    Geometry (in Angstrom), charge = 0, multiplicity = 1:

       Center              X                  Y                   Z               Mass       
    ------------   -----------------  -----------------  -----------------  -----------------
         O           -0.130711100057     1.476426640880    -0.172711894073    15.994914619570
         O            2.030967899943    -0.264377359120     0.367798105927    15.994914619570
         C           -0.323829000057     0.105906540880    -0.196770394073    12.000000000000
         C           -1.286342100057    -0.439371359120     0.926870105927    12.000000000000
         C           -1.654472100057    -0.415941359120    -0.542878894073    12.000000000000
         C            0.929943899943    -0.689144359120    -0.440928894073    12.000000000000
         H           -1.765460100057     0.295592640880     1.565628105927     1.007825032230
         H           -1.081931100057    -1.396078359120     1.397508105927     1.007825032230
         H           -1.709398100057    -1.358080359120    -1.080456894073     1.007825032230
         H           -2.357292100057     0.343298640880    -0.867481894073     1.007825032230
         H            1.157451899943    -0.555048359120    -1.507659894073     1.007825032230
         H            0.793539899943    -1.757466359120    -0.250870894073     1.007825032230
         H            0.293748899943     1.728652640880     0.666848105927     1.007825032230
         H            2.309750899943     0.591602640880     0.001184105927     1.007825032230

  Nuclear repulsion =  251.866217847096351
  Reference energy  = -305.916350207761639

  ==> Basis Set <==

  Basis Set: AUG-CC-PVTZ
    Blend: AUG-CC-PVTZ
    Number of shells: 156
    Number of basis function: 460
    Number of Cartesian functions: 530
    Spherical Harmonics?: true
    Max angular momentum: 3

  ==> CGRSolver (by Rob Parrish) <==

   Number of roots    =         1
   Preconditioning    =    JACOBI
   Convergence cutoff =     1E-06
   Maximum iterations =       100

  ==> CPHFRHamiltonian (by Rob Parrish) <== 

  ==> MemDFJK: Density-Fitted J/K Matrices <==

    J tasked:                   Yes
    K tasked:                   Yes
    wK tasked:                   No
    OpenMP threads:               8
    Memory [MiB]:             22888
    Algorithm:                 Core
    Schwarz Cutoff:           1E-12
    Mask sparsity (%):       1.3336
    Fitting Condition:        1E-10

   => Auxiliary Basis Set <=

  Basis Set: (AUG-CC-PVTZ AUX)
    Blend: AUG-CC-PVTZ-JKFIT
    Number of shells: 292
    Number of basis function: 992
    Number of Cartesian functions: 1226
    Spherical Harmonics?: true
    Max angular momentum: 4

  ==> CPHF Iterations <==

  => Iterations <=

             Iter  Converged  Remaining    Residual
  CGR           1          0          1   7.985E-02
  CGR           2          0          1   1.871E-02
  CGR           3          0          1   7.604E-03
  CGR           4          0          1   1.930E-03
  CGR           5          0          1   5.149E-04
  CGR           6          0          1   1.638E-04
  CGR           7          0          1   4.728E-05
  CGR           8          0          1   1.637E-05
  CGR           9          0          1   5.069E-06
  CGR          10          0          1   1.284E-06
  CGR          11          1          0   4.516E-07

    CGRSolver converged.

	-----------------------------------------------------------
	 ==================> DF-MP2 Energies <==================== 
	-----------------------------------------------------------
	 Reference Energy          =    -305.9163502077616386 [Eh]
	 Singles Energy            =      -0.0000000000000000 [Eh]
	 Same-Spin Energy          =      -0.3048531697805196 [Eh]
	 Opposite-Spin Energy      =      -0.9840548758907820 [Eh]
	 Correlation Energy        =      -1.2889080456713016 [Eh]
	 Total Energy              =    -307.2052582534329304 [Eh]
	-----------------------------------------------------------
	 ================> DF-SCS-MP2 Energies <================== 
	-----------------------------------------------------------
	 SCS Same-Spin Scale       =       0.3333333333333333 [-]
	 SCS Opposite-Spin Scale   =       1.2000000000000000 [-]
	 SCS Same-Spin Energy      =      -0.1016177232601732 [Eh]
	 SCS Opposite-Spin Energy  =      -1.1808658510689383 [Eh]
	 SCS Correlation Energy    =      -1.2824835743291114 [Eh]
	 SCS Total Energy          =    -307.1988337820907304 [Eh]
	-----------------------------------------------------------



Properties will be evaluated at  -0.000000,  -0.000000,   0.000000 [a0]

Properties computed using the MP2 density matrix

  Nuclear Dipole Moment: [e a0]
     X:    -2.2029      Y:    -1.9699      Z:    -0.0697

  Electronic Dipole Moment: [e a0]
     X:     2.0346      Y:     1.9574      Z:    -0.0019

  Dipole Moment: [e a0]
     X:    -0.1683      Y:    -0.0125      Z:    -0.0715     Total:     0.1833

  Dipole Moment: [D]
     X:    -0.4278      Y:    -0.0317      Z:    -0.1818     Total:     0.4659


*** tstop() called on node35.bme.utexas.edu at Thu Feb  4 02:52:48 2021
Module time:
	user time   =     332.10 seconds =       5.54 minutes
	system time =      21.86 seconds =       0.36 minutes
	total time  =         52 seconds =       0.87 minutes
Total time:
	user time   =     434.00 seconds =       7.23 minutes
	system time =      27.57 seconds =       0.46 minutes
	total time  =         67 seconds =       1.12 minutes

    Psi4 stopped on: Thursday, 04 February 2021 02:52AM
    Psi4 wall time for execution: 0:01:08.03

*** Psi4 exiting successfully. Buy a developer a beer!
