
    -----------------------------------------------------------------------
          Psi4: An Open-Source Ab Initio Electronic Structure Package
                               Psi4 1.3.2 release

                         Git: Rev {HEAD} ecbda83 


    R. M. Parrish, L. A. Burns, D. G. A. Smith, A. C. Simmonett,
    A. E. DePrince III, E. G. Hohenstein, U. Bozkaya, A. Yu. Sokolov,
    R. Di Remigio, R. M. Richard, J. F. Gonthier, A. M. James,
    H. R. McAlexander, A. Kumar, M. Saitow, X. Wang, B. P. Pritchard,
    P. Verma, H. F. Schaefer III, K. Patkowski, R. A. King, E. F. Valeev,
    F. A. Evangelista, J. M. Turney, T. D. Crawford, and C. D. Sherrill,
    J. Chem. Theory Comput. 13(7) pp 3185--3197 (2017).
    (doi: 10.1021/acs.jctc.7b00174)


                         Additional Contributions by
    P. Kraus, H. Kruse, M. H. Lechner, M. C. Schieber, R. A. Shaw,
    A. Alenaizan, R. Galvelis, Z. L. Glick, S. Lehtola, and J. P. Misiewicz

    -----------------------------------------------------------------------


    Psi4 started on: Thursday, 04 February 2021 02:48AM

    Process ID: 75082
    Host:       node35.bme.utexas.edu
    PSIDATADIR: /home/xy3866/psi4conda/share/psi4
    Memory:     500.0 MiB
    Threads:    8
    
  ==> Input File <==

--------------------------------------------------------------------------
#psi4
#
memory 32 gb

molecule  {
0 1
  O       -0.1070010     1.5019560    -0.1844920
  O        2.0546780    -0.2388480     0.3560180
  C       -0.3559359     0.1095496    -0.2431965
  C       -1.2626320    -0.4138420     0.9150900
  C       -1.6307620    -0.3904120    -0.5546590
  C        0.9536540    -0.6636150    -0.4527090
  H       -1.7417500     0.3211220     1.5538480
  H       -1.0582210    -1.3705490     1.3857280
  H       -1.6856880    -1.3325510    -1.0922370
  H       -2.3335820     0.3688280    -0.8792620
  H        1.1811620    -0.5295190    -1.5194400
  H        0.8172500    -1.7319370    -0.2626510
  H        0.3174590     1.7541820     0.6550680
  H        2.3334610     0.6171320    -0.0105960
units angstrom
no_reorient  #important for SAPT in psi4, default
symmetry c1  #important for SAPT in psi4, default
}

set PROPERTIES_ORIGIN ["COM"]
properties('MP2/aug-cc-pvtz', properties = ['dipole'])
--------------------------------------------------------------------------

  Memory set to  29.802 GiB by Python driver.
    SCF Algorithm Type (re)set to DF.

*** tstart() called on node35.bme.utexas.edu
*** at Thu Feb  4 02:48:02 2021

   => Loading Basis Set <=

    Name: AUG-CC-PVTZ
    Role: ORBITAL
    Keyword: BASIS
    atoms 1-2  entry O          line   327 file /home/xy3866/psi4conda/share/psi4/basis/aug-cc-pvtz.gbs 
    atoms 3-6  entry C          line   235 file /home/xy3866/psi4conda/share/psi4/basis/aug-cc-pvtz.gbs 
    atoms 7-14 entry H          line    36 file /home/xy3866/psi4conda/share/psi4/basis/aug-cc-pvtz.gbs 


         ---------------------------------------------------------
                                   SCF
               by Justin Turney, Rob Parrish, Andy Simmonett
                          and Daniel G. A. Smith
                              RHF Reference
                        8 Threads,  30517 MiB Core
         ---------------------------------------------------------

  ==> Geometry <==

    Molecular point group: c1
    Full point group: C1

    Geometry (in Angstrom), charge = 0, multiplicity = 1:

       Center              X                  Y                   Z               Mass       
    ------------   -----------------  -----------------  -----------------  -----------------
         O           -0.123104223065     1.479409359261    -0.167990252633    15.994914619570
         O            2.038574776935    -0.261394640739     0.372519747367    15.994914619570
         C           -0.372039123065     0.087002959261    -0.226694752633    12.000000000000
         C           -1.278735223065    -0.436388640739     0.931591747367    12.000000000000
         C           -1.646865223065    -0.412958640739    -0.538157252633    12.000000000000
         C            0.937550776935    -0.686161640739    -0.436207252633    12.000000000000
         H           -1.757853223065     0.298575359261     1.570349747367     1.007825032230
         H           -1.074324223065    -1.393095640739     1.402229747367     1.007825032230
         H           -1.701791223065    -1.355097640739    -1.075735252633     1.007825032230
         H           -2.349685223065     0.346281359261    -0.862760252633     1.007825032230
         H            1.165058776935    -0.552065640739    -1.502938252633     1.007825032230
         H            0.801146776935    -1.754483640739    -0.246149252633     1.007825032230
         H            0.301355776935     1.731635359261     0.671569747367     1.007825032230
         H            2.317357776935     0.594585359261     0.005905747367     1.007825032230

  Running in c1 symmetry.

  Rotational constants: A =      0.19719  B =      0.09371  C =      0.08082 [cm^-1]
  Rotational constants: A =   5911.53291  B =   2809.30148  C =   2422.93049 [MHz]
  Nuclear repulsion =  251.704290208093710

  Charge       = 0
  Multiplicity = 1
  Electrons    = 48
  Nalpha       = 24
  Nbeta        = 24

  ==> Algorithm <==

  SCF Algorithm Type is DF.
  DIIS enabled.
  MOM disabled.
  Fractional occupation disabled.
  Guess Type is SAD.
  Energy threshold   = 1.00e-10
  Density threshold  = 1.00e-10
  Integral threshold = 0.00e+00

  ==> Primary Basis <==

  Basis Set: AUG-CC-PVTZ
    Blend: AUG-CC-PVTZ
    Number of shells: 156
    Number of basis function: 460
    Number of Cartesian functions: 530
    Spherical Harmonics?: true
    Max angular momentum: 3

   => Loading Basis Set <=

    Name: (AUG-CC-PVTZ AUX)
    Role: JKFIT
    Keyword: DF_BASIS_SCF
    atoms 1-2  entry O          line   286 file /home/xy3866/psi4conda/share/psi4/basis/aug-cc-pvtz-jkfit.gbs 
    atoms 3-6  entry C          line   162 file /home/xy3866/psi4conda/share/psi4/basis/aug-cc-pvtz-jkfit.gbs 
    atoms 7-14 entry H          line    70 file /home/xy3866/psi4conda/share/psi4/basis/aug-cc-pvtz-jkfit.gbs 

  ==> Pre-Iterations <==

   -------------------------------------------------------
    Irrep   Nso     Nmo     Nalpha   Nbeta   Ndocc  Nsocc
   -------------------------------------------------------
     A        460     460       0       0       0       0
   -------------------------------------------------------
    Total     460     460      24      24      24       0
   -------------------------------------------------------

  ==> Integral Setup <==

  DFHelper Memory: AOs need 1.606 GiB; user supplied 22.352 GiB. Using in-core AOs.

  ==> MemDFJK: Density-Fitted J/K Matrices <==

    J tasked:                   Yes
    K tasked:                   Yes
    wK tasked:                   No
    OpenMP threads:               8
    Memory [MiB]:             22888
    Algorithm:                 Core
    Schwarz Cutoff:           1E-12
    Mask sparsity (%):       1.3336
    Fitting Condition:        1E-10

   => Auxiliary Basis Set <=

  Basis Set: (AUG-CC-PVTZ AUX)
    Blend: AUG-CC-PVTZ-JKFIT
    Number of shells: 292
    Number of basis function: 992
    Number of Cartesian functions: 1226
    Spherical Harmonics?: true
    Max angular momentum: 4

  Minimum eigenvalue in the overlap matrix is 4.4958293863E-06.
  Using Symmetric Orthogonalization.

  SCF Guess: Superposition of Atomic Densities via on-the-fly atomic UHF.

  ==> Iterations <==

                           Total Energy        Delta E     RMS |[F,P]|

   @DF-RHF iter SAD:  -305.33136537410178   -3.05331e+02   0.00000e+00 
   @DF-RHF iter   1:  -305.68628580319086   -3.54920e-01   1.41758e-03 DIIS
   @DF-RHF iter   2:  -305.86159631936408   -1.75311e-01   7.42619e-04 DIIS
   @DF-RHF iter   3:  -305.90521745436831   -4.36211e-02   1.22204e-04 DIIS
   @DF-RHF iter   4:  -305.90757996167224   -2.36251e-03   4.13570e-05 DIIS
   @DF-RHF iter   5:  -305.90778936964995   -2.09408e-04   1.03047e-05 DIIS
   @DF-RHF iter   6:  -305.90780829378696   -1.89241e-05   3.14528e-06 DIIS
   @DF-RHF iter   7:  -305.90781040802460   -2.11424e-06   9.79957e-07 DIIS
   @DF-RHF iter   8:  -305.90781063637957   -2.28355e-07   2.99645e-07 DIIS
   @DF-RHF iter   9:  -305.90781066123930   -2.48597e-08   7.57073e-08 DIIS
   @DF-RHF iter  10:  -305.90781066256392   -1.32462e-09   2.87289e-08 DIIS
   @DF-RHF iter  11:  -305.90781066271745   -1.53534e-10   7.54415e-09 DIIS
   @DF-RHF iter  12:  -305.90781066273308   -1.56319e-11   2.80338e-09 DIIS
   @DF-RHF iter  13:  -305.90781066273411   -1.02318e-12   9.82305e-10 DIIS
   @DF-RHF iter  14:  -305.90781066273422   -1.13687e-13   2.67129e-10 DIIS
   @DF-RHF iter  15:  -305.90781066273433   -1.13687e-13   7.07595e-11 DIIS
  Energy and wave function converged.


  ==> Post-Iterations <==

    Orbital Energies [Eh]
    ---------------------

    Doubly Occupied:                                                      

       1A    -20.568393     2A    -20.568259     3A    -11.294687  
       4A    -11.284848     5A    -11.235984     6A    -11.224252  
       7A     -1.380290     8A     -1.352896     9A     -1.146908  
      10A     -0.949307    11A     -0.841395    12A     -0.788504  
      13A     -0.709297    14A     -0.693832    15A     -0.656226  
      16A     -0.634622    17A     -0.589441    18A     -0.559142  
      19A     -0.534134    20A     -0.519899    21A     -0.504942  
      22A     -0.476464    23A     -0.440649    24A     -0.373438  

    Virtual:                                                              

      25A      0.030110    26A      0.035541    27A      0.037256  
      28A      0.042110    29A      0.055526    30A      0.057540  
      31A      0.060010    32A      0.066663    33A      0.094625  
      34A      0.103284    35A      0.112857    36A      0.117627  
      37A      0.122017    38A      0.125292    39A      0.128142  
      40A      0.135285    41A      0.135777    42A      0.141911  
      43A      0.153755    44A      0.156574    45A      0.166104  
      46A      0.176093    47A      0.188054    48A      0.195695  
      49A      0.202460    50A      0.208800    51A      0.226810  
      52A      0.233793    53A      0.243155    54A      0.257598  
      55A      0.262570    56A      0.267392    57A      0.272610  
      58A      0.276643    59A      0.290151    60A      0.296115  
      61A      0.299100    62A      0.306904    63A      0.323040  
      64A      0.327767    65A      0.331743    66A      0.338480  
      67A      0.345839    68A      0.346067    69A      0.364340  
      70A      0.368125    71A      0.373715    72A      0.382398  
      73A      0.383897    74A      0.388478    75A      0.398118  
      76A      0.401828    77A      0.409597    78A      0.420113  
      79A      0.422431    80A      0.432237    81A      0.432570  
      82A      0.441142    83A      0.444976    84A      0.453557  
      85A      0.457152    86A      0.466659    87A      0.473920  
      88A      0.483211    89A      0.488461    90A      0.491738  
      91A      0.495412    92A      0.501806    93A      0.513576  
      94A      0.518757    95A      0.524289    96A      0.533846  
      97A      0.537681    98A      0.541716    99A      0.559048  
     100A      0.562507   101A      0.563027   102A      0.574316  
     103A      0.596300   104A      0.598535   105A      0.606423  
     106A      0.608693   107A      0.617232   108A      0.641844  
     109A      0.649720   110A      0.664569   111A      0.669606  
     112A      0.679155   113A      0.695225   114A      0.709060  
     115A      0.721790   116A      0.730722   117A      0.740701  
     118A      0.758414   119A      0.766834   120A      0.774146  
     121A      0.783598   122A      0.797575   123A      0.808720  
     124A      0.820624   125A      0.836878   126A      0.852570  
     127A      0.857212   128A      0.872048   129A      0.883628  
     130A      0.886393   131A      0.900027   132A      0.903256  
     133A      0.916240   134A      0.927331   135A      0.931914  
     136A      0.944182   137A      0.946355   138A      0.954250  
     139A      0.974947   140A      0.978420   141A      0.989084  
     142A      1.001625   143A      1.006977   144A      1.014821  
     145A      1.016881   146A      1.025588   147A      1.027955  
     148A      1.038633   149A      1.044910   150A      1.059206  
     151A      1.064354   152A      1.076805   153A      1.080122  
     154A      1.096726   155A      1.100180   156A      1.107806  
     157A      1.115051   158A      1.122785   159A      1.137202  
     160A      1.139824   161A      1.147534   162A      1.170504  
     163A      1.176033   164A      1.186277   165A      1.192411  
     166A      1.193830   167A      1.212521   168A      1.218544  
     169A      1.233471   170A      1.246264   171A      1.268470  
     172A      1.271547   173A      1.275586   174A      1.287591  
     175A      1.296303   176A      1.307992   177A      1.318438  
     178A      1.319500   179A      1.330832   180A      1.340711  
     181A      1.357582   182A      1.376526   183A      1.377828  
     184A      1.395093   185A      1.416484   186A      1.427344  
     187A      1.433470   188A      1.453940   189A      1.464374  
     190A      1.465875   191A      1.480476   192A      1.492343  
     193A      1.496280   194A      1.504987   195A      1.529264  
     196A      1.537979   197A      1.555056   198A      1.570441  
     199A      1.574807   200A      1.592861   201A      1.601110  
     202A      1.612734   203A      1.639518   204A      1.648543  
     205A      1.656381   206A      1.663744   207A      1.670144  
     208A      1.678226   209A      1.693822   210A      1.694556  
     211A      1.710038   212A      1.722693   213A      1.743622  
     214A      1.746423   215A      1.767162   216A      1.786524  
     217A      1.795751   218A      1.814057   219A      1.821127  
     220A      1.825352   221A      1.846994   222A      1.856994  
     223A      1.868401   224A      1.897702   225A      1.908170  
     226A      1.917762   227A      1.926390   228A      1.945979  
     229A      1.962428   230A      1.965088   231A      1.993092  
     232A      2.005096   233A      2.009033   234A      2.029729  
     235A      2.047639   236A      2.052424   237A      2.069299  
     238A      2.071989   239A      2.087439   240A      2.092684  
     241A      2.107248   242A      2.116179   243A      2.121674  
     244A      2.162510   245A      2.182307   246A      2.196586  
     247A      2.207622   248A      2.225892   249A      2.246572  
     250A      2.251232   251A      2.263664   252A      2.291752  
     253A      2.312053   254A      2.318525   255A      2.362062  
     256A      2.380059   257A      2.403886   258A      2.428549  
     259A      2.463937   260A      2.475483   261A      2.486707  
     262A      2.528701   263A      2.539581   264A      2.577747  
     265A      2.595725   266A      2.634738   267A      2.656194  
     268A      2.669426   269A      2.697252   270A      2.713217  
     271A      2.735900   272A      2.754886   273A      2.788582  
     274A      2.830159   275A      2.847314   276A      2.875554  
     277A      2.898229   278A      2.899725   279A      2.929861  
     280A      2.943746   281A      2.970229   282A      2.997062  
     283A      3.035102   284A      3.068114   285A      3.092152  
     286A      3.115142   287A      3.130560   288A      3.151020  
     289A      3.161493   290A      3.209899   291A      3.231426  
     292A      3.268357   293A      3.306152   294A      3.331544  
     295A      3.351183   296A      3.401600   297A      3.475152  
     298A      3.500907   299A      3.521903   300A      3.534810  
     301A      3.562622   302A      3.576016   303A      3.581811  
     304A      3.612145   305A      3.643200   306A      3.649145  
     307A      3.677613   308A      3.703923   309A      3.708167  
     310A      3.742532   311A      3.744762   312A      3.761026  
     313A      3.764145   314A      3.789389   315A      3.802920  
     316A      3.823506   317A      3.846875   318A      3.867076  
     319A      3.905019   320A      3.907456   321A      3.916582  
     322A      3.935138   323A      3.939657   324A      3.961382  
     325A      3.964701   326A      4.008361   327A      4.022339  
     328A      4.036917   329A      4.066450   330A      4.084781  
     331A      4.116345   332A      4.119679   333A      4.152096  
     334A      4.153685   335A      4.168785   336A      4.175819  
     337A      4.182420   338A      4.209467   339A      4.223439  
     340A      4.244257   341A      4.269286   342A      4.295134  
     343A      4.309545   344A      4.323065   345A      4.347277  
     346A      4.363028   347A      4.374914   348A      4.393014  
     349A      4.415322   350A      4.450295   351A      4.464539  
     352A      4.471682   353A      4.489228   354A      4.501266  
     355A      4.544680   356A      4.559344   357A      4.580416  
     358A      4.591137   359A      4.627238   360A      4.649461  
     361A      4.665097   362A      4.691674   363A      4.717458  
     364A      4.726121   365A      4.758437   366A      4.768148  
     367A      4.793513   368A      4.831380   369A      4.839650  
     370A      4.859659   371A      4.883045   372A      4.903464  
     373A      4.911491   374A      4.925522   375A      4.938186  
     376A      4.977852   377A      4.990545   378A      5.000860  
     379A      5.010419   380A      5.029321   381A      5.047517  
     382A      5.082760   383A      5.125047   384A      5.133883  
     385A      5.149914   386A      5.176328   387A      5.188325  
     388A      5.207863   389A      5.267326   390A      5.279445  
     391A      5.343150   392A      5.374224   393A      5.396774  
     394A      5.431568   395A      5.459089   396A      5.474505  
     397A      5.504206   398A      5.513085   399A      5.526573  
     400A      5.540773   401A      5.559661   402A      5.574605  
     403A      5.598329   404A      5.623316   405A      5.665661  
     406A      5.674040   407A      5.688474   408A      5.693773  
     409A      5.725271   410A      5.758774   411A      5.791896  
     412A      5.863933   413A      6.005518   414A      6.025257  
     415A      6.033575   416A      6.117518   417A      6.162045  
     418A      6.182562   419A      6.184368   420A      6.244076  
     421A      6.331109   422A      6.407063   423A      6.427524  
     424A      6.596516   425A      6.646648   426A      6.669594  
     427A      6.729130   428A      6.763334   429A      6.815336  
     430A      6.876431   431A      6.962673   432A      6.970619  
     433A      7.026368   434A      7.050630   435A      7.110050  
     436A      7.220072   437A      7.316737   438A      7.334642  
     439A      7.353444   440A      7.433612   441A      7.489948  
     442A      7.497662   443A      7.514599   444A      7.549227  
     445A      7.613531   446A      7.680930   447A      7.800757  
     448A      7.897097   449A      7.960371   450A      8.002680  
     451A      8.193522   452A      8.257130   453A      8.528167  
     454A      8.580452   455A     15.953030   456A     16.033780  
     457A     17.423310   458A     17.618191   459A     18.406758  
     460A     20.174687  

    Final Occupation by Irrep:
              A 
    DOCC [    24 ]

  @DF-RHF Final Energy:  -305.90781066273433

   => Energetics <=

    Nuclear Repulsion Energy =            251.7042902080937097
    One-Electron Energy =                -916.5685842817257480
    Two-Electron Energy =                 358.9564834108976470
    Total Energy =                       -305.9078106627343345

Computation Completed

*** tstop() called on node35.bme.utexas.edu at Thu Feb  4 02:48:19 2021
Module time:
	user time   =     109.16 seconds =       1.82 minutes
	system time =      10.07 seconds =       0.17 minutes
	total time  =         17 seconds =       0.28 minutes
Total time:
	user time   =     109.16 seconds =       1.82 minutes
	system time =      10.07 seconds =       0.17 minutes
	total time  =         17 seconds =       0.28 minutes
   => Loading Basis Set <=

    Name: (AUG-CC-PVTZ AUX)
    Role: RIFIT
    Keyword: DF_BASIS_MP2
    atoms 1-2  entry O          line   264 file /home/xy3866/psi4conda/share/psi4/basis/aug-cc-pvtz-ri.gbs 
    atoms 3-6  entry C          line   148 file /home/xy3866/psi4conda/share/psi4/basis/aug-cc-pvtz-ri.gbs 
    atoms 7-14 entry H          line    30 file /home/xy3866/psi4conda/share/psi4/basis/aug-cc-pvtz-ri.gbs 


*** tstart() called on node35.bme.utexas.edu
*** at Thu Feb  4 02:48:19 2021


  //>>>>>>>>>>>>>>>>>>>>>>>>>>>>>>>>>>>//
  //               DFMP2               //
  //<<<<<<<<<<<<<<<<<<<<<<<<<<<<<<<<<<<//

	 --------------------------------------------------------
	                          DF-MP2                         
	      2nd-Order Density-Fitted Moller-Plesset Theory     
	              RMP2 Wavefunction,   8 Threads             
	                                                         
	        Rob Parrish, Justin Turney, Andy Simmonett,      
	           Ed Hohenstein, and C. David Sherrill          
	 --------------------------------------------------------

   => Auxiliary Basis Set <=

  Basis Set: (AUG-CC-PVTZ AUX)
    Blend: AUG-CC-PVTZ-RI
    Number of shells: 280
    Number of basis function: 1004
    Number of Cartesian functions: 1256
    Spherical Harmonics?: true
    Max angular momentum: 4

	 --------------------------------------------------------
	                 NBF =   460, NAUX =  1004
	 --------------------------------------------------------
	   CLASS    FOCC     OCC    AOCC    AVIR     VIR    FVIR
	   PAIRS       0      24      24     436     436       0
	 --------------------------------------------------------

  DFHelper Memory: AOs need 1.606 GiB; user supplied 22.352 GiB. Using in-core AOs.


         ------------------------------------------------------------
                                     CPHF                           
                                  Rob Parrish                       
         ------------------------------------------------------------

  ==> Geometry <==

    Molecular point group: c1
    Full point group: C1

    Geometry (in Angstrom), charge = 0, multiplicity = 1:

       Center              X                  Y                   Z               Mass       
    ------------   -----------------  -----------------  -----------------  -----------------
         O           -0.123104223065     1.479409359261    -0.167990252633    15.994914619570
         O            2.038574776935    -0.261394640739     0.372519747367    15.994914619570
         C           -0.372039123065     0.087002959261    -0.226694752633    12.000000000000
         C           -1.278735223065    -0.436388640739     0.931591747367    12.000000000000
         C           -1.646865223065    -0.412958640739    -0.538157252633    12.000000000000
         C            0.937550776935    -0.686161640739    -0.436207252633    12.000000000000
         H           -1.757853223065     0.298575359261     1.570349747367     1.007825032230
         H           -1.074324223065    -1.393095640739     1.402229747367     1.007825032230
         H           -1.701791223065    -1.355097640739    -1.075735252633     1.007825032230
         H           -2.349685223065     0.346281359261    -0.862760252633     1.007825032230
         H            1.165058776935    -0.552065640739    -1.502938252633     1.007825032230
         H            0.801146776935    -1.754483640739    -0.246149252633     1.007825032230
         H            0.301355776935     1.731635359261     0.671569747367     1.007825032230
         H            2.317357776935     0.594585359261     0.005905747367     1.007825032230

  Nuclear repulsion =  251.704290208093710
  Reference energy  = -305.907810662734335

  ==> Basis Set <==

  Basis Set: AUG-CC-PVTZ
    Blend: AUG-CC-PVTZ
    Number of shells: 156
    Number of basis function: 460
    Number of Cartesian functions: 530
    Spherical Harmonics?: true
    Max angular momentum: 3

  ==> CGRSolver (by Rob Parrish) <==

   Number of roots    =         1
   Preconditioning    =    JACOBI
   Convergence cutoff =     1E-06
   Maximum iterations =       100

  ==> CPHFRHamiltonian (by Rob Parrish) <== 

  ==> MemDFJK: Density-Fitted J/K Matrices <==

    J tasked:                   Yes
    K tasked:                   Yes
    wK tasked:                   No
    OpenMP threads:               8
    Memory [MiB]:             22888
    Algorithm:                 Core
    Schwarz Cutoff:           1E-12
    Mask sparsity (%):       1.3336
    Fitting Condition:        1E-10

   => Auxiliary Basis Set <=

  Basis Set: (AUG-CC-PVTZ AUX)
    Blend: AUG-CC-PVTZ-JKFIT
    Number of shells: 292
    Number of basis function: 992
    Number of Cartesian functions: 1226
    Spherical Harmonics?: true
    Max angular momentum: 4

  ==> CPHF Iterations <==

  => Iterations <=

             Iter  Converged  Remaining    Residual
  CGR           1          0          1   8.088E-02
  CGR           2          0          1   1.900E-02
  CGR           3          0          1   7.726E-03
  CGR           4          0          1   1.964E-03
  CGR           5          0          1   5.264E-04
  CGR           6          0          1   1.653E-04
  CGR           7          0          1   4.580E-05
  CGR           8          0          1   1.541E-05
  CGR           9          0          1   4.829E-06
  CGR          10          0          1   1.263E-06
  CGR          11          1          0   4.463E-07

    CGRSolver converged.

	-----------------------------------------------------------
	 ==================> DF-MP2 Energies <==================== 
	-----------------------------------------------------------
	 Reference Energy          =    -305.9078106627343345 [Eh]
	 Singles Energy            =      -0.0000000000000000 [Eh]
	 Same-Spin Energy          =      -0.3051538393894528 [Eh]
	 Opposite-Spin Energy      =      -0.9845333864149255 [Eh]
	 Correlation Energy        =      -1.2896872258043783 [Eh]
	 Total Energy              =    -307.1974978885386918 [Eh]
	-----------------------------------------------------------
	 ================> DF-SCS-MP2 Energies <================== 
	-----------------------------------------------------------
	 SCS Same-Spin Scale       =       0.3333333333333333 [-]
	 SCS Opposite-Spin Scale   =       1.2000000000000000 [-]
	 SCS Same-Spin Energy      =      -0.1017179464631509 [Eh]
	 SCS Opposite-Spin Energy  =      -1.1814400636979105 [Eh]
	 SCS Correlation Energy    =      -1.2831580101610616 [Eh]
	 SCS Total Energy          =    -307.1909686728953943 [Eh]
	-----------------------------------------------------------



Properties will be evaluated at  -0.000000,   0.000000,  -0.000000 [a0]

Properties computed using the MP2 density matrix

  Nuclear Dipole Moment: [e a0]
     X:    -2.1458      Y:    -1.9475      Z:    -0.0342

  Electronic Dipole Moment: [e a0]
     X:     1.9581      Y:     1.9003      Z:    -0.0600

  Dipole Moment: [e a0]
     X:    -0.1877      Y:    -0.0473      Z:    -0.0942     Total:     0.2152

  Dipole Moment: [D]
     X:    -0.4770      Y:    -0.1201      Z:    -0.2395     Total:     0.5471


*** tstop() called on node35.bme.utexas.edu at Thu Feb  4 02:49:11 2021
Module time:
	user time   =     331.23 seconds =       5.52 minutes
	system time =      17.77 seconds =       0.30 minutes
	total time  =         52 seconds =       0.87 minutes
Total time:
	user time   =     440.70 seconds =       7.35 minutes
	system time =      27.87 seconds =       0.46 minutes
	total time  =         69 seconds =       1.15 minutes

    Psi4 stopped on: Thursday, 04 February 2021 02:49AM
    Psi4 wall time for execution: 0:01:10.20

*** Psi4 exiting successfully. Buy a developer a beer!
