
    -----------------------------------------------------------------------
          Psi4: An Open-Source Ab Initio Electronic Structure Package
                               Psi4 1.3.2 release

                         Git: Rev {HEAD} ecbda83 


    R. M. Parrish, L. A. Burns, D. G. A. Smith, A. C. Simmonett,
    A. E. DePrince III, E. G. Hohenstein, U. Bozkaya, A. Yu. Sokolov,
    R. Di Remigio, R. M. Richard, J. F. Gonthier, A. M. James,
    H. R. McAlexander, A. Kumar, M. Saitow, X. Wang, B. P. Pritchard,
    P. Verma, H. F. Schaefer III, K. Patkowski, R. A. King, E. F. Valeev,
    F. A. Evangelista, J. M. Turney, T. D. Crawford, and C. D. Sherrill,
    J. Chem. Theory Comput. 13(7) pp 3185--3197 (2017).
    (doi: 10.1021/acs.jctc.7b00174)


                         Additional Contributions by
    P. Kraus, H. Kruse, M. H. Lechner, M. C. Schieber, R. A. Shaw,
    A. Alenaizan, R. Galvelis, Z. L. Glick, S. Lehtola, and J. P. Misiewicz

    -----------------------------------------------------------------------


    Psi4 started on: Thursday, 04 February 2021 02:10AM

    Process ID: 72568
    Host:       node35.bme.utexas.edu
    PSIDATADIR: /home/xy3866/psi4conda/share/psi4
    Memory:     500.0 MiB
    Threads:    8
    
  ==> Input File <==

--------------------------------------------------------------------------
#psi4
#
memory 32 gb

molecule  {
0 1
  O       -0.0600659     1.4940459    -0.1977716
  O        2.0546780    -0.2388480     0.3560180
  C       -0.2955110     0.1009390    -0.1081660
  C       -1.2626320    -0.4138420     0.9150900
  C       -1.6307620    -0.3904120    -0.5546590
  C        0.9536540    -0.6636150    -0.4527090
  H       -1.7417500     0.3211220     1.5538480
  H       -1.0582210    -1.3705490     1.3857280
  H       -1.6856880    -1.3325510    -1.0922370
  H       -2.3335820     0.3688280    -0.8792620
  H        1.1811620    -0.5295190    -1.5194400
  H        0.8172500    -1.7319370    -0.2626510
  H        0.3174590     1.7541820     0.6550680
  H        2.3334610     0.6171320    -0.0105960
units angstrom
no_reorient  #important for SAPT in psi4, default
symmetry c1  #important for SAPT in psi4, default
}

set PROPERTIES_ORIGIN ["COM"]
properties('MP2/aug-cc-pvtz', properties = ['dipole'])
--------------------------------------------------------------------------

  Memory set to  29.802 GiB by Python driver.
    SCF Algorithm Type (re)set to DF.

*** tstart() called on node35.bme.utexas.edu
*** at Thu Feb  4 02:10:50 2021

   => Loading Basis Set <=

    Name: AUG-CC-PVTZ
    Role: ORBITAL
    Keyword: BASIS
    atoms 1-2  entry O          line   327 file /home/xy3866/psi4conda/share/psi4/basis/aug-cc-pvtz.gbs 
    atoms 3-6  entry C          line   235 file /home/xy3866/psi4conda/share/psi4/basis/aug-cc-pvtz.gbs 
    atoms 7-14 entry H          line    36 file /home/xy3866/psi4conda/share/psi4/basis/aug-cc-pvtz.gbs 


         ---------------------------------------------------------
                                   SCF
               by Justin Turney, Rob Parrish, Andy Simmonett
                          and Daniel G. A. Smith
                              RHF Reference
                        8 Threads,  30517 MiB Core
         ---------------------------------------------------------

  ==> Geometry <==

    Molecular point group: c1
    Full point group: C1

    Geometry (in Angstrom), charge = 0, multiplicity = 1:

       Center              X                  Y                   Z               Mass       
    ------------   -----------------  -----------------  -----------------  -----------------
         O           -0.092929838534     1.474109619650    -0.197259870624    15.994914619570
         O            2.021814061466    -0.258784280350     0.356529729376    15.994914619570
         C           -0.328374938534     0.081002719650    -0.107654270624    12.000000000000
         C           -1.295495938534    -0.433778280350     0.915601729376    12.000000000000
         C           -1.663625938534    -0.410348280350    -0.554147270624    12.000000000000
         C            0.920790061466    -0.683551280350    -0.452197270624    12.000000000000
         H           -1.774613938534     0.301185719650     1.554359729376     1.007825032230
         H           -1.091084938534    -1.390485280350     1.386239729376     1.007825032230
         H           -1.718551938534    -1.352487280350    -1.091725270624     1.007825032230
         H           -2.366445938534     0.348891719650    -0.878750270624     1.007825032230
         H            1.148298061466    -0.549455280350    -1.518928270624     1.007825032230
         H            0.784386061466    -1.751873280350    -0.262139270624     1.007825032230
         H            0.284595061466     1.734245719650     0.655579729376     1.007825032230
         H            2.300597061466     0.597195719650    -0.010084270624     1.007825032230

  Running in c1 symmetry.

  Rotational constants: A =      0.19900  B =      0.09434  C =      0.08123 [cm^-1]
  Rotational constants: A =   5965.81198  B =   2828.29177  C =   2435.36352 [MHz]
  Nuclear repulsion =  252.226885320518846

  Charge       = 0
  Multiplicity = 1
  Electrons    = 48
  Nalpha       = 24
  Nbeta        = 24

  ==> Algorithm <==

  SCF Algorithm Type is DF.
  DIIS enabled.
  MOM disabled.
  Fractional occupation disabled.
  Guess Type is SAD.
  Energy threshold   = 1.00e-10
  Density threshold  = 1.00e-10
  Integral threshold = 0.00e+00

  ==> Primary Basis <==

  Basis Set: AUG-CC-PVTZ
    Blend: AUG-CC-PVTZ
    Number of shells: 156
    Number of basis function: 460
    Number of Cartesian functions: 530
    Spherical Harmonics?: true
    Max angular momentum: 3

   => Loading Basis Set <=

    Name: (AUG-CC-PVTZ AUX)
    Role: JKFIT
    Keyword: DF_BASIS_SCF
    atoms 1-2  entry O          line   286 file /home/xy3866/psi4conda/share/psi4/basis/aug-cc-pvtz-jkfit.gbs 
    atoms 3-6  entry C          line   162 file /home/xy3866/psi4conda/share/psi4/basis/aug-cc-pvtz-jkfit.gbs 
    atoms 7-14 entry H          line    70 file /home/xy3866/psi4conda/share/psi4/basis/aug-cc-pvtz-jkfit.gbs 

  ==> Pre-Iterations <==

   -------------------------------------------------------
    Irrep   Nso     Nmo     Nalpha   Nbeta   Ndocc  Nsocc
   -------------------------------------------------------
     A        460     460       0       0       0       0
   -------------------------------------------------------
    Total     460     460      24      24      24       0
   -------------------------------------------------------

  ==> Integral Setup <==

  DFHelper Memory: AOs need 1.606 GiB; user supplied 22.352 GiB. Using in-core AOs.

  ==> MemDFJK: Density-Fitted J/K Matrices <==

    J tasked:                   Yes
    K tasked:                   Yes
    wK tasked:                   No
    OpenMP threads:               8
    Memory [MiB]:             22888
    Algorithm:                 Core
    Schwarz Cutoff:           1E-12
    Mask sparsity (%):       1.3110
    Fitting Condition:        1E-10

   => Auxiliary Basis Set <=

  Basis Set: (AUG-CC-PVTZ AUX)
    Blend: AUG-CC-PVTZ-JKFIT
    Number of shells: 292
    Number of basis function: 992
    Number of Cartesian functions: 1226
    Spherical Harmonics?: true
    Max angular momentum: 4

  Minimum eigenvalue in the overlap matrix is 4.8952359470E-06.
  Using Symmetric Orthogonalization.

  SCF Guess: Superposition of Atomic Densities via on-the-fly atomic UHF.

  ==> Iterations <==

                           Total Energy        Delta E     RMS |[F,P]|

   @DF-RHF iter SAD:  -305.34809778559037   -3.05348e+02   0.00000e+00 
   @DF-RHF iter   1:  -305.70278169095661   -3.54684e-01   1.41100e-03 DIIS
   @DF-RHF iter   2:  -305.87766970393795   -1.74888e-01   7.35935e-04 DIIS
   @DF-RHF iter   3:  -305.92023721841025   -4.25675e-02   1.22253e-04 DIIS
   @DF-RHF iter   4:  -305.92256939249069   -2.33217e-03   4.17412e-05 DIIS
   @DF-RHF iter   5:  -305.92278042283237   -2.11030e-04   1.00078e-05 DIIS
   @DF-RHF iter   6:  -305.92279858766483   -1.81648e-05   3.06475e-06 DIIS
   @DF-RHF iter   7:  -305.92280050725725   -1.91959e-06   9.40490e-07 DIIS
   @DF-RHF iter   8:  -305.92280070585332   -1.98596e-07   2.69513e-07 DIIS
   @DF-RHF iter   9:  -305.92280072513211   -1.92788e-08   6.73009e-08 DIIS
   @DF-RHF iter  10:  -305.92280072608736   -9.55254e-10   2.43440e-08 DIIS
   @DF-RHF iter  11:  -305.92280072619593   -1.08571e-10   5.98528e-09 DIIS
   @DF-RHF iter  12:  -305.92280072620383   -7.90124e-12   2.03368e-09 DIIS
   @DF-RHF iter  13:  -305.92280072620508   -1.25056e-12   7.83880e-10 DIIS
   @DF-RHF iter  14:  -305.92280072620565   -5.68434e-13   2.07879e-10 DIIS
   @DF-RHF iter  15:  -305.92280072620594   -2.84217e-13   5.72546e-11 DIIS
  Energy and wave function converged.


  ==> Post-Iterations <==

    Orbital Energies [Eh]
    ---------------------

    Doubly Occupied:                                                      

       1A    -20.570308     2A    -20.562802     3A    -11.289837  
       4A    -11.280471     5A    -11.232927     6A    -11.231865  
       7A     -1.383676     8A     -1.351141     9A     -1.139999  
      10A     -0.951846    11A     -0.838383    12A     -0.786642  
      13A     -0.701127    14A     -0.694298    15A     -0.659102  
      16A     -0.639268    17A     -0.588497    18A     -0.565991  
      19A     -0.530220    20A     -0.519218    21A     -0.501072  
      22A     -0.472479    23A     -0.415057    24A     -0.408568  

    Virtual:                                                              

      25A      0.029953    26A      0.036106    27A      0.036863  
      28A      0.042232    29A      0.055532    30A      0.057487  
      31A      0.060188    32A      0.066747    33A      0.094061  
      34A      0.105215    35A      0.113477    36A      0.118457  
      37A      0.121265    38A      0.125795    39A      0.127778  
      40A      0.133696    41A      0.136010    42A      0.140642  
      43A      0.154728    44A      0.156330    45A      0.167052  
      46A      0.175597    47A      0.189160    48A      0.198465  
      49A      0.202592    50A      0.214477    51A      0.226564  
      52A      0.234652    53A      0.243304    54A      0.257977  
      55A      0.263483    56A      0.266828    57A      0.271408  
      58A      0.280313    59A      0.288784    60A      0.294770  
      61A      0.301886    62A      0.306487    63A      0.324316  
      64A      0.328818    65A      0.331901    66A      0.334289  
      67A      0.346287    68A      0.348188    69A      0.365114  
      70A      0.369273    71A      0.374945    72A      0.381155  
      73A      0.382231    74A      0.387710    75A      0.399532  
      76A      0.403479    77A      0.412050    78A      0.420701  
      79A      0.423772    80A      0.431424    81A      0.433664  
      82A      0.441320    83A      0.444824    84A      0.453247  
      85A      0.461009    86A      0.467462    87A      0.474109  
      88A      0.484045    89A      0.485578    90A      0.490746  
      91A      0.495372    92A      0.503308    93A      0.514770  
      94A      0.521121    95A      0.523879    96A      0.532608  
      97A      0.537389    98A      0.543906    99A      0.559160  
     100A      0.560445   101A      0.568626   102A      0.578053  
     103A      0.598698   104A      0.602243   105A      0.605625  
     106A      0.612110   107A      0.624992   108A      0.635618  
     109A      0.645152   110A      0.658941   111A      0.665828  
     112A      0.694992   113A      0.705058   114A      0.718604  
     115A      0.722249   116A      0.728435   117A      0.730245  
     118A      0.745497   119A      0.759693   120A      0.771014  
     121A      0.782481   122A      0.801604   123A      0.813490  
     124A      0.821583   125A      0.841911   126A      0.852064  
     127A      0.864231   128A      0.871516   129A      0.884083  
     130A      0.892275   131A      0.898145   132A      0.909300  
     133A      0.921906   134A      0.928023   135A      0.932330  
     136A      0.943727   137A      0.946163   138A      0.956200  
     139A      0.976723   140A      0.981911   141A      0.991660  
     142A      0.998328   143A      1.008579   144A      1.012842  
     145A      1.017519   146A      1.028952   147A      1.030877  
     148A      1.042765   149A      1.054939   150A      1.063349  
     151A      1.067831   152A      1.074119   153A      1.087827  
     154A      1.093570   155A      1.100551   156A      1.116319  
     157A      1.118794   158A      1.124121   159A      1.137481  
     160A      1.139269   161A      1.149469   162A      1.164988  
     163A      1.173391   164A      1.187465   165A      1.192726  
     166A      1.197468   167A      1.217160   168A      1.226686  
     169A      1.230677   170A      1.244017   171A      1.262976  
     172A      1.268176   173A      1.273736   174A      1.285135  
     175A      1.295918   176A      1.298625   177A      1.316498  
     178A      1.328449   179A      1.335664   180A      1.340798  
     181A      1.358495   182A      1.366321   183A      1.386830  
     184A      1.398313   185A      1.416470   186A      1.424647  
     187A      1.438448   188A      1.446051   189A      1.465379  
     190A      1.471236   191A      1.479343   192A      1.494976  
     193A      1.498176   194A      1.513042   195A      1.528909  
     196A      1.549054   197A      1.561990   198A      1.574056  
     199A      1.580688   200A      1.589394   201A      1.607231  
     202A      1.611777   203A      1.639751   204A      1.646365  
     205A      1.653267   206A      1.667711   207A      1.669199  
     208A      1.677194   209A      1.693101   210A      1.697041  
     211A      1.703557   212A      1.721755   213A      1.735722  
     214A      1.742889   215A      1.767814   216A      1.782406  
     217A      1.797580   218A      1.813033   219A      1.827011  
     220A      1.829686   221A      1.853043   222A      1.864035  
     223A      1.876723   224A      1.904347   225A      1.912600  
     226A      1.919078   227A      1.932563   228A      1.946760  
     229A      1.958229   230A      1.972823   231A      1.994310  
     232A      2.004603   233A      2.019214   234A      2.040509  
     235A      2.049169   236A      2.054203   237A      2.066423  
     238A      2.075334   239A      2.089690   240A      2.098879  
     241A      2.107286   242A      2.114585   243A      2.137013  
     244A      2.157443   245A      2.186768   246A      2.204145  
     247A      2.220424   248A      2.225560   249A      2.235345  
     250A      2.259782   251A      2.277124   252A      2.316848  
     253A      2.329522   254A      2.339778   255A      2.373652  
     256A      2.393977   257A      2.398894   258A      2.437472  
     259A      2.474800   260A      2.479201   261A      2.490519  
     262A      2.518515   263A      2.536650   264A      2.557852  
     265A      2.603544   266A      2.630568   267A      2.663893  
     268A      2.678953   269A      2.684475   270A      2.726277  
     271A      2.727711   272A      2.759283   273A      2.790128  
     274A      2.816779   275A      2.853711   276A      2.871544  
     277A      2.893406   278A      2.897861   279A      2.929446  
     280A      2.958050   281A      2.987952   282A      3.012710  
     283A      3.040714   284A      3.077885   285A      3.100491  
     286A      3.121336   287A      3.127757   288A      3.140353  
     289A      3.175202   290A      3.193335   291A      3.228113  
     292A      3.255599   293A      3.305281   294A      3.320152  
     295A      3.351494   296A      3.423479   297A      3.459380  
     298A      3.509827   299A      3.515646   300A      3.534978  
     301A      3.561233   302A      3.575356   303A      3.593901  
     304A      3.599240   305A      3.639394   306A      3.666062  
     307A      3.682045   308A      3.706680   309A      3.709410  
     310A      3.727130   311A      3.733887   312A      3.770879  
     313A      3.790634   314A      3.798128   315A      3.815702  
     316A      3.825981   317A      3.851950   318A      3.857073  
     319A      3.884316   320A      3.914103   321A      3.918097  
     322A      3.927693   323A      3.933213   324A      3.951051  
     325A      3.973569   326A      4.015214   327A      4.024779  
     328A      4.046067   329A      4.075670   330A      4.087294  
     331A      4.111860   332A      4.128193   333A      4.138181  
     334A      4.145879   335A      4.160986   336A      4.175412  
     337A      4.186577   338A      4.209128   339A      4.223587  
     340A      4.258719   341A      4.271733   342A      4.288416  
     343A      4.319243   344A      4.338594   345A      4.350713  
     346A      4.354334   347A      4.378389   348A      4.388782  
     349A      4.416508   350A      4.444823   351A      4.459646  
     352A      4.469137   353A      4.502146   354A      4.528116  
     355A      4.533397   356A      4.559281   357A      4.580224  
     358A      4.599643   359A      4.618362   360A      4.645252  
     361A      4.672045   362A      4.698751   363A      4.707989  
     364A      4.735410   365A      4.755861   366A      4.781862  
     367A      4.819146   368A      4.829019   369A      4.839144  
     370A      4.864993   371A      4.889041   372A      4.895575  
     373A      4.907187   374A      4.937480   375A      4.957842  
     376A      4.967606   377A      4.992369   378A      4.997631  
     379A      5.006821   380A      5.046737   381A      5.052802  
     382A      5.079026   383A      5.097920   384A      5.143916  
     385A      5.148113   386A      5.171799   387A      5.218414  
     388A      5.245087   389A      5.272942   390A      5.293508  
     391A      5.344039   392A      5.383165   393A      5.389527  
     394A      5.406037   395A      5.444491   396A      5.470832  
     397A      5.484267   398A      5.521716   399A      5.536665  
     400A      5.552444   401A      5.571663   402A      5.586580  
     403A      5.601288   404A      5.622491   405A      5.666480  
     406A      5.685661   407A      5.692559   408A      5.719843  
     409A      5.730406   410A      5.757239   411A      5.792994  
     412A      5.859116   413A      5.982842   414A      6.018544  
     415A      6.056236   416A      6.130689   417A      6.157663  
     418A      6.194674   419A      6.223666   420A      6.286667  
     421A      6.355563   422A      6.406996   423A      6.459394  
     424A      6.589595   425A      6.614766   426A      6.667961  
     427A      6.731586   428A      6.750616   429A      6.812695  
     430A      6.868211   431A      6.958269   432A      6.987225  
     433A      7.030426   434A      7.060578   435A      7.121459  
     436A      7.217109   437A      7.318313   438A      7.337797  
     439A      7.363191   440A      7.381684   441A      7.493775  
     442A      7.514626   443A      7.537098   444A      7.566624  
     445A      7.633789   446A      7.724990   447A      7.838761  
     448A      7.904110   449A      7.983275   450A      8.013962  
     451A      8.188267   452A      8.206489   453A      8.537118  
     454A      8.595843   455A     15.944095   456A     16.037957  
     457A     17.379604   458A     17.759319   459A     18.354606  
     460A     20.012385  

    Final Occupation by Irrep:
              A 
    DOCC [    24 ]

  @DF-RHF Final Energy:  -305.92280072620594

   => Energetics <=

    Nuclear Repulsion Energy =            252.2268853205188464
    One-Electron Energy =                -917.6697857320496041
    Two-Electron Energy =                 359.5200996853248512
    Total Energy =                       -305.9228007262059350

Computation Completed

*** tstop() called on node35.bme.utexas.edu at Thu Feb  4 02:11:07 2021
Module time:
	user time   =     113.64 seconds =       1.89 minutes
	system time =       6.69 seconds =       0.11 minutes
	total time  =         17 seconds =       0.28 minutes
Total time:
	user time   =     113.64 seconds =       1.89 minutes
	system time =       6.69 seconds =       0.11 minutes
	total time  =         17 seconds =       0.28 minutes
   => Loading Basis Set <=

    Name: (AUG-CC-PVTZ AUX)
    Role: RIFIT
    Keyword: DF_BASIS_MP2
    atoms 1-2  entry O          line   264 file /home/xy3866/psi4conda/share/psi4/basis/aug-cc-pvtz-ri.gbs 
    atoms 3-6  entry C          line   148 file /home/xy3866/psi4conda/share/psi4/basis/aug-cc-pvtz-ri.gbs 
    atoms 7-14 entry H          line    30 file /home/xy3866/psi4conda/share/psi4/basis/aug-cc-pvtz-ri.gbs 


*** tstart() called on node35.bme.utexas.edu
*** at Thu Feb  4 02:11:07 2021


  //>>>>>>>>>>>>>>>>>>>>>>>>>>>>>>>>>>>//
  //               DFMP2               //
  //<<<<<<<<<<<<<<<<<<<<<<<<<<<<<<<<<<<//

	 --------------------------------------------------------
	                          DF-MP2                         
	      2nd-Order Density-Fitted Moller-Plesset Theory     
	              RMP2 Wavefunction,   8 Threads             
	                                                         
	        Rob Parrish, Justin Turney, Andy Simmonett,      
	           Ed Hohenstein, and C. David Sherrill          
	 --------------------------------------------------------

   => Auxiliary Basis Set <=

  Basis Set: (AUG-CC-PVTZ AUX)
    Blend: AUG-CC-PVTZ-RI
    Number of shells: 280
    Number of basis function: 1004
    Number of Cartesian functions: 1256
    Spherical Harmonics?: true
    Max angular momentum: 4

	 --------------------------------------------------------
	                 NBF =   460, NAUX =  1004
	 --------------------------------------------------------
	   CLASS    FOCC     OCC    AOCC    AVIR     VIR    FVIR
	   PAIRS       0      24      24     436     436       0
	 --------------------------------------------------------

  DFHelper Memory: AOs need 1.606 GiB; user supplied 22.352 GiB. Using in-core AOs.


         ------------------------------------------------------------
                                     CPHF                           
                                  Rob Parrish                       
         ------------------------------------------------------------

  ==> Geometry <==

    Molecular point group: c1
    Full point group: C1

    Geometry (in Angstrom), charge = 0, multiplicity = 1:

       Center              X                  Y                   Z               Mass       
    ------------   -----------------  -----------------  -----------------  -----------------
         O           -0.092929838534     1.474109619650    -0.197259870624    15.994914619570
         O            2.021814061466    -0.258784280350     0.356529729376    15.994914619570
         C           -0.328374938534     0.081002719650    -0.107654270624    12.000000000000
         C           -1.295495938534    -0.433778280350     0.915601729376    12.000000000000
         C           -1.663625938534    -0.410348280350    -0.554147270624    12.000000000000
         C            0.920790061466    -0.683551280350    -0.452197270624    12.000000000000
         H           -1.774613938534     0.301185719650     1.554359729376     1.007825032230
         H           -1.091084938534    -1.390485280350     1.386239729376     1.007825032230
         H           -1.718551938534    -1.352487280350    -1.091725270624     1.007825032230
         H           -2.366445938534     0.348891719650    -0.878750270624     1.007825032230
         H            1.148298061466    -0.549455280350    -1.518928270624     1.007825032230
         H            0.784386061466    -1.751873280350    -0.262139270624     1.007825032230
         H            0.284595061466     1.734245719650     0.655579729376     1.007825032230
         H            2.300597061466     0.597195719650    -0.010084270624     1.007825032230

  Nuclear repulsion =  252.226885320518846
  Reference energy  = -305.922800726205935

  ==> Basis Set <==

  Basis Set: AUG-CC-PVTZ
    Blend: AUG-CC-PVTZ
    Number of shells: 156
    Number of basis function: 460
    Number of Cartesian functions: 530
    Spherical Harmonics?: true
    Max angular momentum: 3

  ==> CGRSolver (by Rob Parrish) <==

   Number of roots    =         1
   Preconditioning    =    JACOBI
   Convergence cutoff =     1E-06
   Maximum iterations =       100

  ==> CPHFRHamiltonian (by Rob Parrish) <== 

  ==> MemDFJK: Density-Fitted J/K Matrices <==

    J tasked:                   Yes
    K tasked:                   Yes
    wK tasked:                   No
    OpenMP threads:               8
    Memory [MiB]:             22888
    Algorithm:                 Core
    Schwarz Cutoff:           1E-12
    Mask sparsity (%):       1.3110
    Fitting Condition:        1E-10

   => Auxiliary Basis Set <=

  Basis Set: (AUG-CC-PVTZ AUX)
    Blend: AUG-CC-PVTZ-JKFIT
    Number of shells: 292
    Number of basis function: 992
    Number of Cartesian functions: 1226
    Spherical Harmonics?: true
    Max angular momentum: 4

  ==> CPHF Iterations <==

  => Iterations <=

             Iter  Converged  Remaining    Residual
  CGR           1          0          1   7.999E-02
  CGR           2          0          1   1.877E-02
  CGR           3          0          1   7.617E-03
  CGR           4          0          1   1.892E-03
  CGR           5          0          1   4.928E-04
  CGR           6          0          1   1.518E-04
  CGR           7          0          1   3.774E-05
  CGR           8          0          1   1.196E-05
  CGR           9          0          1   3.527E-06
  CGR          10          1          0   9.624E-07

    CGRSolver converged.

	-----------------------------------------------------------
	 ==================> DF-MP2 Energies <==================== 
	-----------------------------------------------------------
	 Reference Energy          =    -305.9228007262059350 [Eh]
	 Singles Energy            =      -0.0000000000000000 [Eh]
	 Same-Spin Energy          =      -0.3046473203974555 [Eh]
	 Opposite-Spin Energy      =      -0.9838429386202497 [Eh]
	 Correlation Energy        =      -1.2884902590177052 [Eh]
	 Total Energy              =    -307.2112909852236271 [Eh]
	-----------------------------------------------------------
	 ================> DF-SCS-MP2 Energies <================== 
	-----------------------------------------------------------
	 SCS Same-Spin Scale       =       0.3333333333333333 [-]
	 SCS Opposite-Spin Scale   =       1.2000000000000000 [-]
	 SCS Same-Spin Energy      =      -0.1015491067991518 [Eh]
	 SCS Opposite-Spin Energy  =      -1.1806115263442996 [Eh]
	 SCS Correlation Energy    =      -1.2821606331434514 [Eh]
	 SCS Total Energy          =    -307.2049613593493973 [Eh]
	-----------------------------------------------------------



Properties will be evaluated at  -0.000000,   0.000000,  -0.000000 [a0]

Properties computed using the MP2 density matrix

  Nuclear Dipole Moment: [e a0]
     X:    -2.2714      Y:    -1.9280      Z:    -0.1543

  Electronic Dipole Moment: [e a0]
     X:     2.0380      Y:     1.8830      Z:     0.1556

  Dipole Moment: [e a0]
     X:    -0.2335      Y:    -0.0450      Z:     0.0012     Total:     0.2378

  Dipole Moment: [D]
     X:    -0.5934      Y:    -0.1144      Z:     0.0031     Total:     0.6043


*** tstop() called on node35.bme.utexas.edu at Thu Feb  4 02:12:06 2021
Module time:
	user time   =     350.89 seconds =       5.85 minutes
	system time =      29.81 seconds =       0.50 minutes
	total time  =         59 seconds =       0.98 minutes
Total time:
	user time   =     464.98 seconds =       7.75 minutes
	system time =      36.58 seconds =       0.61 minutes
	total time  =         76 seconds =       1.27 minutes

    Psi4 stopped on: Thursday, 04 February 2021 02:12AM
    Psi4 wall time for execution: 0:01:17.17

*** Psi4 exiting successfully. Buy a developer a beer!
