155_C4H8 Gaussian SP Calculation on node35.bme.utexas.edu               
Freq      RMP2-FC                                                     6-31G(d)            
Number of atoms                            I               12
Info1-9                                    I   N=           9
          23          22        1002           0           0         100
           6           2           1
Charge                                     I                0
Multiplicity                               I                1
Number of electrons                        I               32
Number of alpha electrons                  I               16
Number of beta electrons                   I               16
Number of basis functions                  I               76
Number of independent functions            I               76
Number of point charges in /Mol/           I                0
Number of translation vectors              I                0
Atomic numbers                             I   N=          12
           6           6           6           6           1           1
           1           1           1           1           1           1
Nuclear charges                            R   N=          12
  6.00000000E+00  6.00000000E+00  6.00000000E+00  6.00000000E+00  1.00000000E+00
  1.00000000E+00  1.00000000E+00  1.00000000E+00  1.00000000E+00  1.00000000E+00
  1.00000000E+00  1.00000000E+00
Current cartesian coordinates              R   N=          36
  1.01540015E+00  7.56401991E-01 -1.09082620E-05 -1.01540006E+00 -7.56401464E-01
 -2.09788340E-05  3.69955236E+00 -1.49888585E-01  3.40709899E-05 -3.69955248E+00
  1.49888263E-01 -1.33202015E-05  7.30565101E-01  2.79833799E+00 -1.52507500E-05
 -7.30564827E-01 -2.79833750E+00 -5.61512675E-06  4.72268935E+00  5.34835463E-01
  1.66442074E+00  3.78201302E+00 -2.21497659E+00  6.28243712E-05  4.72271438E+00
  5.34789113E-01 -1.66435503E+00 -4.72268966E+00 -5.34769377E-01  1.66440091E+00
 -3.78201375E+00  2.21497627E+00 -6.66973510E-05 -4.72271344E+00 -5.34856600E-01
 -1.66437506E+00
Force Field                                I                0
Int Atom Types                             I   N=          12
           0           0           0           0           0           0
           0           0           0           0           0           0
MM charges                                 R   N=          12
  0.00000000E+00  0.00000000E+00  0.00000000E+00  0.00000000E+00  0.00000000E+00
  0.00000000E+00  0.00000000E+00  0.00000000E+00  0.00000000E+00  0.00000000E+00
  0.00000000E+00  0.00000000E+00
Integer atomic weights                     I   N=          12
          12          12          12          12           1           1
           1           1           1           1           1           1
Real atomic weights                        R   N=          12
  1.20000000E+01  1.20000000E+01  1.20000000E+01  1.20000000E+01  1.00782504E+00
  1.00782504E+00  1.00782504E+00  1.00782504E+00  1.00782504E+00  1.00782504E+00
  1.00782504E+00  1.00782504E+00
Atom fragment info                         I   N=          12
           0           0           0           0           0           0
           0           0           0           0           0           0
Atom residue num                           I   N=          12
           0           0           0           0           0           0
           0           0           0           0           0           0
Nuclear spins                              I   N=          12
           0           0           0           0           1           1
           1           1           1           1           1           1
Nuclear ZEff                               R   N=          12
 -3.60000000E+00 -3.60000000E+00 -3.60000000E+00 -3.60000000E+00 -1.00000000E+00
 -1.00000000E+00 -1.00000000E+00 -1.00000000E+00 -1.00000000E+00 -1.00000000E+00
 -1.00000000E+00 -1.00000000E+00
Nuclear QMom                               R   N=          12
  0.00000000E+00  0.00000000E+00  0.00000000E+00  0.00000000E+00  0.00000000E+00
  0.00000000E+00  0.00000000E+00  0.00000000E+00  0.00000000E+00  0.00000000E+00
  0.00000000E+00  0.00000000E+00
Nuclear GFac                               R   N=          12
  0.00000000E+00  0.00000000E+00  0.00000000E+00  0.00000000E+00  2.79284600E+00
  2.79284600E+00  2.79284600E+00  2.79284600E+00  2.79284600E+00  2.79284600E+00
  2.79284600E+00  2.79284600E+00
MicOpt                                     I   N=          12
          -1          -1          -1          -1          -1          -1
          -1          -1          -1          -1          -1          -1
Number of contracted shells                I               32
Number of primitive shells                 I               76
Pure/Cartesian d shells                    I                1
Pure/Cartesian f shells                    I                0
Highest angular momentum                   I                2
Largest degree of contraction              I                6
Shell types                                I   N=          32
           0          -1          -1           2           0          -1
          -1           2           0          -1          -1           2
           0          -1          -1           2           0           0
           0           0           0           0           0           0
           0           0           0           0           0           0
           0           0
Number of primitives per shell             I   N=          32
           6           3           1           1           6           3
           1           1           6           3           1           1
           6           3           1           1           3           1
           3           1           3           1           3           1
           3           1           3           1           3           1
           3           1
Shell to atom map                          I   N=          32
           1           1           1           1           2           2
           2           2           3           3           3           3
           4           4           4           4           5           5
           6           6           7           7           8           8
           9           9          10          10          11          11
          12          12
Primitive exponents                        R   N=          76
  3.04752488E+03  4.57369518E+02  1.03948685E+02  2.92101553E+01  9.28666296E+00
  3.16392696E+00  7.86827235E+00  1.88128854E+00  5.44249258E-01  1.68714478E-01
  8.00000000E-01  3.04752488E+03  4.57369518E+02  1.03948685E+02  2.92101553E+01
  9.28666296E+00  3.16392696E+00  7.86827235E+00  1.88128854E+00  5.44249258E-01
  1.68714478E-01  8.00000000E-01  3.04752488E+03  4.57369518E+02  1.03948685E+02
  2.92101553E+01  9.28666296E+00  3.16392696E+00  7.86827235E+00  1.88128854E+00
  5.44249258E-01  1.68714478E-01  8.00000000E-01  3.04752488E+03  4.57369518E+02
  1.03948685E+02  2.92101553E+01  9.28666296E+00  3.16392696E+00  7.86827235E+00
  1.88128854E+00  5.44249258E-01  1.68714478E-01  8.00000000E-01  1.87311370E+01
  2.82539436E+00  6.40121692E-01  1.61277759E-01  1.87311370E+01  2.82539436E+00
  6.40121692E-01  1.61277759E-01  1.87311370E+01  2.82539436E+00  6.40121692E-01
  1.61277759E-01  1.87311370E+01  2.82539436E+00  6.40121692E-01  1.61277759E-01
  1.87311370E+01  2.82539436E+00  6.40121692E-01  1.61277759E-01  1.87311370E+01
  2.82539436E+00  6.40121692E-01  1.61277759E-01  1.87311370E+01  2.82539436E+00
  6.40121692E-01  1.61277759E-01  1.87311370E+01  2.82539436E+00  6.40121692E-01
  1.61277759E-01
Contraction coefficients                   R   N=          76
  1.83473713E-03  1.40373228E-02  6.88426223E-02  2.32184443E-01  4.67941348E-01
  3.62311985E-01 -1.19332420E-01 -1.60854152E-01  1.14345644E+00  1.00000000E+00
  1.00000000E+00  1.83473713E-03  1.40373228E-02  6.88426223E-02  2.32184443E-01
  4.67941348E-01  3.62311985E-01 -1.19332420E-01 -1.60854152E-01  1.14345644E+00
  1.00000000E+00  1.00000000E+00  1.83473713E-03  1.40373228E-02  6.88426223E-02
  2.32184443E-01  4.67941348E-01  3.62311985E-01 -1.19332420E-01 -1.60854152E-01
  1.14345644E+00  1.00000000E+00  1.00000000E+00  1.83473713E-03  1.40373228E-02
  6.88426223E-02  2.32184443E-01  4.67941348E-01  3.62311985E-01 -1.19332420E-01
 -1.60854152E-01  1.14345644E+00  1.00000000E+00  1.00000000E+00  3.34946043E-02
  2.34726953E-01  8.13757326E-01  1.00000000E+00  3.34946043E-02  2.34726953E-01
  8.13757326E-01  1.00000000E+00  3.34946043E-02  2.34726953E-01  8.13757326E-01
  1.00000000E+00  3.34946043E-02  2.34726953E-01  8.13757326E-01  1.00000000E+00
  3.34946043E-02  2.34726953E-01  8.13757326E-01  1.00000000E+00  3.34946043E-02
  2.34726953E-01  8.13757326E-01  1.00000000E+00  3.34946043E-02  2.34726953E-01
  8.13757326E-01  1.00000000E+00  3.34946043E-02  2.34726953E-01  8.13757326E-01
  1.00000000E+00
P(S=P) Contraction coefficients            R   N=          76
  0.00000000E+00  0.00000000E+00  0.00000000E+00  0.00000000E+00  0.00000000E+00
  0.00000000E+00  6.89990666E-02  3.16423961E-01  7.44308291E-01  1.00000000E+00
  0.00000000E+00  0.00000000E+00  0.00000000E+00  0.00000000E+00  0.00000000E+00
  0.00000000E+00  0.00000000E+00  6.89990666E-02  3.16423961E-01  7.44308291E-01
  1.00000000E+00  0.00000000E+00  0.00000000E+00  0.00000000E+00  0.00000000E+00
  0.00000000E+00  0.00000000E+00  0.00000000E+00  6.89990666E-02  3.16423961E-01
  7.44308291E-01  1.00000000E+00  0.00000000E+00  0.00000000E+00  0.00000000E+00
  0.00000000E+00  0.00000000E+00  0.00000000E+00  0.00000000E+00  6.89990666E-02
  3.16423961E-01  7.44308291E-01  1.00000000E+00  0.00000000E+00  0.00000000E+00
  0.00000000E+00  0.00000000E+00  0.00000000E+00  0.00000000E+00  0.00000000E+00
  0.00000000E+00  0.00000000E+00  0.00000000E+00  0.00000000E+00  0.00000000E+00
  0.00000000E+00  0.00000000E+00  0.00000000E+00  0.00000000E+00  0.00000000E+00
  0.00000000E+00  0.00000000E+00  0.00000000E+00  0.00000000E+00  0.00000000E+00
  0.00000000E+00  0.00000000E+00  0.00000000E+00  0.00000000E+00  0.00000000E+00
  0.00000000E+00  0.00000000E+00  0.00000000E+00  0.00000000E+00  0.00000000E+00
  0.00000000E+00
Coordinates of each shell                  R   N=          96
  1.01540015E+00  7.56401991E-01 -1.09082620E-05  1.01540015E+00  7.56401991E-01
 -1.09082620E-05  1.01540015E+00  7.56401991E-01 -1.09082620E-05  1.01540015E+00
  7.56401991E-01 -1.09082620E-05 -1.01540006E+00 -7.56401464E-01 -2.09788340E-05
 -1.01540006E+00 -7.56401464E-01 -2.09788340E-05 -1.01540006E+00 -7.56401464E-01
 -2.09788340E-05 -1.01540006E+00 -7.56401464E-01 -2.09788340E-05  3.69955236E+00
 -1.49888585E-01  3.40709899E-05  3.69955236E+00 -1.49888585E-01  3.40709899E-05
  3.69955236E+00 -1.49888585E-01  3.40709899E-05  3.69955236E+00 -1.49888585E-01
  3.40709899E-05 -3.69955248E+00  1.49888263E-01 -1.33202015E-05 -3.69955248E+00
  1.49888263E-01 -1.33202015E-05 -3.69955248E+00  1.49888263E-01 -1.33202015E-05
 -3.69955248E+00  1.49888263E-01 -1.33202015E-05  7.30565101E-01  2.79833799E+00
 -1.52507500E-05  7.30565101E-01  2.79833799E+00 -1.52507500E-05 -7.30564827E-01
 -2.79833750E+00 -5.61512675E-06 -7.30564827E-01 -2.79833750E+00 -5.61512675E-06
  4.72268935E+00  5.34835463E-01  1.66442074E+00  4.72268935E+00  5.34835463E-01
  1.66442074E+00  3.78201302E+00 -2.21497659E+00  6.28243712E-05  3.78201302E+00
 -2.21497659E+00  6.28243712E-05  4.72271438E+00  5.34789113E-01 -1.66435503E+00
  4.72271438E+00  5.34789113E-01 -1.66435503E+00 -4.72268966E+00 -5.34769377E-01
  1.66440091E+00 -4.72268966E+00 -5.34769377E-01  1.66440091E+00 -3.78201375E+00
  2.21497627E+00 -6.66973510E-05 -3.78201375E+00  2.21497627E+00 -6.66973510E-05
 -4.72271344E+00 -5.34856600E-01 -1.66437506E+00 -4.72271344E+00 -5.34856600E-01
 -1.66437506E+00
Constraint Structure                       R   N=          36
  1.01540015E+00  7.56401991E-01 -1.09082620E-05 -1.01540006E+00 -7.56401464E-01
 -2.09788340E-05  3.69955236E+00 -1.49888585E-01  3.40709899E-05 -3.69955248E+00
  1.49888263E-01 -1.33202015E-05  7.30565101E-01  2.79833799E+00 -1.52507500E-05
 -7.30564827E-01 -2.79833750E+00 -5.61512675E-06  4.72268935E+00  5.34835463E-01
  1.66442074E+00  3.78201302E+00 -2.21497659E+00  6.28243712E-05  4.72271438E+00
  5.34789113E-01 -1.66435503E+00 -4.72268966E+00 -5.34769377E-01  1.66440091E+00
 -3.78201375E+00  2.21497627E+00 -6.66973510E-05 -4.72271344E+00 -5.34856600E-01
 -1.66437506E+00
Num ILSW                                   I              100
ILSW                                       I   N=         100
           0           1           0           0           2           0
           0           0           0           0           0          -1
           0           0           0           0           0           0
           0           0           0           0           1           0
           1           0           0           0           0           0
           0           0      100000           0          -1           0
           0           0           0           0           0           0
           0           0           0           1           1           0
           0           0           1           0           0           0
           0           0           4          40           0           0
           0           0           0           0           0           0
           0           0           0           0           0           0
           0           0           0           0           0           0
           0           0           0           0           0           0
           0           0           0           0           0           0
           0           0           0           0           0           0
           0           0           0           0
Num RLSW                                   I               40
RLSW                                       R   N=          40
  1.00000000E+00  1.00000000E+00  1.00000000E+00  1.00000000E+00  1.00000000E+00
  0.00000000E+00  0.00000000E+00  1.00000000E+00  0.00000000E+00  0.00000000E+00
  0.00000000E+00  0.00000000E+00  1.00000000E+00  0.00000000E+00  0.00000000E+00
  0.00000000E+00  0.00000000E+00  1.00000000E+00  0.00000000E+00  0.00000000E+00
  0.00000000E+00  0.00000000E+00  1.00000000E+00  0.00000000E+00  0.00000000E+00
  0.00000000E+00  0.00000000E+00  1.00000000E+00  0.00000000E+00  0.00000000E+00
  0.00000000E+00  0.00000000E+00  0.00000000E+00  0.00000000E+00  0.00000000E+00
  0.00000000E+00  0.00000000E+00  0.00000000E+00  1.00000000E+00  1.00000000E+00
MxBond                                     I                4
NBond                                      I   N=          12
           3           3           4           4           1           1
           1           1           1           1           1           1
IBond                                      I   N=          48
           2           3           5           0           1           4
           6           0           1           7           8           9
           2          10          11          12           1           0
           0           0           2           0           0           0
           3           0           0           0           3           0
           0           0           3           0           0           0
           4           0           0           0           4           0
           0           0           4           0           0           0
RBond                                      R   N=          48
  2.00000000E+00  1.00000000E+00  1.00000000E+00  0.00000000E+00  2.00000000E+00
  1.00000000E+00  1.00000000E+00  0.00000000E+00  1.00000000E+00  1.00000000E+00
  1.00000000E+00  1.00000000E+00  1.00000000E+00  1.00000000E+00  1.00000000E+00
  1.00000000E+00  1.00000000E+00  0.00000000E+00  0.00000000E+00  0.00000000E+00
  1.00000000E+00  0.00000000E+00  0.00000000E+00  0.00000000E+00  1.00000000E+00
  0.00000000E+00  0.00000000E+00  0.00000000E+00  1.00000000E+00  0.00000000E+00
  0.00000000E+00  0.00000000E+00  1.00000000E+00  0.00000000E+00  0.00000000E+00
  0.00000000E+00  1.00000000E+00  0.00000000E+00  0.00000000E+00  0.00000000E+00
  1.00000000E+00  0.00000000E+00  0.00000000E+00  0.00000000E+00  1.00000000E+00
  0.00000000E+00  0.00000000E+00  0.00000000E+00
Virial Ratio                               R      2.001561298372009E+00
SCF Energy                                 R     -1.561093702138235E+02
MP2 Energy                                 R     -1.566259240633246E+02
Total Energy                               R     -1.566259240633246E+02
Post-SCF wavefunction norm                 R      1.536114115164401E+00
RMS Force                                  R      1.420102267247990E-06
RMS Density                                R      1.387524414790438E-09
External E-field                           R   N=          35
  0.00000000E+00  0.00000000E+00  0.00000000E+00  0.00000000E+00  0.00000000E+00
  0.00000000E+00  0.00000000E+00  0.00000000E+00  0.00000000E+00  0.00000000E+00
  0.00000000E+00  0.00000000E+00  0.00000000E+00  0.00000000E+00  0.00000000E+00
  0.00000000E+00  0.00000000E+00  0.00000000E+00  0.00000000E+00  0.00000000E+00
  0.00000000E+00  0.00000000E+00  0.00000000E+00  0.00000000E+00  0.00000000E+00
  0.00000000E+00  0.00000000E+00  0.00000000E+00  0.00000000E+00  0.00000000E+00
  0.00000000E+00  0.00000000E+00  0.00000000E+00  0.00000000E+00  0.00000000E+00
IOpCl                                      I                0
IROHF                                      I                0
Alpha Orbital Energies                     R   N=          76
 -1.12242176E+01 -1.12226170E+01 -1.12177522E+01 -1.12177431E+01 -1.07245688E+00
 -9.81075422E-01 -8.73906010E-01 -7.41163868E-01 -6.03136560E-01 -6.02173623E-01
 -5.68647922E-01 -5.52148123E-01 -5.19206523E-01 -5.05519004E-01 -4.79456174E-01
 -3.36685494E-01  1.94357130E-01  2.61186286E-01  2.63056251E-01  2.72260986E-01
  3.21535314E-01  3.23188909E-01  3.37744474E-01  3.38734131E-01  3.43616712E-01
  4.28109496E-01  4.68070821E-01  6.10907162E-01  6.96473519E-01  7.21608174E-01
  7.57487974E-01  7.67225945E-01  8.19248761E-01  8.49204299E-01  9.23502732E-01
  9.30657055E-01  9.40521591E-01  9.73912395E-01  1.02900035E+00  1.05080373E+00
  1.14263660E+00  1.14271758E+00  1.15702541E+00  1.16906341E+00  1.18517471E+00
  1.21444660E+00  1.23131375E+00  1.24152626E+00  1.39587715E+00  1.45699960E+00
  1.53364233E+00  1.64759346E+00  1.65285715E+00  1.74348434E+00  1.94665542E+00
  2.05520582E+00  2.11027608E+00  2.18526652E+00  2.22738111E+00  2.26285016E+00
  2.36779837E+00  2.41603105E+00  2.55889849E+00  2.62134216E+00  2.63199874E+00
  2.63316447E+00  2.71117924E+00  2.75689490E+00  2.80336304E+00  3.00159476E+00
  3.20158129E+00  3.29914301E+00  4.54141897E+00  4.61984113E+00  4.74738501E+00
  4.87004580E+00
Alpha MO coefficients                      R   N=        5776
  7.02930020E-01  1.91473576E-02  2.43682746E-04  2.57792796E-05  3.45511694E-09
 -5.93587280E-03 -1.53356506E-03  5.38762680E-04 -2.65420109E-08 -1.27322566E-03
 -1.47611186E-03 -1.68390851E-03  1.47044582E-04  1.94093292E-09 -4.15176487E-10
  7.02936081E-01  1.91475267E-02 -2.43682864E-04 -2.57780297E-05  2.05160376E-09
 -5.93598098E-03  1.53355106E-03 -5.38776479E-04 -1.55925998E-09 -1.27323317E-03
 -1.47612076E-03 -1.68392207E-03  1.47046026E-04  2.13315662E-09  3.52185958E-10
  3.52400762E-02  1.02360118E-03  9.70464342E-05 -2.21834381E-06 -1.63885359E-09
  1.90730202E-03 -1.26265914E-03  3.29141633E-05 -6.69171601E-10 -3.76463641E-04
 -2.10128175E-04 -1.29932299E-04  1.61212489E-04 -5.17219527E-09  3.34727442E-09
  3.52404541E-02  1.02361381E-03 -9.70472490E-05  2.21829727E-06  1.91901010E-09
  1.90731139E-03  1.26266861E-03 -3.29115025E-05 -1.17494560E-08 -3.76467990E-04
 -2.10130084E-04 -1.29933135E-04  1.61213880E-04  7.93486232E-10 -1.71087797E-09
 -1.90627379E-04  1.01416704E-03 -1.90627653E-04  1.01417929E-03 -1.05550634E-04
  3.74788937E-04 -7.15011039E-05 -1.77167116E-04 -1.05550315E-04  3.74810684E-04
 -1.05553448E-04  3.74806556E-04 -7.15016583E-05 -1.77168152E-04 -1.05548834E-04
  3.74800439E-04  7.02554418E-01  1.96230304E-02  6.25447135E-06 -1.52155151E-04
 -1.05040873E-09 -1.26918654E-02  1.72179204E-03  1.74213156E-03 -7.64173018E-09
 -9.03839618E-04 -1.03017329E-03 -1.57109452E-03  1.56166163E-04  7.36540232E-09
  9.02378556E-10 -7.02548357E-01 -1.96228651E-02  6.25249068E-06 -1.52155225E-04
 -1.14897025E-09  1.26918144E-02  1.72180496E-03  1.74212673E-03  2.17387441E-08
  9.03828358E-04  1.03016071E-03  1.57108000E-03 -1.56164933E-04 -8.67096549E-10
  2.70615202E-09  4.92566490E-02  1.60852281E-03  7.92748022E-05  6.56251797E-06
  1.01371854E-09  1.05111112E-03 -1.09610002E-03 -2.71028606E-04 -4.86568177E-09
 -4.94598001E-04 -2.39610358E-04 -1.04694036E-04  1.62024490E-04 -8.21117287E-09
  3.86812527E-09 -4.92563503E-02 -1.60851403E-03  7.92740209E-05  6.56252387E-06
 -5.88364591E-09 -1.05109471E-03 -1.09608922E-03 -2.71029440E-04  2.44359351E-08
  4.94594833E-04  2.39608498E-04  1.04692953E-04 -1.62023104E-04 -2.03392830E-09
  2.52343022E-09 -4.56189822E-05  1.38722923E-03  4.56172747E-05 -1.38722057E-03
 -8.21360861E-05  4.31936948E-04 -6.21155195E-05 -1.36008647E-04 -8.21370495E-05
  4.31945373E-04  8.21370825E-05 -4.31951518E-04  6.21149225E-05  1.36007200E-04
  8.21342214E-05 -4.31924566E-04 -3.54289118E-02 -9.67031272E-04  3.76214982E-05
 -1.04765686E-05 -2.59601978E-09  2.80104959E-03  1.03376092E-03 -2.89639553E-04
  2.49508536E-08 -2.94663087E-04  1.26141777E-05 -7.61794349E-05  1.12491722E-04
 -5.39529281E-09  2.38829193E-09 -3.54806033E-02 -9.68277310E-04 -3.75361288E-05
  1.03941709E-05 -2.13621737E-09  2.80422244E-03 -1.03576822E-03  2.89992285E-04
  3.71435951E-09 -2.94960569E-04  1.25184861E-05 -7.61036500E-05  1.12512668E-04
  1.23063809E-09 -1.96515003E-09  7.02827425E-01  2.00194757E-02 -8.55043741E-05
  4.90089516E-05 -1.18757894E-09 -1.03651423E-02  3.18348492E-04 -1.33162484E-04
  2.55589163E-09 -1.26887019E-03 -1.31064230E-03 -1.32821875E-03 -1.27474510E-05
  1.12351213E-09 -8.60016170E-10  7.03561405E-01  2.00405237E-02  8.55862814E-05
 -4.90653453E-05 -3.08023888E-14 -1.03770834E-02 -3.19248382E-04  1.33514266E-04
  4.41516124E-09 -1.27019887E-03 -1.31196491E-03 -1.32954095E-03 -1.27547783E-05
 -2.09556977E-10  2.64011509E-11 -1.18896767E-04 -1.50619360E-04 -1.18940374E-04
 -1.50612249E-04  8.79601975E-05  1.78088218E-03  8.10989251E-05  1.83531566E-03
  8.79601732E-05  1.78087825E-03  8.80870525E-05  1.78276417E-03  8.12454524E-05
  1.83709057E-03  8.80877281E-05  1.78276791E-03 -4.94798948E-02 -1.19253182E-03
 -8.16199386E-05  7.88024747E-05 -9.12640624E-10  3.03555354E-03  1.92175665E-03
 -3.37129525E-04  2.91590264E-08 -2.84839791E-04 -9.16206032E-05  7.25360472E-05
  2.02269360E-05 -4.87574567E-09  6.22292033E-11  4.94427983E-02  1.19151932E-03
 -8.16592949E-05  7.88134004E-05  4.84178429E-10 -3.03262540E-03  1.92067691E-03
 -3.36827397E-04 -7.35394869E-09  2.84531941E-04  9.16337109E-05 -7.26155084E-05
 -2.01093151E-05  5.80833078E-10 -7.78250029E-10  7.02751748E-01  2.01521814E-02
 -7.83084008E-05  5.39866594E-05 -5.26533694E-09 -1.14317221E-02  8.60550193E-04
 -3.36924695E-04  3.39414341E-08 -1.27211591E-03 -1.26635942E-03 -1.26599691E-03
 -6.99199610E-06  6.96319157E-10  6.05755587E-10 -7.02016923E-01 -2.01312506E-02
 -7.82191043E-05  5.39354477E-05  1.21968094E-09  1.14208860E-02  8.60218082E-04
 -3.36785420E-04 -9.01772307E-09  1.27078929E-03  1.26498913E-03  1.26460826E-03
  6.97868704E-06  3.00882367E-10  1.21991447E-10 -4.17832871E-05  6.57120167E-06
  4.16589321E-05 -6.72928057E-06  1.21772714E-04  1.80563633E-03  1.40236100E-04
  1.69931278E-03  1.21776677E-04  1.80565455E-03 -1.21681428E-04 -1.80378054E-03
 -1.40151320E-04 -1.69739395E-03 -1.21684060E-04 -1.80378644E-03 -1.33977012E-01
  2.54501596E-01 -3.55662726E-02 -5.35038299E-02  4.94433539E-07  1.79017690E-01
 -4.84395983E-03  2.12659249E-03  4.71693979E-08  1.20077881E-02  6.05146175E-03
 -1.07682601E-02  3.97376229E-03  2.61230693E-07 -5.99360577E-08 -1.33977026E-01
  2.54501624E-01  3.55662526E-02  5.35038135E-02  8.08163133E-07  1.79017708E-01
  4.84395609E-03 -2.12659941E-03  1.85890224E-07  1.20077915E-02  6.05145989E-03
 -1.07682618E-02  3.97376351E-03  6.28336341E-08 -8.11870944E-09 -8.16294274E-02
  1.51293043E-01 -5.07887252E-02  1.06458408E-02 -8.66493040E-07  1.29043915E-01
 -8.17122061E-03  6.56748360E-04 -2.17907835E-07  9.76555088E-03  2.22821549E-03
  6.44476360E-04 -2.42097642E-03  1.82201588E-07 -7.17747169E-08 -8.16294434E-02
  1.51293073E-01  5.07887384E-02 -1.06458363E-02 -2.21660119E-07  1.29043944E-01
  8.17122193E-03 -6.56748156E-04 -2.57402106E-08  9.76555201E-03  2.22821403E-03
  6.44478516E-04 -2.42097437E-03 -5.70797202E-08 -1.59128067E-09  6.59125737E-02
  8.75013547E-03  6.59125851E-02  8.75013759E-03  4.19145530E-02  5.59180855E-03
  4.56582690E-02  8.44356058E-03  4.19146980E-02  5.59170817E-03  4.19146083E-02
  5.59174288E-03  4.56582730E-02  8.44355909E-03  4.19146658E-02  5.59177640E-03
 -5.89058553E-02  1.14301914E-01  1.08476287E-01 -7.95712564E-03  1.32804523E-06
  7.23564162E-02  2.61972960E-02  8.18980941E-03  2.67603352E-07  9.00397839E-03
  3.12749931E-03 -5.39401169E-03 -7.20121705E-03  3.00907825E-07 -1.11925877E-07
  5.89058251E-02 -1.14301857E-01  1.08476347E-01 -7.95708641E-03 -4.52582125E-10
 -7.23563729E-02  2.61973096E-02  8.18981255E-03  3.86276495E-08 -9.00398120E-03
 -3.12749323E-03  5.39400968E-03  7.20121680E-03  5.77095222E-08  4.38434776E-08
 -1.30330821E-01  2.42671299E-01 -2.30657268E-02  1.13611923E-02 -6.76003834E-07
  2.34206899E-01 -1.79184791E-03  2.75565493E-04 -2.14397024E-07  6.97943867E-03
  5.70695893E-03  5.11957525E-03 -4.92238092E-04  8.90693824E-08 -4.24404081E-08
  1.30330830E-01 -2.42671317E-01 -2.30657331E-02  1.13611948E-02  3.41772929E-07
 -2.34206913E-01 -1.79184875E-03  2.75568433E-04  8.04348006E-08 -6.97943489E-03
 -5.70695875E-03 -5.11957850E-03  4.92237599E-04  6.46169264E-08 -3.83059379E-08
  3.15615273E-02  4.46947611E-03 -3.15615113E-02 -4.46947212E-03  8.30486065E-02
  1.92781319E-02  8.11320528E-02  1.79823283E-02  8.30487644E-02  1.92779952E-02
 -8.30485435E-02 -1.92780363E-02 -8.11320538E-02 -1.79823306E-02 -8.30488461E-02
 -1.92780958E-02  8.04492498E-02 -1.54005004E-01  1.55216561E-01  3.56136173E-02
  1.40713258E-06 -1.45010608E-01  3.14704472E-02 -3.91378586E-03  2.71364259E-07
  4.78157855E-03 -8.54511802E-03  5.34171828E-03 -1.17925141E-02  8.85111854E-08
 -8.51891452E-08  8.04492448E-02 -1.54004996E-01 -1.55216554E-01 -3.56136537E-02
 -5.19978458E-07 -1.45010606E-01 -3.14704400E-02  3.91377540E-03 -1.96591479E-07
  4.78157998E-03 -8.54511808E-03  5.34171761E-03 -1.17925103E-02 -5.42730036E-08
  3.49224168E-08 -1.09920678E-01  2.05537930E-01  7.27735214E-02 -8.40817121E-03
  7.66764482E-07  2.28479100E-01  2.57745280E-02  8.54435760E-04  2.93326574E-07
 -4.64031154E-03  7.68248315E-03  9.89930455E-03  4.27004809E-03 -2.00267759E-07
  7.52871993E-08 -1.09920650E-01  2.05537876E-01 -7.27734958E-02  8.40813977E-03
 -1.34568250E-07  2.28479048E-01 -2.57745116E-02 -8.54446769E-04  3.12662743E-08
 -4.64031630E-03  7.68248386E-03  9.89930423E-03  4.27004204E-03 -9.52937282E-09
  7.42064918E-08 -5.29396859E-02 -1.26894599E-02 -5.29396685E-02 -1.26894529E-02
  9.47322124E-02  3.22353533E-02  8.50499793E-02  2.88705535E-02  9.47321562E-02
  3.22353539E-02  9.47319698E-02  3.22352856E-02  8.50499536E-02  2.88705467E-02
  9.47323466E-02  3.22354068E-02 -9.48086408E-02  1.85793210E-01  2.61707407E-02
  1.85530976E-01 -1.82496159E-07  1.89571909E-01  1.90850255E-02  7.89722510E-02
  8.50371592E-08 -4.15238989E-04  1.55880575E-02 -7.86056966E-03 -6.87962509E-03
  1.17290206E-07 -5.34634519E-08  9.48086419E-02 -1.85793211E-01  2.61707091E-02
  1.85530965E-01 -9.41059427E-07 -1.89571913E-01  1.90850123E-02  7.89722551E-02
 -4.59674748E-07  4.15239150E-04 -1.55880565E-02  7.86057059E-03  6.87962444E-03
 -4.13993496E-08  2.52168706E-07  3.28753212E-02 -6.09243870E-02 -8.58817706E-02
  9.73379776E-02 -1.83554160E-06 -8.16260505E-02 -3.03146172E-02  3.18094171E-02
 -7.53734069E-07  7.25845183E-03 -7.75278456E-03 -3.69952236E-03 -7.77893555E-03
  2.34437272E-07 -1.28571089E-08 -3.28753428E-02  6.09244307E-02 -8.58818331E-02
  9.73379551E-02 -3.33083302E-08  8.16261024E-02 -3.03146407E-02  3.18094101E-02
  2.03805531E-07 -7.25845805E-03  7.75279105E-03  3.69952723E-03  7.77893156E-03
 -8.15490310E-08 -2.96602769E-07  1.78104376E-01  9.28842789E-02 -1.78104367E-01
 -9.28842763E-02 -3.20223165E-02 -1.53664413E-02 -8.34876331E-02 -4.95934349E-02
 -3.20225150E-02 -1.53667322E-02  3.20231877E-02  1.53669656E-02  8.34876514E-02
  4.95934407E-02  3.20216883E-02  1.53662351E-02  4.00807826E-02 -8.53046192E-02
 -1.77783710E-01  1.53910825E-01 -2.26315700E-06 -6.73500852E-02 -8.29799090E-02
  4.78429346E-02 -1.06868828E-06 -2.22300999E-03  1.67391214E-03  2.22826673E-03
  5.35345533E-03 -1.32159145E-07  1.42029876E-07 -4.00808256E-02  8.53046921E-02
 -1.77784858E-01  1.53909491E-01 -1.49271621E-06  6.73503643E-02 -8.29802989E-02
  4.78424032E-02 -6.07991630E-07  2.22299411E-03 -1.67384555E-03 -2.22827522E-03
 -5.35349423E-03 -7.15553442E-08  4.58105297E-08 -1.12516800E-02  1.61078454E-02
  2.73946546E-01  5.30534833E-02  5.69235581E-06  4.34697326E-02  1.25489863E-01
  3.67055497E-02  2.70577341E-06 -1.27253643E-02 -1.21692385E-03  1.78430149E-02
  1.02237443E-02 -3.25606459E-07  6.10838452E-07  1.12517271E-02 -1.61079215E-02
  2.73946688E-01  5.30521629E-02 -3.96379040E-06 -4.34699047E-02  1.25489901E-01
  3.67048894E-02 -2.12193849E-06  1.27254116E-02  1.21682137E-03 -1.78429748E-02
 -1.02237638E-02 -7.95378617E-08 -4.75074624E-07  6.40450076E-02  5.47127430E-02
 -6.40442761E-02 -5.47122204E-02  1.04491450E-01  7.53418012E-02 -1.76595321E-02