opt=Tight                                                               
Freq      RMP2-FC                                                     6-31G(d)            
Number of atoms                            I               15
Info1-9                                    I   N=           9
          24          24        1002           0           0         100
           6           2           1
Charge                                     I                0
Multiplicity                               I                1
Number of electrons                        I               52
Number of alpha electrons                  I               26
Number of beta electrons                   I               26
Number of basis functions                  I              121
Number of independent functions            I              121
Number of point charges in /Mol/           I                0
Number of translation vectors              I                0
Atomic numbers                             I   N=          15
           8           6           6           6           6           6
           6           1           1           1           1           1
           1           1           1
Nuclear charges                            R   N=          15
  8.00000000E+00  6.00000000E+00  6.00000000E+00  6.00000000E+00  6.00000000E+00
  6.00000000E+00  6.00000000E+00  1.00000000E+00  1.00000000E+00  1.00000000E+00
  1.00000000E+00  1.00000000E+00  1.00000000E+00  1.00000000E+00  1.00000000E+00
Current cartesian coordinates              R   N=          45
 -3.39344877E+00  1.67907211E-01 -6.89750990E-01  1.82071630E+00 -1.24400641E-01
  1.30704770E-01 -2.33070157E+00 -2.07134369E+00  4.65931911E-01  4.46371700E-01
 -2.26712135E+00 -4.41191271E-02  4.31621299E-01  2.23189520E+00  4.97765547E-01
  4.62922209E+00 -9.27249170E-03 -2.52002691E-01 -2.05272326E+00  2.28404345E+00
 -9.49342697E-02 -3.40476420E+00 -3.64358914E+00 -3.25609725E-01 -2.71708588E+00
 -1.95092036E+00  2.51045010E+00  1.29088655E+00 -4.08578898E+00 -4.90963542E-01
  1.40437306E+00  3.98663511E+00  9.23427138E-01  5.55101144E+00  8.58569661E-01
  1.38633440E+00  5.11080653E+00  1.13678537E+00 -1.90677422E+00  5.42142777E+00
 -1.89935903E+00 -5.13684440E-01 -3.17610451E+00  3.99160684E+00 -2.85248629E-01
Force Field                                I                0
Int Atom Types                             I   N=          15
           0           0           0           0           0           0
           0           0           0           0           0           0
           0           0           0
MM charges                                 R   N=          15
  0.00000000E+00  0.00000000E+00  0.00000000E+00  0.00000000E+00  0.00000000E+00
  0.00000000E+00  0.00000000E+00  0.00000000E+00  0.00000000E+00  0.00000000E+00
  0.00000000E+00  0.00000000E+00  0.00000000E+00  0.00000000E+00  0.00000000E+00
Integer atomic weights                     I   N=          15
          16          12          12          12          12          12
          12           1           1           1           1           1
           1           1           1
Real atomic weights                        R   N=          15
  1.59949146E+01  1.20000000E+01  1.20000000E+01  1.20000000E+01  1.20000000E+01
  1.20000000E+01  1.20000000E+01  1.00782504E+00  1.00782504E+00  1.00782504E+00
  1.00782504E+00  1.00782504E+00  1.00782504E+00  1.00782504E+00  1.00782504E+00
Atom fragment info                         I   N=          15
           0           0           0           0           0           0
           0           0           0           0           0           0
           0           0           0
Atom residue num                           I   N=          15
           0           0           0           0           0           0
           0           0           0           0           0           0
           0           0           0
Nuclear spins                              I   N=          15
           0           0           0           0           0           0
           0           1           1           1           1           1
           1           1           1
Nuclear ZEff                               R   N=          15
 -5.60000000E+00 -3.60000000E+00 -3.60000000E+00 -3.60000000E+00 -3.60000000E+00
 -3.60000000E+00 -3.60000000E+00 -1.00000000E+00 -1.00000000E+00 -1.00000000E+00
 -1.00000000E+00 -1.00000000E+00 -1.00000000E+00 -1.00000000E+00 -1.00000000E+00
Nuclear QMom                               R   N=          15
  0.00000000E+00  0.00000000E+00  0.00000000E+00  0.00000000E+00  0.00000000E+00
  0.00000000E+00  0.00000000E+00  0.00000000E+00  0.00000000E+00  0.00000000E+00
  0.00000000E+00  0.00000000E+00  0.00000000E+00  0.00000000E+00  0.00000000E+00
Nuclear GFac                               R   N=          15
  0.00000000E+00  0.00000000E+00  0.00000000E+00  0.00000000E+00  0.00000000E+00
  0.00000000E+00  0.00000000E+00  2.79284600E+00  2.79284600E+00  2.79284600E+00
  2.79284600E+00  2.79284600E+00  2.79284600E+00  2.79284600E+00  2.79284600E+00
MicOpt                                     I   N=          15
          -1          -1          -1          -1          -1          -1
          -1          -1          -1          -1          -1          -1
          -1          -1          -1
Number of contracted shells                I               44
Number of primitive shells                 I              109
Pure/Cartesian d shells                    I                1
Pure/Cartesian f shells                    I                0
Highest angular momentum                   I                2
Largest degree of contraction              I                6
Shell types                                I   N=          44
           0          -1          -1           2           0          -1
          -1           2           0          -1          -1           2
           0          -1          -1           2           0          -1
          -1           2           0          -1          -1           2
           0          -1          -1           2           0           0
           0           0           0           0           0           0
           0           0           0           0           0           0
           0           0
Number of primitives per shell             I   N=          44
           6           3           1           1           6           3
           1           1           6           3           1           1
           6           3           1           1           6           3
           1           1           6           3           1           1
           6           3           1           1           3           1
           3           1           3           1           3           1
           3           1           3           1           3           1
           3           1
Shell to atom map                          I   N=          44
           1           1           1           1           2           2
           2           2           3           3           3           3
           4           4           4           4           5           5
           5           5           6           6           6           6
           7           7           7           7           8           8
           9           9          10          10          11          11
          12          12          13          13          14          14
          15          15
Primitive exponents                        R   N=         109
  5.48467166E+03  8.25234946E+02  1.88046958E+02  5.29645000E+01  1.68975704E+01
  5.79963534E+00  1.55396162E+01  3.59993359E+00  1.01376175E+00  2.70005823E-01
  8.00000000E-01  3.04752488E+03  4.57369518E+02  1.03948685E+02  2.92101553E+01
  9.28666296E+00  3.16392696E+00  7.86827235E+00  1.88128854E+00  5.44249258E-01
  1.68714478E-01  8.00000000E-01  3.04752488E+03  4.57369518E+02  1.03948685E+02
  2.92101553E+01  9.28666296E+00  3.16392696E+00  7.86827235E+00  1.88128854E+00
  5.44249258E-01  1.68714478E-01  8.00000000E-01  3.04752488E+03  4.57369518E+02
  1.03948685E+02  2.92101553E+01  9.28666296E+00  3.16392696E+00  7.86827235E+00
  1.88128854E+00  5.44249258E-01  1.68714478E-01  8.00000000E-01  3.04752488E+03
  4.57369518E+02  1.03948685E+02  2.92101553E+01  9.28666296E+00  3.16392696E+00
  7.86827235E+00  1.88128854E+00  5.44249258E-01  1.68714478E-01  8.00000000E-01
  3.04752488E+03  4.57369518E+02  1.03948685E+02  2.92101553E+01  9.28666296E+00
  3.16392696E+00  7.86827235E+00  1.88128854E+00  5.44249258E-01  1.68714478E-01
  8.00000000E-01  3.04752488E+03  4.57369518E+02  1.03948685E+02  2.92101553E+01
  9.28666296E+00  3.16392696E+00  7.86827235E+00  1.88128854E+00  5.44249258E-01
  1.68714478E-01  8.00000000E-01  1.87311370E+01  2.82539436E+00  6.40121692E-01
  1.61277759E-01  1.87311370E+01  2.82539436E+00  6.40121692E-01  1.61277759E-01
  1.87311370E+01  2.82539436E+00  6.40121692E-01  1.61277759E-01  1.87311370E+01
  2.82539436E+00  6.40121692E-01  1.61277759E-01  1.87311370E+01  2.82539436E+00
  6.40121692E-01  1.61277759E-01  1.87311370E+01  2.82539436E+00  6.40121692E-01
  1.61277759E-01  1.87311370E+01  2.82539436E+00  6.40121692E-01  1.61277759E-01
  1.87311370E+01  2.82539436E+00  6.40121692E-01  1.61277759E-01
Contraction coefficients                   R   N=         109
  1.83107443E-03  1.39501722E-02  6.84450781E-02  2.32714336E-01  4.70192898E-01
  3.58520853E-01 -1.10777550E-01 -1.48026263E-01  1.13076702E+00  1.00000000E+00
  1.00000000E+00  1.83473713E-03  1.40373228E-02  6.88426223E-02  2.32184443E-01
  4.67941348E-01  3.62311985E-01 -1.19332420E-01 -1.60854152E-01  1.14345644E+00
  1.00000000E+00  1.00000000E+00  1.83473713E-03  1.40373228E-02  6.88426223E-02
  2.32184443E-01  4.67941348E-01  3.62311985E-01 -1.19332420E-01 -1.60854152E-01
  1.14345644E+00  1.00000000E+00  1.00000000E+00  1.83473713E-03  1.40373228E-02
  6.88426223E-02  2.32184443E-01  4.67941348E-01  3.62311985E-01 -1.19332420E-01
 -1.60854152E-01  1.14345644E+00  1.00000000E+00  1.00000000E+00  1.83473713E-03
  1.40373228E-02  6.88426223E-02  2.32184443E-01  4.67941348E-01  3.62311985E-01
 -1.19332420E-01 -1.60854152E-01  1.14345644E+00  1.00000000E+00  1.00000000E+00
  1.83473713E-03  1.40373228E-02  6.88426223E-02  2.32184443E-01  4.67941348E-01
  3.62311985E-01 -1.19332420E-01 -1.60854152E-01  1.14345644E+00  1.00000000E+00
  1.00000000E+00  1.83473713E-03  1.40373228E-02  6.88426223E-02  2.32184443E-01
  4.67941348E-01  3.62311985E-01 -1.19332420E-01 -1.60854152E-01  1.14345644E+00
  1.00000000E+00  1.00000000E+00  3.34946043E-02  2.34726953E-01  8.13757326E-01
  1.00000000E+00  3.34946043E-02  2.34726953E-01  8.13757326E-01  1.00000000E+00
  3.34946043E-02  2.34726953E-01  8.13757326E-01  1.00000000E+00  3.34946043E-02
  2.34726953E-01  8.13757326E-01  1.00000000E+00  3.34946043E-02  2.34726953E-01
  8.13757326E-01  1.00000000E+00  3.34946043E-02  2.34726953E-01  8.13757326E-01
  1.00000000E+00  3.34946043E-02  2.34726953E-01  8.13757326E-01  1.00000000E+00
  3.34946043E-02  2.34726953E-01  8.13757326E-01  1.00000000E+00
P(S=P) Contraction coefficients            R   N=         109
  0.00000000E+00  0.00000000E+00  0.00000000E+00  0.00000000E+00  0.00000000E+00
  0.00000000E+00  7.08742682E-02  3.39752839E-01  7.27158577E-01  1.00000000E+00
  0.00000000E+00  0.00000000E+00  0.00000000E+00  0.00000000E+00  0.00000000E+00
  0.00000000E+00  0.00000000E+00  6.89990666E-02  3.16423961E-01  7.44308291E-01
  1.00000000E+00  0.00000000E+00  0.00000000E+00  0.00000000E+00  0.00000000E+00
  0.00000000E+00  0.00000000E+00  0.00000000E+00  6.89990666E-02  3.16423961E-01
  7.44308291E-01  1.00000000E+00  0.00000000E+00  0.00000000E+00  0.00000000E+00
  0.00000000E+00  0.00000000E+00  0.00000000E+00  0.00000000E+00  6.89990666E-02
  3.16423961E-01  7.44308291E-01  1.00000000E+00  0.00000000E+00  0.00000000E+00
  0.00000000E+00  0.00000000E+00  0.00000000E+00  0.00000000E+00  0.00000000E+00
  6.89990666E-02  3.16423961E-01  7.44308291E-01  1.00000000E+00  0.00000000E+00
  0.00000000E+00  0.00000000E+00  0.00000000E+00  0.00000000E+00  0.00000000E+00
  0.00000000E+00  6.89990666E-02  3.16423961E-01  7.44308291E-01  1.00000000E+00
  0.00000000E+00  0.00000000E+00  0.00000000E+00  0.00000000E+00  0.00000000E+00
  0.00000000E+00  0.00000000E+00  6.89990666E-02  3.16423961E-01  7.44308291E-01
  1.00000000E+00  0.00000000E+00  0.00000000E+00  0.00000000E+00  0.00000000E+00
  0.00000000E+00  0.00000000E+00  0.00000000E+00  0.00000000E+00  0.00000000E+00
  0.00000000E+00  0.00000000E+00  0.00000000E+00  0.00000000E+00  0.00000000E+00
  0.00000000E+00  0.00000000E+00  0.00000000E+00  0.00000000E+00  0.00000000E+00
  0.00000000E+00  0.00000000E+00  0.00000000E+00  0.00000000E+00  0.00000000E+00
  0.00000000E+00  0.00000000E+00  0.00000000E+00  0.00000000E+00  0.00000000E+00
  0.00000000E+00  0.00000000E+00  0.00000000E+00  0.00000000E+00
Coordinates of each shell                  R   N=         132
 -3.39344877E+00  1.67907211E-01 -6.89750990E-01 -3.39344877E+00  1.67907211E-01
 -6.89750990E-01 -3.39344877E+00  1.67907211E-01 -6.89750990E-01 -3.39344877E+00
  1.67907211E-01 -6.89750990E-01  1.82071630E+00 -1.24400641E-01  1.30704770E-01
  1.82071630E+00 -1.24400641E-01  1.30704770E-01  1.82071630E+00 -1.24400641E-01
  1.30704770E-01  1.82071630E+00 -1.24400641E-01  1.30704770E-01 -2.33070157E+00
 -2.07134369E+00  4.65931911E-01 -2.33070157E+00 -2.07134369E+00  4.65931911E-01
 -2.33070157E+00 -2.07134369E+00  4.65931911E-01 -2.33070157E+00 -2.07134369E+00
  4.65931911E-01  4.46371700E-01 -2.26712135E+00 -4.41191271E-02  4.46371700E-01
 -2.26712135E+00 -4.41191271E-02  4.46371700E-01 -2.26712135E+00 -4.41191271E-02
  4.46371700E-01 -2.26712135E+00 -4.41191271E-02  4.31621299E-01  2.23189520E+00
  4.97765547E-01  4.31621299E-01  2.23189520E+00  4.97765547E-01  4.31621299E-01
  2.23189520E+00  4.97765547E-01  4.31621299E-01  2.23189520E+00  4.97765547E-01
  4.62922209E+00 -9.27249170E-03 -2.52002691E-01  4.62922209E+00 -9.27249170E-03
 -2.52002691E-01  4.62922209E+00 -9.27249170E-03 -2.52002691E-01  4.62922209E+00
 -9.27249170E-03 -2.52002691E-01 -2.05272326E+00  2.28404345E+00 -9.49342697E-02
 -2.05272326E+00  2.28404345E+00 -9.49342697E-02 -2.05272326E+00  2.28404345E+00
 -9.49342697E-02 -2.05272326E+00  2.28404345E+00 -9.49342697E-02 -3.40476420E+00
 -3.64358914E+00 -3.25609725E-01 -3.40476420E+00 -3.64358914E+00 -3.25609725E-01
 -2.71708588E+00 -1.95092036E+00  2.51045010E+00 -2.71708588E+00 -1.95092036E+00
  2.51045010E+00  1.29088655E+00 -4.08578898E+00 -4.90963542E-01  1.29088655E+00
 -4.08578898E+00 -4.90963542E-01  1.40437306E+00  3.98663511E+00  9.23427138E-01
  1.40437306E+00  3.98663511E+00  9.23427138E-01  5.55101144E+00  8.58569661E-01
  1.38633440E+00  5.55101144E+00  8.58569661E-01  1.38633440E+00  5.11080653E+00
  1.13678537E+00 -1.90677422E+00  5.11080653E+00  1.13678537E+00 -1.90677422E+00
  5.42142777E+00 -1.89935903E+00 -5.13684440E-01  5.42142777E+00 -1.89935903E+00
 -5.13684440E-01 -3.17610451E+00  3.99160684E+00 -2.85248629E-01 -3.17610451E+00
  3.99160684E+00 -2.85248629E-01
Constraint Structure                       R   N=          45
 -3.39344877E+00  1.67907211E-01 -6.89750990E-01  1.82071630E+00 -1.24400641E-01
  1.30704770E-01 -2.33070157E+00 -2.07134369E+00  4.65931911E-01  4.46371700E-01
 -2.26712135E+00 -4.41191271E-02  4.31621299E-01  2.23189520E+00  4.97765547E-01
  4.62922209E+00 -9.27249170E-03 -2.52002691E-01 -2.05272326E+00  2.28404345E+00
 -9.49342697E-02 -3.40476420E+00 -3.64358914E+00 -3.25609725E-01 -2.71708588E+00
 -1.95092036E+00  2.51045010E+00  1.29088655E+00 -4.08578898E+00 -4.90963542E-01
  1.40437306E+00  3.98663511E+00  9.23427138E-01  5.55101144E+00  8.58569661E-01
  1.38633440E+00  5.11080653E+00  1.13678537E+00 -1.90677422E+00  5.42142777E+00
 -1.89935903E+00 -5.13684440E-01 -3.17610451E+00  3.99160684E+00 -2.85248629E-01
Num ILSW                                   I              100
ILSW                                       I   N=         100
           0           1           0           0           2           0
           0           0           0           0           0          -1
           0           0           0           0           0           0
           0           0           0           0           1           0
           1           0           0           0           0           0
           0           0      100000           0          -1           0
           0           0           0           0           0           0
           0           0           0           1           1           0
           0           0           1           0           0           0
           0           0           4          40           0           0
           0           0           0           0           0           0
           0           0           0           0           0           0
           0           0           0           0           0           0
           0           0           0           0           0           0
           0           0           0           0           0           0
           0           0           0           0           0           0
           0           0           0           0
Num RLSW                                   I               40
RLSW                                       R   N=          40
  1.00000000E+00  1.00000000E+00  1.00000000E+00  1.00000000E+00  1.00000000E+00
  0.00000000E+00  0.00000000E+00  1.00000000E+00  0.00000000E+00  0.00000000E+00
  0.00000000E+00  0.00000000E+00  1.00000000E+00  0.00000000E+00  0.00000000E+00
  0.00000000E+00  0.00000000E+00  1.00000000E+00  0.00000000E+00  0.00000000E+00
  0.00000000E+00  0.00000000E+00  1.00000000E+00  0.00000000E+00  0.00000000E+00
  0.00000000E+00  0.00000000E+00  1.00000000E+00  0.00000000E+00  0.00000000E+00
  0.00000000E+00  0.00000000E+00  0.00000000E+00  0.00000000E+00  0.00000000E+00
  0.00000000E+00  0.00000000E+00  0.00000000E+00  1.00000000E+00  1.00000000E+00
MxBond                                     I                4
NBond                                      I   N=          15
           2           3           4           3           3           4
           3           1           1           1           1           1
           1           1           1
IBond                                      I   N=          60
           3           7           0           0           4           5
           6           0           1           4           8           9
           2           3          10           0           2           7
          11           0           2          12          13          14
           1           5          15           0           3           0
           0           0           3           0           0           0
           4           0           0           0           5           0
           0           0           6           0           0           0
           6           0           0           0           6           0
           0           0           7           0           0           0
RBond                                      R   N=          60
  1.00000000E+00  1.50000000E+00  0.00000000E+00  0.00000000E+00  2.00000000E+00
  1.00000000E+00  1.00000000E+00  0.00000000E+00  1.00000000E+00  1.00000000E+00
  1.00000000E+00  1.00000000E+00  2.00000000E+00  1.00000000E+00  1.00000000E+00
  0.00000000E+00  1.00000000E+00  2.00000000E+00  1.00000000E+00  0.00000000E+00
  1.00000000E+00  1.00000000E+00  1.00000000E+00  1.00000000E+00  1.50000000E+00
  2.00000000E+00  1.00000000E+00  0.00000000E+00  1.00000000E+00  0.00000000E+00
  0.00000000E+00  0.00000000E+00  1.00000000E+00  0.00000000E+00  0.00000000E+00
  0.00000000E+00  1.00000000E+00  0.00000000E+00  0.00000000E+00  0.00000000E+00
  1.00000000E+00  0.00000000E+00  0.00000000E+00  0.00000000E+00  1.00000000E+00
  0.00000000E+00  0.00000000E+00  0.00000000E+00  1.00000000E+00  0.00000000E+00
  0.00000000E+00  0.00000000E+00  1.00000000E+00  0.00000000E+00  0.00000000E+00
  0.00000000E+00  1.00000000E+00  0.00000000E+00  0.00000000E+00  0.00000000E+00
Virial Ratio                               R      2.002123240474733E+00
SCF Energy                                 R     -3.066782562967841E+02
MP2 Energy                                 R     -3.076219043662873E+02
Total Energy                               R     -3.076219043662873E+02
Post-SCF wavefunction norm                 R      1.624367811105421E+00
RMS Force                                  R      3.676102764528867E-07
RMS Density                                R      9.816846814028760E-10
External E-field                           R   N=          35
  0.00000000E+00  0.00000000E+00  0.00000000E+00  0.00000000E+00  0.00000000E+00
  0.00000000E+00  0.00000000E+00  0.00000000E+00  0.00000000E+00  0.00000000E+00
  0.00000000E+00  0.00000000E+00  0.00000000E+00  0.00000000E+00  0.00000000E+00
  0.00000000E+00  0.00000000E+00  0.00000000E+00  0.00000000E+00  0.00000000E+00
  0.00000000E+00  0.00000000E+00  0.00000000E+00  0.00000000E+00  0.00000000E+00
  0.00000000E+00  0.00000000E+00  0.00000000E+00  0.00000000E+00  0.00000000E+00
  0.00000000E+00  0.00000000E+00  0.00000000E+00  0.00000000E+00  0.00000000E+00
IOpCl                                      I                0
IROHF                                      I                0
Alpha Orbital Energies                     R   N=         121
 -2.05855595E+01 -1.12978514E+01 -1.12844836E+01 -1.12428874E+01 -1.12251745E+01
 -1.12200356E+01 -1.12179910E+01 -1.39935964E+00 -1.10522687E+00 -1.02704839E+00
 -9.70123397E-01 -8.69651345E-01 -8.18705184E-01 -6.98332842E-01 -6.86935019E-01
 -6.51543159E-01 -6.26062520E-01 -5.86810530E-01 -5.69590243E-01 -5.58998510E-01
 -5.48622044E-01 -5.10766287E-01 -4.94081836E-01 -4.59866573E-01 -3.95860374E-01
 -2.92035924E-01  1.36327587E-01  2.33935493E-01  2.47189806E-01  2.67864623E-01
  2.82169482E-01  2.96953577E-01  3.16025656E-01  3.26238119E-01  3.35681266E-01
  3.52458951E-01  3.53318822E-01  4.23489024E-01  4.36739870E-01  4.60232932E-01
  5.42507963E-01  6.14186533E-01  6.20454559E-01  6.96159445E-01  7.41556773E-01
  7.51624554E-01  7.75142176E-01  7.91004763E-01  8.07204875E-01  8.14150487E-01
  8.42778394E-01  8.59823027E-01  8.91164726E-01  8.97583990E-01  9.45899129E-01
  9.69842726E-01  9.91934956E-01  1.01936077E+00  1.06864061E+00  1.10452636E+00
  1.12202823E+00  1.14241196E+00  1.14793689E+00  1.15766123E+00  1.17968580E+00
  1.18989753E+00  1.21541094E+00  1.23927690E+00  1.25096688E+00  1.27485342E+00
  1.32957906E+00  1.38821827E+00  1.43221269E+00  1.46493617E+00  1.48400424E+00
  1.52288600E+00  1.56417968E+00  1.66112700E+00  1.70652277E+00  1.72236128E+00
  1.80946779E+00  1.84309527E+00  1.93318578E+00  1.97110232E+00  2.00669774E+00
  2.12917970E+00  2.15451290E+00  2.16246330E+00  2.17431496E+00  2.21755532E+00
  2.25298203E+00  2.30948803E+00  2.32317764E+00  2.39442925E+00  2.43613587E+00
  2.48789861E+00  2.50073581E+00  2.56130606E+00  2.58012321E+00  2.63892660E+00
  2.67263225E+00  2.68748507E+00  2.74371750E+00  2.77758833E+00  2.82438412E+00
  2.92124551E+00  2.93627230E+00  3.01704374E+00  3.03751301E+00  3.06945322E+00
  3.16584867E+00  3.28595929E+00  3.38954797E+00  3.59539773E+00  4.40373948E+00
  4.54663744E+00  4.60528722E+00  4.65794289E+00  4.73949038E+00  4.78801892E+00
  5.01386815E+00
Alpha MO coefficients                      R   N=       14641
  9.94660623E-01  2.12047528E-02  1.09544420E-03  1.16968127E-04  6.74522149E-04
  3.86553261E-03 -6.81125569E-04  1.01608904E-04 -3.80340841E-04 -3.99445311E-03
 -4.15764983E-03 -3.93404536E-03  2.66644086E-06 -1.12604571E-04  6.85926928E-05
 -6.20532284E-07  1.81978323E-06  1.70044700E-05  3.19641416E-06 -3.41676907E-07
  2.01179698E-04 -3.17008664E-04 -4.36855822E-05  3.85043738E-05 -7.97804030E-06
 -3.52185718E-06 -2.18287835E-06  1.09256424E-06 -3.57320719E-06 -7.17181637E-06
 -1.86950104E-05  1.65431891E-04 -1.48525296E-04  3.24747176E-04 -1.77495416E-04
  3.27126524E-04  3.33586878E-04 -1.86300946E-05  1.09526275E-04 -3.91539865E-07
  8.63886983E-05 -1.33623366E-05 -6.00841780E-05  6.41061479E-06 -8.49757435E-05
  4.09884274E-06  5.86767853E-05  2.80743794E-05 -2.68475802E-05  4.41474592E-06
 -5.09498586E-04  1.83934869E-04 -1.11606766E-04 -9.76960723E-05 -4.14706083E-05
 -1.80228317E-05 -8.63656904E-06  2.15095142E-05  6.77819410E-06 -3.74437297E-06
  9.97223829E-06  8.55809814E-05  3.69128633E-05  2.02694085E-05  2.04589682E-05
 -1.02086208E-03  5.44125028E-04  1.98886778E-04  9.41830630E-05 -5.40440223E-05
 -4.96683569E-06  2.25051176E-07 -4.95233503E-05 -1.84706033E-05 -1.12803597E-05
  1.21931416E-06  1.45553107E-06 -1.26936828E-05  5.98388407E-06  4.09971352E-07
  1.33553934E-04 -3.55339201E-05 -3.71363190E-05  1.13308829E-05  5.64475110E-06
  2.56336447E-06  3.62603143E-06 -3.18426381E-07 -1.91652122E-07 -1.51337695E-06
 -1.21175943E-05  3.45779249E-04 -1.86152477E-04 -2.89853211E-04 -8.64211644E-05
  5.77866208E-04  8.29584082E-04 -1.37685720E-04  2.73851064E-04 -2.24999448E-05
 -7.63137897E-05 -7.66534211E-05 -3.22855778E-05  8.83927591E-06 -1.20130098E-05
  8.36976896E-06 -3.85145260E-05 -4.33809290E-05 -9.25809144E-05  9.48213285E-06
 -2.00962514E-05  1.25240561E-05 -1.12714271E-04  2.90275730E-06 -9.62158841E-06
 -2.29967796E-07  1.35225913E-05 -3.47721462E-06 -3.28563513E-05  1.92650522E-05
  1.75025850E-04 -7.08709609E-05  7.22689697E-04  1.16027891E-04  1.65426414E-04
  9.39873279E-05 -2.08459630E-03 -9.58908532E-04 -1.38638629E-03 -7.24254324E-04
  1.17496730E-04 -4.33990287E-04  3.88577573E-04 -4.44136960E-04 -2.74527246E-04
 -1.96090176E-04 -3.89495507E-05 -2.87109745E-04  1.44712314E-05  2.27702525E-06
  3.80475175E-05  2.28838040E-03 -1.52328245E-03  3.66023157E-04  1.14366277E-04
  9.02615724E-05  7.04765214E-05 -6.55366216E-05 -8.76772385E-05  8.06772896E-06
  6.44510513E-06 -4.97477547E-04 -3.11813632E-04 -2.83276382E-06  1.31944500E-05
 -7.91932062E-05  1.11495509E-03  7.96957046E-04  1.14917885E-03  5.16303134E-04
 -2.69683247E-05  2.16474867E-04 -6.88373824E-06  1.37355121E-05 -7.31075154E-05
 -5.26046900E-05 -8.53473178E-05  3.14215197E-05  1.51664754E-05 -1.74610651E-05
  4.64807876E-05 -1.45971813E-03  3.82384490E-04 -1.11008444E-03 -4.92924771E-04
  2.29149633E-05 -6.28750365E-06 -3.08744819E-05 -7.96314134E-06  4.96659791E-05
 -3.46363260E-05  9.41216745E-03  1.41495651E-04  1.36387794E-04 -5.56606399E-05
  5.69272964E-05  2.59091837E-03 -1.71410052E-03  1.85360160E-03 -1.48298916E-04
 -2.17395315E-04 -3.09329477E-04 -2.95382852E-05  4.76568750E-05 -3.77901136E-05
 -4.33664775E-05  1.67497227E-06 -3.11229232E-05 -8.55992134E-06 -1.26304831E-05
 -3.03297331E-05  5.43717127E-04 -2.53341632E-04  4.68667641E-05  2.12043317E-04
 -1.19823909E-05  2.30875772E-06 -2.34698350E-06 -2.21650637E-06 -4.10127962E-06
  1.96563818E-05  9.95715639E-01  2.66761795E-02 -6.37016302E-04 -1.14168996E-03
 -2.37759258E-04 -8.92278985E-03 -1.66279270E-03 -1.17181833E-03 -5.94804354E-04
 -1.26644908E-03 -1.31854003E-03 -2.22954014E-03  2.42945122E-04  3.16418108E-04
  1.64590969E-04  1.28725491E-04  4.36266138E-04 -2.36053902E-04 -4.60593649E-05
 -6.01177562E-05 -3.73778914E-04 -1.54659529E-04 -5.42879095E-04 -5.20546427E-05
 -2.40374741E-05  6.50473356E-06  4.84942086E-05 -1.04395612E-05  8.76639634E-05
 -2.03013139E-04  1.88884412E-03 -1.30317792E-04  2.06844824E-04  1.38540134E-04
 -1.47228767E-04  1.04251835E-04  1.32107513E-03 -3.97522681E-04 -1.34143217E-04
 -2.63148171E-04 -1.46991823E-04 -5.24060416E-04 -6.89025127E-05  2.07585454E-04
 -2.22999523E-04  3.30877941E-04 -1.60949372E-05 -1.33019780E-04  7.85734919E-05
  4.98818229E-05 -2.96548950E-05 -2.47735164E-04 -7.62100403E-04 -6.15165229E-04
  1.49800425E-04  6.81079777E-05  9.42930087E-05 -3.31129323E-05  4.20123204E-05
 -3.18298019E-05  1.70971395E-05  9.95926443E-01  2.76991747E-02 -1.36417720E-04
  9.25877802E-04 -3.71634777E-04 -1.52131097E-02 -1.46084078E-03 -6.55036373E-04
 -5.08358547E-05 -1.42750407E-03 -1.36796044E-03 -1.41666407E-03 -1.10304263E-05
  5.54855089E-05  2.56616378E-05  4.93514093E-03  1.74016731E-04 -3.97120629E-05
 -1.30830158E-05  1.26520539E-05  3.90336875E-03 -2.33898079E-03 -1.08423004E-04
  3.13464683E-04 -4.39571662E-04 -1.85646709E-04 -1.68183804E-04 -1.40748853E-05
  3.46612113E-05 -1.03643378E-05 -8.87098873E-05 -8.66922763E-05  1.06102805E-04
  6.25424299E-05  1.17191129E-05 -9.69518655E-04  7.16390142E-04  1.02421844E-04
  6.32582837E-05 -4.28686586E-05 -1.23706993E-05 -7.02709929E-05 -1.15676201E-05
 -1.42375169E-06 -2.60919228E-05 -1.00598511E-05 -9.80501656E-05 -5.42673094E-06
  1.21648926E-05  1.93085002E-05  8.70581456E-04 -4.72097562E-04  2.43132533E-06
 -4.96157795E-05 -2.67704513E-06 -2.29769047E-05 -4.32638859E-05  4.56122823E-07
 -2.01973547E-06 -5.75920079E-06  4.26958696E-04 -4.08086335E-04 -7.94176922E-05
  2.06471317E-05 -3.54213166E-05  1.72603428E-03  1.14954745E-03 -1.44354055E-03
  5.30754293E-04  1.18379731E-05  1.93614630E-04 -9.38325246E-05  3.33482632E-05
  7.04710154E-05 -8.08636183E-05  1.08239952E-04  2.12441008E-03  2.63682898E-04
  2.66848538E-03 -1.09879125E-04 -8.61239280E-05 -7.59748471E-06 -3.34318501E-05
 -4.33321857E-06  1.29604477E-05 -3.21002496E-05 -6.37538964E-05 -6.06780768E-05
  1.12135597E-04  8.64276874E-05  7.27954187E-04 -1.28381602E-05 -6.50005695E-05
 -2.33436572E-05  5.19903994E-06 -5.22283744E-06  2.48255847E-04 -3.66242842E-05
 -2.00543884E-04  7.32184239E-05 -6.03859488E-05 -3.46232760E-05 -5.28204150E-05
 -2.80422228E-05  4.40809593E-06 -1.08969656E-05  9.94911906E-01  2.74080022E-02
 -2.56680576E-05  2.78385791E-04 -7.13953018E-05 -1.35716693E-02  1.79004977E-04
  1.97605719E-04  2.95969607E-04 -1.51736218E-03 -1.40060166E-03 -2.19741939E-03
  1.47455057E-04 -7.30029782E-05  8.34098203E-05 -1.25639375E-04 -1.60568306E-05