008_Uracil Gaussian SP Calculation on node35.bme.utexas.edu             
Freq      RMP2-FC                                                     6-31G(d)            
Number of atoms                            I               12
Info1-9                                    I   N=           9
          23          22        1002           0           0         100
           6           2           1
Charge                                     I                0
Multiplicity                               I                1
Number of electrons                        I               58
Number of alpha electrons                  I               29
Number of beta electrons                   I               29
Number of basis functions                  I              128
Number of independent functions            I              128
Number of point charges in /Mol/           I                0
Number of translation vectors              I                0
Atomic numbers                             I   N=          12
           7           1           6           8           6           1
           6           1           7           1           6           8
Nuclear charges                            R   N=          12
  7.00000000E+00  1.00000000E+00  6.00000000E+00  8.00000000E+00  6.00000000E+00
  1.00000000E+00  6.00000000E+00  1.00000000E+00  7.00000000E+00  1.00000000E+00
  6.00000000E+00  8.00000000E+00
Current cartesian coordinates              R   N=          36
  6.36729742E-02 -1.84886003E+00 -2.78918652E-06  8.90906899E-02 -3.77057938E+00
 -2.21012952E-06  2.44264645E+00 -6.56641970E-01 -6.88714068E-07  4.39117359E+00
 -1.91505241E+00  1.09573901E-06  2.27955163E+00  2.09162196E+00  6.84139120E-07
  4.01691433E+00  3.16938682E+00  2.04941287E-06 -6.36451304E-03  3.23211747E+00
  1.35217253E-07 -2.31925856E-01  5.27054989E+00 -2.50251557E-07 -2.21895039E+00
  1.86404117E+00 -1.83054110E-06 -3.92424282E+00  2.73391404E+00  1.43433787E-06
 -2.31673865E+00 -7.60653651E-01  2.19920013E-06 -4.29835658E+00 -1.95347287E+00
  1.07121963E-06
Force Field                                I                0
Int Atom Types                             I   N=          12
           0           0           0           0           0           0
           0           0           0           0           0           0
MM charges                                 R   N=          12
  0.00000000E+00  0.00000000E+00  0.00000000E+00  0.00000000E+00  0.00000000E+00
  0.00000000E+00  0.00000000E+00  0.00000000E+00  0.00000000E+00  0.00000000E+00
  0.00000000E+00  0.00000000E+00
Integer atomic weights                     I   N=          12
          14           1          12          16          12           1
          12           1          14           1          12          16
Real atomic weights                        R   N=          12
  1.40030740E+01  1.00782504E+00  1.20000000E+01  1.59949146E+01  1.20000000E+01
  1.00782504E+00  1.20000000E+01  1.00782504E+00  1.40030740E+01  1.00782504E+00
  1.20000000E+01  1.59949146E+01
Atom fragment info                         I   N=          12
           0           0           0           0           0           0
           0           0           0           0           0           0
Atom residue num                           I   N=          12
           0           0           0           0           0           0
           0           0           0           0           0           0
Nuclear spins                              I   N=          12
           2           1           0           0           0           1
           0           1           2           1           0           0
Nuclear ZEff                               R   N=          12
 -4.55000000E+00 -1.00000000E+00 -3.60000000E+00 -5.60000000E+00 -3.60000000E+00
 -1.00000000E+00 -3.60000000E+00 -1.00000000E+00 -4.55000000E+00 -1.00000000E+00
 -3.60000000E+00 -5.60000000E+00
Nuclear QMom                               R   N=          12
  2.04400000E+00  0.00000000E+00  0.00000000E+00  0.00000000E+00  0.00000000E+00
  0.00000000E+00  0.00000000E+00  0.00000000E+00  2.04400000E+00  0.00000000E+00
  0.00000000E+00  0.00000000E+00
Nuclear GFac                               R   N=          12
  4.03761000E-01  2.79284600E+00  0.00000000E+00  0.00000000E+00  0.00000000E+00
  2.79284600E+00  0.00000000E+00  2.79284600E+00  4.03761000E-01  2.79284600E+00
  0.00000000E+00  0.00000000E+00
MicOpt                                     I   N=          12
          -1          -1          -1          -1          -1          -1
          -1          -1          -1          -1          -1          -1
Number of contracted shells                I               40
Number of primitive shells                 I              104
Pure/Cartesian d shells                    I                1
Pure/Cartesian f shells                    I                0
Highest angular momentum                   I                2
Largest degree of contraction              I                6
Shell types                                I   N=          40
           0          -1          -1           2           0           0
           0          -1          -1           2           0          -1
          -1           2           0          -1          -1           2
           0           0           0          -1          -1           2
           0           0           0          -1          -1           2
           0           0           0          -1          -1           2
           0          -1          -1           2
Number of primitives per shell             I   N=          40
           6           3           1           1           3           1
           6           3           1           1           6           3
           1           1           6           3           1           1
           3           1           6           3           1           1
           3           1           6           3           1           1
           3           1           6           3           1           1
           6           3           1           1
Shell to atom map                          I   N=          40
           1           1           1           1           2           2
           3           3           3           3           4           4
           4           4           5           5           5           5
           6           6           7           7           7           7
           8           8           9           9           9           9
          10          10          11          11          11          11
          12          12          12          12
Primitive exponents                        R   N=         104
  4.17351146E+03  6.27457911E+02  1.42902093E+02  4.02343293E+01  1.28202129E+01
  4.39043701E+00  1.16263619E+01  2.71627981E+00  7.72218397E-01  2.12031498E-01
  8.00000000E-01  1.87311370E+01  2.82539436E+00  6.40121692E-01  1.61277759E-01
  3.04752488E+03  4.57369518E+02  1.03948685E+02  2.92101553E+01  9.28666296E+00
  3.16392696E+00  7.86827235E+00  1.88128854E+00  5.44249258E-01  1.68714478E-01
  8.00000000E-01  5.48467166E+03  8.25234946E+02  1.88046958E+02  5.29645000E+01
  1.68975704E+01  5.79963534E+00  1.55396162E+01  3.59993359E+00  1.01376175E+00
  2.70005823E-01  8.00000000E-01  3.04752488E+03  4.57369518E+02  1.03948685E+02
  2.92101553E+01  9.28666296E+00  3.16392696E+00  7.86827235E+00  1.88128854E+00
  5.44249258E-01  1.68714478E-01  8.00000000E-01  1.87311370E+01  2.82539436E+00
  6.40121692E-01  1.61277759E-01  3.04752488E+03  4.57369518E+02  1.03948685E+02
  2.92101553E+01  9.28666296E+00  3.16392696E+00  7.86827235E+00  1.88128854E+00
  5.44249258E-01  1.68714478E-01  8.00000000E-01  1.87311370E+01  2.82539436E+00
  6.40121692E-01  1.61277759E-01  4.17351146E+03  6.27457911E+02  1.42902093E+02
  4.02343293E+01  1.28202129E+01  4.39043701E+00  1.16263619E+01  2.71627981E+00
  7.72218397E-01  2.12031498E-01  8.00000000E-01  1.87311370E+01  2.82539436E+00
  6.40121692E-01  1.61277759E-01  3.04752488E+03  4.57369518E+02  1.03948685E+02
  2.92101553E+01  9.28666296E+00  3.16392696E+00  7.86827235E+00  1.88128854E+00
  5.44249258E-01  1.68714478E-01  8.00000000E-01  5.48467166E+03  8.25234946E+02
  1.88046958E+02  5.29645000E+01  1.68975704E+01  5.79963534E+00  1.55396162E+01
  3.59993359E+00  1.01376175E+00  2.70005823E-01  8.00000000E-01
Contraction coefficients                   R   N=         104
  1.83477216E-03  1.39946270E-02  6.85865518E-02  2.32240873E-01  4.69069948E-01
  3.60455199E-01 -1.14961182E-01 -1.69117479E-01  1.14585195E+00  1.00000000E+00
  1.00000000E+00  3.34946043E-02  2.34726953E-01  8.13757326E-01  1.00000000E+00
  1.83473713E-03  1.40373228E-02  6.88426223E-02  2.32184443E-01  4.67941348E-01
  3.62311985E-01 -1.19332420E-01 -1.60854152E-01  1.14345644E+00  1.00000000E+00
  1.00000000E+00  1.83107443E-03  1.39501722E-02  6.84450781E-02  2.32714336E-01
  4.70192898E-01  3.58520853E-01 -1.10777550E-01 -1.48026263E-01  1.13076702E+00
  1.00000000E+00  1.00000000E+00  1.83473713E-03  1.40373228E-02  6.88426223E-02
  2.32184443E-01  4.67941348E-01  3.62311985E-01 -1.19332420E-01 -1.60854152E-01
  1.14345644E+00  1.00000000E+00  1.00000000E+00  3.34946043E-02  2.34726953E-01
  8.13757326E-01  1.00000000E+00  1.83473713E-03  1.40373228E-02  6.88426223E-02
  2.32184443E-01  4.67941348E-01  3.62311985E-01 -1.19332420E-01 -1.60854152E-01
  1.14345644E+00  1.00000000E+00  1.00000000E+00  3.34946043E-02  2.34726953E-01
  8.13757326E-01  1.00000000E+00  1.83477216E-03  1.39946270E-02  6.85865518E-02
  2.32240873E-01  4.69069948E-01  3.60455199E-01 -1.14961182E-01 -1.69117479E-01
  1.14585195E+00  1.00000000E+00  1.00000000E+00  3.34946043E-02  2.34726953E-01
  8.13757326E-01  1.00000000E+00  1.83473713E-03  1.40373228E-02  6.88426223E-02
  2.32184443E-01  4.67941348E-01  3.62311985E-01 -1.19332420E-01 -1.60854152E-01
  1.14345644E+00  1.00000000E+00  1.00000000E+00  1.83107443E-03  1.39501722E-02
  6.84450781E-02  2.32714336E-01  4.70192898E-01  3.58520853E-01 -1.10777550E-01
 -1.48026263E-01  1.13076702E+00  1.00000000E+00  1.00000000E+00
P(S=P) Contraction coefficients            R   N=         104
  0.00000000E+00  0.00000000E+00  0.00000000E+00  0.00000000E+00  0.00000000E+00
  0.00000000E+00  6.75797439E-02  3.23907296E-01  7.40895140E-01  1.00000000E+00
  0.00000000E+00  0.00000000E+00  0.00000000E+00  0.00000000E+00  0.00000000E+00
  0.00000000E+00  0.00000000E+00  0.00000000E+00  0.00000000E+00  0.00000000E+00
  0.00000000E+00  6.89990666E-02  3.16423961E-01  7.44308291E-01  1.00000000E+00
  0.00000000E+00  0.00000000E+00  0.00000000E+00  0.00000000E+00  0.00000000E+00
  0.00000000E+00  0.00000000E+00  7.08742682E-02  3.39752839E-01  7.27158577E-01
  1.00000000E+00  0.00000000E+00  0.00000000E+00  0.00000000E+00  0.00000000E+00
  0.00000000E+00  0.00000000E+00  0.00000000E+00  6.89990666E-02  3.16423961E-01
  7.44308291E-01  1.00000000E+00  0.00000000E+00  0.00000000E+00  0.00000000E+00
  0.00000000E+00  0.00000000E+00  0.00000000E+00  0.00000000E+00  0.00000000E+00
  0.00000000E+00  0.00000000E+00  0.00000000E+00  6.89990666E-02  3.16423961E-01
  7.44308291E-01  1.00000000E+00  0.00000000E+00  0.00000000E+00  0.00000000E+00
  0.00000000E+00  0.00000000E+00  0.00000000E+00  0.00000000E+00  0.00000000E+00
  0.00000000E+00  0.00000000E+00  0.00000000E+00  6.75797439E-02  3.23907296E-01
  7.40895140E-01  1.00000000E+00  0.00000000E+00  0.00000000E+00  0.00000000E+00
  0.00000000E+00  0.00000000E+00  0.00000000E+00  0.00000000E+00  0.00000000E+00
  0.00000000E+00  0.00000000E+00  0.00000000E+00  6.89990666E-02  3.16423961E-01
  7.44308291E-01  1.00000000E+00  0.00000000E+00  0.00000000E+00  0.00000000E+00
  0.00000000E+00  0.00000000E+00  0.00000000E+00  0.00000000E+00  7.08742682E-02
  3.39752839E-01  7.27158577E-01  1.00000000E+00  0.00000000E+00
Coordinates of each shell                  R   N=         120
  6.36729742E-02 -1.84886003E+00 -2.78918652E-06  6.36729742E-02 -1.84886003E+00
 -2.78918652E-06  6.36729742E-02 -1.84886003E+00 -2.78918652E-06  6.36729742E-02
 -1.84886003E+00 -2.78918652E-06  8.90906899E-02 -3.77057938E+00 -2.21012952E-06
  8.90906899E-02 -3.77057938E+00 -2.21012952E-06  2.44264645E+00 -6.56641970E-01
 -6.88714068E-07  2.44264645E+00 -6.56641970E-01 -6.88714068E-07  2.44264645E+00
 -6.56641970E-01 -6.88714068E-07  2.44264645E+00 -6.56641970E-01 -6.88714068E-07
  4.39117359E+00 -1.91505241E+00  1.09573901E-06  4.39117359E+00 -1.91505241E+00
  1.09573901E-06  4.39117359E+00 -1.91505241E+00  1.09573901E-06  4.39117359E+00
 -1.91505241E+00  1.09573901E-06  2.27955163E+00  2.09162196E+00  6.84139120E-07
  2.27955163E+00  2.09162196E+00  6.84139120E-07  2.27955163E+00  2.09162196E+00
  6.84139120E-07  2.27955163E+00  2.09162196E+00  6.84139120E-07  4.01691433E+00
  3.16938682E+00  2.04941287E-06  4.01691433E+00  3.16938682E+00  2.04941287E-06
 -6.36451304E-03  3.23211747E+00  1.35217253E-07 -6.36451304E-03  3.23211747E+00
  1.35217253E-07 -6.36451304E-03  3.23211747E+00  1.35217253E-07 -6.36451304E-03
  3.23211747E+00  1.35217253E-07 -2.31925856E-01  5.27054989E+00 -2.50251557E-07
 -2.31925856E-01  5.27054989E+00 -2.50251557E-07 -2.21895039E+00  1.86404117E+00
 -1.83054110E-06 -2.21895039E+00  1.86404117E+00 -1.83054110E-06 -2.21895039E+00
  1.86404117E+00 -1.83054110E-06 -2.21895039E+00  1.86404117E+00 -1.83054110E-06
 -3.92424282E+00  2.73391404E+00  1.43433787E-06 -3.92424282E+00  2.73391404E+00
  1.43433787E-06 -2.31673865E+00 -7.60653651E-01  2.19920013E-06 -2.31673865E+00
 -7.60653651E-01  2.19920013E-06 -2.31673865E+00 -7.60653651E-01  2.19920013E-06
 -2.31673865E+00 -7.60653651E-01  2.19920013E-06 -4.29835658E+00 -1.95347287E+00
  1.07121963E-06 -4.29835658E+00 -1.95347287E+00  1.07121963E-06 -4.29835658E+00
 -1.95347287E+00  1.07121963E-06 -4.29835658E+00 -1.95347287E+00  1.07121963E-06
Constraint Structure                       R   N=          36
  6.36729742E-02 -1.84886003E+00 -2.78918652E-06  8.90906899E-02 -3.77057938E+00
 -2.21012952E-06  2.44264645E+00 -6.56641970E-01 -6.88714068E-07  4.39117359E+00
 -1.91505241E+00  1.09573901E-06  2.27955163E+00  2.09162196E+00  6.84139120E-07
  4.01691433E+00  3.16938682E+00  2.04941287E-06 -6.36451304E-03  3.23211747E+00
  1.35217253E-07 -2.31925856E-01  5.27054989E+00 -2.50251557E-07 -2.21895039E+00
  1.86404117E+00 -1.83054110E-06 -3.92424282E+00  2.73391404E+00  1.43433787E-06
 -2.31673865E+00 -7.60653651E-01  2.19920013E-06 -4.29835658E+00 -1.95347287E+00
  1.07121963E-06
Num ILSW                                   I              100
ILSW                                       I   N=         100
           0           1           0           0           2           0
           0           0           0           0           0          -1
           0           0           0           0           0           0
           0           0           0           0           1           0
           1           0           0           0           0           0
           0           0      100000           0          -1           0
           0           0           0           0           0           0
           0           0           0           1           1           0
           0           0           1           0           0           0
           0           0           4          40           0           0
           0           0           0           0           0           0
           0           0           0           0           0           0
           0           0           0           0           0           0
           0           0           0           0           0           0
           0           0           0           0           0           0
           0           0           0           0           0           0
           0           0           0           0
Num RLSW                                   I               40
RLSW                                       R   N=          40
  1.00000000E+00  1.00000000E+00  1.00000000E+00  1.00000000E+00  1.00000000E+00
  0.00000000E+00  0.00000000E+00  1.00000000E+00  0.00000000E+00  0.00000000E+00
  0.00000000E+00  0.00000000E+00  1.00000000E+00  0.00000000E+00  0.00000000E+00
  0.00000000E+00  0.00000000E+00  1.00000000E+00  0.00000000E+00  0.00000000E+00
  0.00000000E+00  0.00000000E+00  1.00000000E+00  0.00000000E+00  0.00000000E+00
  0.00000000E+00  0.00000000E+00  1.00000000E+00  0.00000000E+00  0.00000000E+00
  0.00000000E+00  0.00000000E+00  0.00000000E+00  0.00000000E+00  0.00000000E+00
  0.00000000E+00  0.00000000E+00  0.00000000E+00  1.00000000E+00  1.00000000E+00
MxBond                                     I                3
NBond                                      I   N=          12
           3           1           3           1           3           1
           3           1           3           1           3           1
IBond                                      I   N=          36
           2           3          11           1           0           0
           1           4           5           3           0           0
           3           6           7           5           0           0
           5           8           9           7           0           0
           7          10          11           9           0           0
           1           9          12          11           0           0
RBond                                      R   N=          36
  1.00000000E+00  1.00000000E+00  1.00000000E+00  1.00000000E+00  0.00000000E+00
  0.00000000E+00  1.00000000E+00  2.00000000E+00  1.00000000E+00  2.00000000E+00
  0.00000000E+00  0.00000000E+00  1.00000000E+00  1.00000000E+00  2.00000000E+00
  1.00000000E+00  0.00000000E+00  0.00000000E+00  2.00000000E+00  1.00000000E+00
  1.50000000E+00  1.00000000E+00  0.00000000E+00  0.00000000E+00  1.50000000E+00
  1.00000000E+00  1.00000000E+00  1.00000000E+00  0.00000000E+00  0.00000000E+00
  1.00000000E+00  1.00000000E+00  2.00000000E+00  2.00000000E+00  0.00000000E+00
  0.00000000E+00
Virial Ratio                               R      2.003279316922600E+00
SCF Energy                                 R     -4.124639487244515E+02
MP2 Energy                                 R     -4.136325894487137E+02
Total Energy                               R     -4.136325894487137E+02
Post-SCF wavefunction norm                 R      1.654632646713052E+00
RMS Force                                  R      8.410796356698940E-07
RMS Density                                R      3.516927518512588E-09
External E-field                           R   N=          35
  0.00000000E+00  0.00000000E+00  0.00000000E+00  0.00000000E+00  0.00000000E+00
  0.00000000E+00  0.00000000E+00  0.00000000E+00  0.00000000E+00  0.00000000E+00
  0.00000000E+00  0.00000000E+00  0.00000000E+00  0.00000000E+00  0.00000000E+00
  0.00000000E+00  0.00000000E+00  0.00000000E+00  0.00000000E+00  0.00000000E+00
  0.00000000E+00  0.00000000E+00  0.00000000E+00  0.00000000E+00  0.00000000E+00
  0.00000000E+00  0.00000000E+00  0.00000000E+00  0.00000000E+00  0.00000000E+00
  0.00000000E+00  0.00000000E+00  0.00000000E+00  0.00000000E+00  0.00000000E+00
IOpCl                                      I                0
IROHF                                      I                0
Alpha Orbital Energies                     R   N=         128
 -2.05523128E+01 -2.05463366E+01 -1.56498161E+01 -1.56309182E+01 -1.14237912E+01
 -1.13840695E+01 -1.13440562E+01 -1.12578480E+01 -1.42741006E+00 -1.38837120E+00
 -1.30694663E+00 -1.23935076E+00 -1.08469945E+00 -9.28488354E-01 -8.96915000E-01
 -8.01596823E-01 -7.58175638E-01 -7.10074470E-01 -6.69936656E-01 -6.59971802E-01
 -6.45707192E-01 -6.07864362E-01 -5.96149213E-01 -5.61538176E-01 -5.18567207E-01
 -4.76392949E-01 -4.41711129E-01 -4.27823631E-01 -3.63100056E-01  9.93873208E-02
  1.73661945E-01  1.89694693E-01  2.48724048E-01  2.54887347E-01  2.97025930E-01
  3.17470208E-01  3.69428862E-01  3.96835265E-01  4.20740711E-01  4.42952161E-01
  4.98594105E-01  5.31334211E-01  5.48338233E-01  6.61248345E-01  6.91804172E-01
  7.10005022E-01  7.40902513E-01  7.79670528E-01  7.81426647E-01  7.98981485E-01
  8.05203755E-01  8.62905486E-01  8.84178192E-01  8.94380620E-01  9.33025979E-01
  9.82708688E-01  9.95963737E-01  1.02335406E+00  1.06289514E+00  1.07762663E+00
  1.09315175E+00  1.09498992E+00  1.11256615E+00  1.14604856E+00  1.16980581E+00
  1.22915827E+00  1.26150614E+00  1.30517564E+00  1.31347189E+00  1.32986777E+00
  1.35957652E+00  1.38473265E+00  1.42975720E+00  1.45172919E+00  1.55310719E+00
  1.58604620E+00  1.59111253E+00  1.64014083E+00  1.67748373E+00  1.68204485E+00
  1.69994577E+00  1.71260669E+00  1.71835417E+00  1.81365948E+00  1.87181143E+00
  2.02123818E+00  2.04253697E+00  2.08230265E+00  2.09238223E+00  2.09656453E+00
  2.11953517E+00  2.13819908E+00  2.20249136E+00  2.26124864E+00  2.26599412E+00
  2.28146517E+00  2.30546726E+00  2.36912369E+00  2.44305623E+00  2.47168743E+00
  2.47937795E+00  2.52107497E+00  2.58156441E+00  2.61926299E+00  2.62176585E+00
  2.70504183E+00  2.87126779E+00  2.92239086E+00  2.92906330E+00  2.95595259E+00
  2.96688184E+00  2.99079409E+00  3.06303051E+00  3.13361458E+00  3.16500574E+00
  3.31550924E+00  3.33426208E+00  3.34871800E+00  3.57052902E+00  3.75338943E+00
  4.31583710E+00  4.36526358E+00  4.39149091E+00  4.54613037E+00  4.58602561E+00
  4.77392563E+00  4.98496758E+00  5.06019702E+00
Alpha MO coefficients                      R   N=       16384
 -1.20474865E-05 -4.12561623E-05  2.91100972E-05  4.68025583E-06 -1.00709809E-11
  2.67074884E-04 -1.51671072E-04  1.58623310E-04  2.94271041E-10 -8.95905327E-05
  4.54513705E-05 -5.19968399E-05 -8.24248010E-05 -1.74295301E-10  3.69178405E-10
  2.33784071E-06  2.10197005E-06  1.17958702E-05  4.38842946E-05 -2.53717866E-05
 -1.25881236E-05 -1.97791255E-11 -1.93649279E-04  3.00732854E-04 -3.33859250E-04
 -1.90844284E-10  3.08440386E-05  2.60819729E-05  2.21898449E-05  2.89423098E-05
  1.05452278E-10  1.90594023E-11  1.47831213E-06  5.66767386E-05 -4.39868232E-06
  2.18685371E-06 -3.26580047E-11 -3.68539008E-04  7.97992482E-05 -3.02165915E-05
  2.20569436E-10  3.09188861E-05  3.55579015E-05  3.45742675E-05  2.62472888E-06
 -1.37326454E-11  6.37611945E-12 -2.77723394E-06 -1.72911950E-05 -8.67974055E-06
 -1.14505013E-05 -1.36304888E-11  5.52859701E-04 -2.35767900E-04 -1.39443726E-04
 -7.96309539E-11  3.25388637E-06 -5.85052161E-06  7.96771776E-07  1.18753522E-05
  5.62366678E-12  1.13832655E-12  2.72884868E-06  5.43583641E-05  7.24859220E-06
  3.93122608E-05 -2.03474375E-05 -1.51337572E-05 -2.16903619E-11 -3.74956307E-04
 -1.04421309E-04  3.20545908E-04 -1.44446809E-10  3.94087665E-05 -1.70480780E-05
  1.61985222E-05  1.02398843E-05  7.08287463E-11  5.42578903E-11 -1.02523896E-05
 -1.09449176E-04 -1.38566566E-05 -5.03539093E-05  1.53239733E-05  2.70437390E-05
 -1.24266091E-11  2.98136564E-04  9.68659805E-05 -1.46847391E-04  2.07882290E-10
 -3.84221178E-05 -1.47723037E-05 -5.75072585E-05 -1.04129949E-04  2.21084148E-10
 -2.27594783E-10 -1.27688418E-06  4.27576820E-06 -5.70588201E-06  5.29603954E-04
  2.91901105E-05  2.13898217E-05  2.85717733E-10 -7.64244008E-04  3.52995894E-04
  2.35916991E-04  7.77460069E-10 -6.58092650E-04 -2.58296078E-04 -4.11190863E-05
 -4.26961927E-04 -3.79863983E-10 -2.45212309E-10  9.94691614E-01  2.09955822E-02
  1.39858995E-03  8.50274256E-04  1.41056991E-09  4.52341122E-03 -1.29159156E-05
 -1.26919959E-05 -3.87735000E-10 -3.68537423E-03 -3.83544554E-03 -4.08041882E-03
  1.68286719E-04 -2.44922599E-10 -7.83346431E-11 -9.75201708E-06 -2.92443184E-05
 -4.50316745E-05 -1.50679781E-06 -7.50419895E-11  1.24594228E-04  1.85424538E-04
  2.48233928E-05  9.46534602E-11 -9.65936295E-05  3.49265244E-05 -4.78996517E-05
  5.24038512E-05  4.84889200E-11  8.19130300E-11 -8.65229741E-06 -2.46238893E-05
 -7.72048060E-06  4.98906208E-04 -2.58409561E-05  1.00471537E-05 -6.70847642E-11
 -4.23739712E-04 -4.73126064E-04  5.38586297E-04 -1.78746187E-10 -5.90312712E-04
 -2.74195384E-04 -4.82276282E-05  4.06885803E-04 -5.61636059E-10  3.63688079E-10
  9.94691226E-01  2.09427991E-02 -1.34268121E-03  8.28820834E-04 -1.37728245E-09
  4.65989830E-03 -1.30181136E-05 -1.78101642E-05 -5.46543684E-11 -3.70993692E-03
 -3.83237751E-03 -4.12170550E-03 -1.51770496E-04  5.83022712E-10 -3.58910984E-11
  5.43769631E-07  4.48921508E-06 -1.78628773E-05 -9.74486345E-07 -4.56161342E-11
 -1.96696023E-04  2.94073018E-06  1.27383427E-04  1.21399739E-10 -1.38467308E-05
  1.23858132E-05 -1.50740306E-05  8.24827518E-05  3.87458753E-11  1.07957611E-10
 -4.24953240E-06 -1.66100610E-05  3.24483216E-06  2.50396513E-05  1.90076733E-05
 -5.26455830E-06 -2.52345681E-11 -4.89712555E-05 -4.97964400E-05  5.48148407E-05
 -3.02831625E-12  3.25710971E-05 -2.01176517E-05  6.26459222E-06  5.07204291E-06
  3.86188787E-11 -2.85682464E-11  3.27475637E-06 -3.02256353E-05 -6.61547184E-07
 -1.11911083E-06  5.81436697E-06 -3.75251021E-06 -4.39489901E-11  1.44582613E-04
  4.01502291E-06 -7.14920722E-05  3.21524678E-10 -5.07822435E-06 -9.33625269E-06
  7.05160525E-06 -1.34114381E-05  3.45045651E-11 -3.03320257E-11 -3.34112783E-06
 -9.79616579E-07  9.69781225E-06  3.43197499E-05  2.86888788E-05 -1.58426449E-05
 -9.45377080E-11  1.47773448E-05 -1.66774109E-04 -2.44906833E-04 -1.38224564E-10
  3.34871524E-05  2.47798413E-05  1.78740505E-05 -2.68002172E-05 -9.74335055E-11
  1.14220903E-10  2.18758993E-05  5.01065477E-05  4.27483258E-06  1.76708683E-06
  2.25500249E-11 -3.04743614E-04 -7.82834308E-05 -2.52073634E-05 -8.65962854E-11
  2.44848520E-05  2.98408302E-05  3.21464920E-05 -4.57797898E-06 -1.62173239E-11
  1.08408275E-12 -5.36944330E-04  1.29052666E-05  5.30059171E-05 -5.07053038E-06
 -7.38216723E-11 -8.01645416E-04 -3.20555852E-04 -6.89783989E-04  2.96910884E-11
  5.76420973E-05  4.09751118E-05 -4.74017676E-06  1.68797003E-05 -2.44770652E-10
 -3.59098499E-10 -9.12161528E-05 -1.36890001E-06 -5.14867380E-06 -3.81369864E-05
 -3.05698960E-05 -6.56740799E-06  1.31798958E-10  1.31395237E-03 -5.93870669E-04
  6.23879171E-04 -7.55373303E-10  7.76870933E-06  1.82801272E-05 -1.14562428E-05
 -8.37739897E-08  6.53362029E-11  4.07393459E-11 -1.19999475E-05 -5.06572448E-05
  9.68812621E-06  3.71152350E-06 -4.59166434E-11  3.47243233E-04 -6.50587082E-05
 -2.69581679E-05  1.48929251E-10 -2.67842846E-05 -4.10279787E-05 -3.54347284E-05
  1.14914647E-05 -9.72278922E-12  4.96341859E-11  2.74358508E-05  1.28477198E-04
  3.06151057E-05 -2.71343960E-05  8.75372692E-11 -2.02069537E-03  1.08119837E-03
  8.51606954E-04  4.75222163E-10 -8.68478703E-06  3.75610120E-05  3.05815225E-05
 -7.14873347E-06  9.77622693E-11 -5.58007881E-11 -5.08503380E-05 -3.40998456E-04
  1.05349553E-05  1.69906522E-04 -1.88379946E-04 -1.08327316E-04 -6.22159181E-11
  2.49731912E-03 -2.35010632E-04 -1.64844745E-03  3.57964453E-10 -1.48816434E-04
 -4.64674959E-05 -8.78490428E-05 -3.88188497E-05 -2.09908584E-10  3.15260081E-11
  1.09989295E-05  3.98319030E-04  9.94957514E-01  2.54882842E-02  2.20549705E-04
 -6.45314349E-05  6.37970701E-09 -4.35264495E-03 -1.14981700E-03  8.81976115E-04
 -6.19418070E-09 -3.43620753E-03 -3.45287154E-03 -3.33852599E-03  1.41332395E-05
 -3.53921436E-10  4.75924189E-10  2.01030590E-04  5.13468765E-05  1.05014857E-05
  1.81390752E-04  2.76295916E-05  2.62719704E-04 -2.10853114E-10  1.62513914E-03
  8.05143336E-04  1.84312302E-03 -1.87980857E-09 -4.88973074E-05 -1.18772551E-04
 -7.08484833E-05  3.35499742E-05 -1.45916936E-10  8.33149066E-14 -2.87255200E-05
 -1.63602212E-04 -3.25593839E-05 -7.96585468E-06 -2.27583198E-10  1.01020474E-03
  3.21410533E-04 -1.74367729E-04  1.18336240E-09 -3.81247301E-05 -1.46885443E-04
 -1.19897731E-04 -4.03150939E-05  2.44841499E-10 -1.36558152E-11  9.94973852E-01
  2.55090939E-02 -1.60180421E-04  2.10176046E-04  4.83431980E-09 -4.84532894E-03
  1.80490383E-04 -1.37794585E-03 -6.08433624E-09 -3.41033106E-03 -3.42622831E-03
 -3.31564073E-03 -1.87930064E-05  2.64411827E-10 -5.53528685E-10  2.29447790E-04
  9.78949293E-05 -7.31394881E-06  9.77614410E-05 -2.12500084E-04 -9.52141040E-05
 -8.57339688E-11  1.78505185E-03 -2.23197341E-03  1.94986410E-04 -3.46256651E-10
 -8.25712391E-05 -9.46628592E-05 -9.86294193E-05 -3.46645209E-05 -1.10423900E-10
 -2.02950555E-10 -3.46239406E-05 -1.90984981E-04  2.28335182E-05 -1.92622074E-05
  5.50245384E-12  1.22865217E-03 -4.74209500E-05  3.56853174E-04 -4.18312587E-10
 -1.57432522E-04 -5.73651914E-05 -1.32084286E-04 -2.66401011E-05  4.65785904E-12
 -1.33095114E-10  1.76220212E-05  7.02461567E-05 -1.73129158E-05  5.56490054E-05
  1.61052538E-10 -1.49332650E-03  1.40114549E-03  2.28320574E-04  4.66639370E-10
  8.21621066E-06  2.90511310E-06  1.34858874E-05 -2.23440365E-05 -1.75705200E-11
  6.85555211E-11 -7.67279276E-05 -3.46907219E-04  2.30795091E-06 -8.17411146E-06
 -1.01349858E-05 -2.68906802E-05  1.20890101E-10  1.59017446E-03  2.73024549E-04
 -6.00254422E-04 -7.94912738E-10  3.19667319E-05  8.05839091E-06 -1.66746279E-06
 -1.18832473E-05  3.37898644E-11  1.27247619E-10 -8.51530532E-06  1.02564242E-04
  5.71073844E-04  2.86677899E-05  1.82889838E-05  5.37529420E-05 -6.78917571E-11
 -7.02516537E-04 -7.60408835E-04 -2.18125329E-05  4.52404714E-10  4.89394753E-05
  3.38565211E-05 -1.65012395E-05  2.04737822E-05 -5.19264427E-10 -6.27183167E-11
 -9.11896285E-05 -9.91422143E-06  7.69658572E-06  1.99131656E-04  2.25525536E-04
 -7.89250553E-05 -2.32487811E-10  1.60660039E-03  2.08665626E-03 -1.64529509E-04
 -2.70043545E-09 -1.41579210E-04 -1.04857834E-04 -7.53023994E-05  8.24550077E-05
  9.34352941E-11 -2.18595184E-10 -3.15467616E-05 -1.76019067E-04 -2.25891605E-05
 -2.38411189E-05 -2.33373454E-10  1.08894772E-03  1.13095857E-05  3.92690473E-04
  1.45678005E-09 -1.62626615E-04 -3.14161854E-05 -1.30933159E-04  3.85500710E-05
  1.46183378E-10  3.15571094E-10 -2.49859270E-04  2.77310426E-04 -8.94574809E-05
  7.70016280E-06 -1.05456711E-10  3.54354468E-04  1.41092662E-03 -6.84925162E-04