8518                                                                    
Freq      RMP2-FC                                                     6-31G(d)            
Number of atoms                            I               21
Info1-9                                    I   N=           9
          33          31        1002           0           0         100
           6           2           1
Charge                                     I                0
Multiplicity                               I                1
Number of electrons                        I              130
Number of alpha electrons                  I               65
Number of beta electrons                   I               65
Number of basis functions                  I              276
Number of independent functions            I              276
Number of point charges in /Mol/           I                0
Number of translation vectors              I                0
Atomic numbers                             I   N=          21
           8           8           8           8           8           8
           8           8           7           7           7           6
           6           6           6           6           6           6
           1           1           1
Nuclear charges                            R   N=          21
  8.00000000E+00  8.00000000E+00  8.00000000E+00  8.00000000E+00  8.00000000E+00
  8.00000000E+00  8.00000000E+00  8.00000000E+00  7.00000000E+00  7.00000000E+00
  7.00000000E+00  6.00000000E+00  6.00000000E+00  6.00000000E+00  6.00000000E+00
  6.00000000E+00  6.00000000E+00  6.00000000E+00  1.00000000E+00  1.00000000E+00
  1.00000000E+00
Current cartesian coordinates              R   N=          63
 -5.50451103E+00 -9.03532432E-01  1.91586767E+00 -5.60893187E+00  9.72836045E-01
 -1.97187505E+00 -5.91423984E-01 -6.48362428E+00  8.77127869E-01 -4.89383508E-01
  6.51375461E+00 -9.07363601E-01 -3.59273391E+00 -4.69002630E+00 -1.42122123E+00
 -3.47843022E+00  4.76368365E+00  1.44468564E+00  7.48285406E+00 -2.15212839E+00
 -4.53915099E-02  7.52481687E+00  2.02054361E+00  8.12116989E-02 -1.59477529E+00
 -4.65579439E+00 -1.93803780E-01 -1.50554921E+00  4.70222279E+00  1.78275388E-01
  6.43825053E+00 -5.49592151E-02  1.29183866E-02 -1.63321996E+00  2.73734059E-02
 -2.23836398E-02 -2.53707333E-01 -2.22392708E+00 -4.47723982E-02 -2.06542209E-01
  2.24924088E+00  9.74151961E-03  3.64832177E+00 -2.60213926E-02 -5.58486123E-04
  2.37001766E+00 -2.31756489E+00 -6.78663634E-03  2.41674898E+00  2.29214395E+00
  3.34782316E-03 -4.47211222E+00  1.02443571E-01 -1.81077179E-01  3.37037620E+00
 -4.10538093E+00  7.20377026E-03  3.45214288E+00  4.06012186E+00  4.56585164E-03
 -7.34309265E+00 -8.49208040E-01  1.67710248E+00
Force Field                                I                0
Int Atom Types                             I   N=          21
           0           0           0           0           0           0
           0           0           0           0           0           0
           0           0           0           0           0           0
           0           0           0
MM charges                                 R   N=          21
  0.00000000E+00  0.00000000E+00  0.00000000E+00  0.00000000E+00  0.00000000E+00
  0.00000000E+00  0.00000000E+00  0.00000000E+00  0.00000000E+00  0.00000000E+00
  0.00000000E+00  0.00000000E+00  0.00000000E+00  0.00000000E+00  0.00000000E+00
  0.00000000E+00  0.00000000E+00  0.00000000E+00  0.00000000E+00  0.00000000E+00
  0.00000000E+00
Integer atomic weights                     I   N=          21
          16          16          16          16          16          16
          16          16          14          14          14          12
          12          12          12          12          12          12
           1           1           1
Real atomic weights                        R   N=          21
  1.59949146E+01  1.59949146E+01  1.59949146E+01  1.59949146E+01  1.59949146E+01
  1.59949146E+01  1.59949146E+01  1.59949146E+01  1.40030740E+01  1.40030740E+01
  1.40030740E+01  1.20000000E+01  1.20000000E+01  1.20000000E+01  1.20000000E+01
  1.20000000E+01  1.20000000E+01  1.20000000E+01  1.00782504E+00  1.00782504E+00
  1.00782504E+00
Atom fragment info                         I   N=          21
           0           0           0           0           0           0
           0           0           0           0           0           0
           0           0           0           0           0           0
           0           0           0
Atom residue num                           I   N=          21
           0           0           0           0           0           0
           0           0           0           0           0           0
           0           0           0           0           0           0
           0           0           0
Nuclear spins                              I   N=          21
           0           0           0           0           0           0
           0           0           2           2           2           0
           0           0           0           0           0           0
           1           1           1
Nuclear ZEff                               R   N=          21
 -5.60000000E+00 -5.60000000E+00 -5.60000000E+00 -5.60000000E+00 -5.60000000E+00
 -5.60000000E+00 -5.60000000E+00 -5.60000000E+00 -4.55000000E+00 -4.55000000E+00
 -4.55000000E+00 -3.60000000E+00 -3.60000000E+00 -3.60000000E+00 -3.60000000E+00
 -3.60000000E+00 -3.60000000E+00 -3.60000000E+00 -1.00000000E+00 -1.00000000E+00
 -1.00000000E+00
Nuclear QMom                               R   N=          21
  0.00000000E+00  0.00000000E+00  0.00000000E+00  0.00000000E+00  0.00000000E+00
  0.00000000E+00  0.00000000E+00  0.00000000E+00  2.04400000E+00  2.04400000E+00
  2.04400000E+00  0.00000000E+00  0.00000000E+00  0.00000000E+00  0.00000000E+00
  0.00000000E+00  0.00000000E+00  0.00000000E+00  0.00000000E+00  0.00000000E+00
  0.00000000E+00
Nuclear GFac                               R   N=          21
  0.00000000E+00  0.00000000E+00  0.00000000E+00  0.00000000E+00  0.00000000E+00
  0.00000000E+00  0.00000000E+00  0.00000000E+00  4.03761000E-01  4.03761000E-01
  4.03761000E-01  0.00000000E+00  0.00000000E+00  0.00000000E+00  0.00000000E+00
  0.00000000E+00  0.00000000E+00  0.00000000E+00  2.79284600E+00  2.79284600E+00
  2.79284600E+00
MicOpt                                     I   N=          21
          -1          -1          -1          -1          -1          -1
          -1          -1          -1          -1          -1          -1
          -1          -1          -1          -1          -1          -1
          -1          -1          -1
Number of contracted shells                I               78
Number of primitive shells                 I              210
Pure/Cartesian d shells                    I                1
Pure/Cartesian f shells                    I                0
Highest angular momentum                   I                2
Largest degree of contraction              I                6
Shell types                                I   N=          78
           0          -1          -1           2           0          -1
          -1           2           0          -1          -1           2
           0          -1          -1           2           0          -1
          -1           2           0          -1          -1           2
           0          -1          -1           2           0          -1
          -1           2           0          -1          -1           2
           0          -1          -1           2           0          -1
          -1           2           0          -1          -1           2
           0          -1          -1           2           0          -1
          -1           2           0          -1          -1           2
           0          -1          -1           2           0          -1
          -1           2           0          -1          -1           2
           0           0           0           0           0           0
Number of primitives per shell             I   N=          78
           6           3           1           1           6           3
           1           1           6           3           1           1
           6           3           1           1           6           3
           1           1           6           3           1           1
           6           3           1           1           6           3
           1           1           6           3           1           1
           6           3           1           1           6           3
           1           1           6           3           1           1
           6           3           1           1           6           3
           1           1           6           3           1           1
           6           3           1           1           6           3
           1           1           6           3           1           1
           3           1           3           1           3           1
Shell to atom map                          I   N=          78
           1           1           1           1           2           2
           2           2           3           3           3           3
           4           4           4           4           5           5
           5           5           6           6           6           6
           7           7           7           7           8           8
           8           8           9           9           9           9
          10          10          10          10          11          11
          11          11          12          12          12          12
          13          13          13          13          14          14
          14          14          15          15          15          15
          16          16          16          16          17          17
          17          17          18          18          18          18
          19          19          20          20          21          21
Primitive exponents                        R   N=         210
  5.48467166E+03  8.25234946E+02  1.88046958E+02  5.29645000E+01  1.68975704E+01
  5.79963534E+00  1.55396162E+01  3.59993359E+00  1.01376175E+00  2.70005823E-01
  8.00000000E-01  5.48467166E+03  8.25234946E+02  1.88046958E+02  5.29645000E+01
  1.68975704E+01  5.79963534E+00  1.55396162E+01  3.59993359E+00  1.01376175E+00
  2.70005823E-01  8.00000000E-01  5.48467166E+03  8.25234946E+02  1.88046958E+02
  5.29645000E+01  1.68975704E+01  5.79963534E+00  1.55396162E+01  3.59993359E+00
  1.01376175E+00  2.70005823E-01  8.00000000E-01  5.48467166E+03  8.25234946E+02
  1.88046958E+02  5.29645000E+01  1.68975704E+01  5.79963534E+00  1.55396162E+01
  3.59993359E+00  1.01376175E+00  2.70005823E-01  8.00000000E-01  5.48467166E+03
  8.25234946E+02  1.88046958E+02  5.29645000E+01  1.68975704E+01  5.79963534E+00
  1.55396162E+01  3.59993359E+00  1.01376175E+00  2.70005823E-01  8.00000000E-01
  5.48467166E+03  8.25234946E+02  1.88046958E+02  5.29645000E+01  1.68975704E+01
  5.79963534E+00  1.55396162E+01  3.59993359E+00  1.01376175E+00  2.70005823E-01
  8.00000000E-01  5.48467166E+03  8.25234946E+02  1.88046958E+02  5.29645000E+01
  1.68975704E+01  5.79963534E+00  1.55396162E+01  3.59993359E+00  1.01376175E+00
  2.70005823E-01  8.00000000E-01  5.48467166E+03  8.25234946E+02  1.88046958E+02
  5.29645000E+01  1.68975704E+01  5.79963534E+00  1.55396162E+01  3.59993359E+00
  1.01376175E+00  2.70005823E-01  8.00000000E-01  4.17351146E+03  6.27457911E+02
  1.42902093E+02  4.02343293E+01  1.28202129E+01  4.39043701E+00  1.16263619E+01
  2.71627981E+00  7.72218397E-01  2.12031498E-01  8.00000000E-01  4.17351146E+03
  6.27457911E+02  1.42902093E+02  4.02343293E+01  1.28202129E+01  4.39043701E+00
  1.16263619E+01  2.71627981E+00  7.72218397E-01  2.12031498E-01  8.00000000E-01
  4.17351146E+03  6.27457911E+02  1.42902093E+02  4.02343293E+01  1.28202129E+01
  4.39043701E+00  1.16263619E+01  2.71627981E+00  7.72218397E-01  2.12031498E-01
  8.00000000E-01  3.04752488E+03  4.57369518E+02  1.03948685E+02  2.92101553E+01
  9.28666296E+00  3.16392696E+00  7.86827235E+00  1.88128854E+00  5.44249258E-01
  1.68714478E-01  8.00000000E-01  3.04752488E+03  4.57369518E+02  1.03948685E+02
  2.92101553E+01  9.28666296E+00  3.16392696E+00  7.86827235E+00  1.88128854E+00
  5.44249258E-01  1.68714478E-01  8.00000000E-01  3.04752488E+03  4.57369518E+02
  1.03948685E+02  2.92101553E+01  9.28666296E+00  3.16392696E+00  7.86827235E+00
  1.88128854E+00  5.44249258E-01  1.68714478E-01  8.00000000E-01  3.04752488E+03
  4.57369518E+02  1.03948685E+02  2.92101553E+01  9.28666296E+00  3.16392696E+00
  7.86827235E+00  1.88128854E+00  5.44249258E-01  1.68714478E-01  8.00000000E-01
  3.04752488E+03  4.57369518E+02  1.03948685E+02  2.92101553E+01  9.28666296E+00
  3.16392696E+00  7.86827235E+00  1.88128854E+00  5.44249258E-01  1.68714478E-01
  8.00000000E-01  3.04752488E+03  4.57369518E+02  1.03948685E+02  2.92101553E+01
  9.28666296E+00  3.16392696E+00  7.86827235E+00  1.88128854E+00  5.44249258E-01
  1.68714478E-01  8.00000000E-01  3.04752488E+03  4.57369518E+02  1.03948685E+02
  2.92101553E+01  9.28666296E+00  3.16392696E+00  7.86827235E+00  1.88128854E+00
  5.44249258E-01  1.68714478E-01  8.00000000E-01  1.87311370E+01  2.82539436E+00
  6.40121692E-01  1.61277759E-01  1.87311370E+01  2.82539436E+00  6.40121692E-01
  1.61277759E-01  1.87311370E+01  2.82539436E+00  6.40121692E-01  1.61277759E-01
Contraction coefficients                   R   N=         210
  1.83107443E-03  1.39501722E-02  6.84450781E-02  2.32714336E-01  4.70192898E-01
  3.58520853E-01 -1.10777550E-01 -1.48026263E-01  1.13076702E+00  1.00000000E+00
  1.00000000E+00  1.83107443E-03  1.39501722E-02  6.84450781E-02  2.32714336E-01
  4.70192898E-01  3.58520853E-01 -1.10777550E-01 -1.48026263E-01  1.13076702E+00
  1.00000000E+00  1.00000000E+00  1.83107443E-03  1.39501722E-02  6.84450781E-02
  2.32714336E-01  4.70192898E-01  3.58520853E-01 -1.10777550E-01 -1.48026263E-01
  1.13076702E+00  1.00000000E+00  1.00000000E+00  1.83107443E-03  1.39501722E-02
  6.84450781E-02  2.32714336E-01  4.70192898E-01  3.58520853E-01 -1.10777550E-01
 -1.48026263E-01  1.13076702E+00  1.00000000E+00  1.00000000E+00  1.83107443E-03
  1.39501722E-02  6.84450781E-02  2.32714336E-01  4.70192898E-01  3.58520853E-01
 -1.10777550E-01 -1.48026263E-01  1.13076702E+00  1.00000000E+00  1.00000000E+00
  1.83107443E-03  1.39501722E-02  6.84450781E-02  2.32714336E-01  4.70192898E-01
  3.58520853E-01 -1.10777550E-01 -1.48026263E-01  1.13076702E+00  1.00000000E+00
  1.00000000E+00  1.83107443E-03  1.39501722E-02  6.84450781E-02  2.32714336E-01
  4.70192898E-01  3.58520853E-01 -1.10777550E-01 -1.48026263E-01  1.13076702E+00
  1.00000000E+00  1.00000000E+00  1.83107443E-03  1.39501722E-02  6.84450781E-02
  2.32714336E-01  4.70192898E-01  3.58520853E-01 -1.10777550E-01 -1.48026263E-01
  1.13076702E+00  1.00000000E+00  1.00000000E+00  1.83477216E-03  1.39946270E-02
  6.85865518E-02  2.32240873E-01  4.69069948E-01  3.60455199E-01 -1.14961182E-01
 -1.69117479E-01  1.14585195E+00  1.00000000E+00  1.00000000E+00  1.83477216E-03
  1.39946270E-02  6.85865518E-02  2.32240873E-01  4.69069948E-01  3.60455199E-01
 -1.14961182E-01 -1.69117479E-01  1.14585195E+00  1.00000000E+00  1.00000000E+00
  1.83477216E-03  1.39946270E-02  6.85865518E-02  2.32240873E-01  4.69069948E-01
  3.60455199E-01 -1.14961182E-01 -1.69117479E-01  1.14585195E+00  1.00000000E+00
  1.00000000E+00  1.83473713E-03  1.40373228E-02  6.88426223E-02  2.32184443E-01
  4.67941348E-01  3.62311985E-01 -1.19332420E-01 -1.60854152E-01  1.14345644E+00
  1.00000000E+00  1.00000000E+00  1.83473713E-03  1.40373228E-02  6.88426223E-02
  2.32184443E-01  4.67941348E-01  3.62311985E-01 -1.19332420E-01 -1.60854152E-01
  1.14345644E+00  1.00000000E+00  1.00000000E+00  1.83473713E-03  1.40373228E-02
  6.88426223E-02  2.32184443E-01  4.67941348E-01  3.62311985E-01 -1.19332420E-01
 -1.60854152E-01  1.14345644E+00  1.00000000E+00  1.00000000E+00  1.83473713E-03
  1.40373228E-02  6.88426223E-02  2.32184443E-01  4.67941348E-01  3.62311985E-01
 -1.19332420E-01 -1.60854152E-01  1.14345644E+00  1.00000000E+00  1.00000000E+00
  1.83473713E-03  1.40373228E-02  6.88426223E-02  2.32184443E-01  4.67941348E-01
  3.62311985E-01 -1.19332420E-01 -1.60854152E-01  1.14345644E+00  1.00000000E+00
  1.00000000E+00  1.83473713E-03  1.40373228E-02  6.88426223E-02  2.32184443E-01
  4.67941348E-01  3.62311985E-01 -1.19332420E-01 -1.60854152E-01  1.14345644E+00
  1.00000000E+00  1.00000000E+00  1.83473713E-03  1.40373228E-02  6.88426223E-02
  2.32184443E-01  4.67941348E-01  3.62311985E-01 -1.19332420E-01 -1.60854152E-01
  1.14345644E+00  1.00000000E+00  1.00000000E+00  3.34946043E-02  2.34726953E-01
  8.13757326E-01  1.00000000E+00  3.34946043E-02  2.34726953E-01  8.13757326E-01
  1.00000000E+00  3.34946043E-02  2.34726953E-01  8.13757326E-01  1.00000000E+00
P(S=P) Contraction coefficients            R   N=         210
  0.00000000E+00  0.00000000E+00  0.00000000E+00  0.00000000E+00  0.00000000E+00
  0.00000000E+00  7.08742682E-02  3.39752839E-01  7.27158577E-01  1.00000000E+00
  0.00000000E+00  0.00000000E+00  0.00000000E+00  0.00000000E+00  0.00000000E+00
  0.00000000E+00  0.00000000E+00  7.08742682E-02  3.39752839E-01  7.27158577E-01
  1.00000000E+00  0.00000000E+00  0.00000000E+00  0.00000000E+00  0.00000000E+00
  0.00000000E+00  0.00000000E+00  0.00000000E+00  7.08742682E-02  3.39752839E-01
  7.27158577E-01  1.00000000E+00  0.00000000E+00  0.00000000E+00  0.00000000E+00
  0.00000000E+00  0.00000000E+00  0.00000000E+00  0.00000000E+00  7.08742682E-02
  3.39752839E-01  7.27158577E-01  1.00000000E+00  0.00000000E+00  0.00000000E+00
  0.00000000E+00  0.00000000E+00  0.00000000E+00  0.00000000E+00  0.00000000E+00
  7.08742682E-02  3.39752839E-01  7.27158577E-01  1.00000000E+00  0.00000000E+00
  0.00000000E+00  0.00000000E+00  0.00000000E+00  0.00000000E+00  0.00000000E+00
  0.00000000E+00  7.08742682E-02  3.39752839E-01  7.27158577E-01  1.00000000E+00
  0.00000000E+00  0.00000000E+00  0.00000000E+00  0.00000000E+00  0.00000000E+00
  0.00000000E+00  0.00000000E+00  7.08742682E-02  3.39752839E-01  7.27158577E-01
  1.00000000E+00  0.00000000E+00  0.00000000E+00  0.00000000E+00  0.00000000E+00
  0.00000000E+00  0.00000000E+00  0.00000000E+00  7.08742682E-02  3.39752839E-01
  7.27158577E-01  1.00000000E+00  0.00000000E+00  0.00000000E+00  0.00000000E+00
  0.00000000E+00  0.00000000E+00  0.00000000E+00  0.00000000E+00  6.75797439E-02
  3.23907296E-01  7.40895140E-01  1.00000000E+00  0.00000000E+00  0.00000000E+00
  0.00000000E+00  0.00000000E+00  0.00000000E+00  0.00000000E+00  0.00000000E+00
  6.75797439E-02  3.23907296E-01  7.40895140E-01  1.00000000E+00  0.00000000E+00
  0.00000000E+00  0.00000000E+00  0.00000000E+00  0.00000000E+00  0.00000000E+00
  0.00000000E+00  6.75797439E-02  3.23907296E-01  7.40895140E-01  1.00000000E+00
  0.00000000E+00  0.00000000E+00  0.00000000E+00  0.00000000E+00  0.00000000E+00
  0.00000000E+00  0.00000000E+00  6.89990666E-02  3.16423961E-01  7.44308291E-01
  1.00000000E+00  0.00000000E+00  0.00000000E+00  0.00000000E+00  0.00000000E+00
  0.00000000E+00  0.00000000E+00  0.00000000E+00  6.89990666E-02  3.16423961E-01
  7.44308291E-01  1.00000000E+00  0.00000000E+00  0.00000000E+00  0.00000000E+00
  0.00000000E+00  0.00000000E+00  0.00000000E+00  0.00000000E+00  6.89990666E-02
  3.16423961E-01  7.44308291E-01  1.00000000E+00  0.00000000E+00  0.00000000E+00
  0.00000000E+00  0.00000000E+00  0.00000000E+00  0.00000000E+00  0.00000000E+00
  6.89990666E-02  3.16423961E-01  7.44308291E-01  1.00000000E+00  0.00000000E+00
  0.00000000E+00  0.00000000E+00  0.00000000E+00  0.00000000E+00  0.00000000E+00
  0.00000000E+00  6.89990666E-02  3.16423961E-01  7.44308291E-01  1.00000000E+00
  0.00000000E+00  0.00000000E+00  0.00000000E+00  0.00000000E+00  0.00000000E+00
  0.00000000E+00  0.00000000E+00  6.89990666E-02  3.16423961E-01  7.44308291E-01
  1.00000000E+00  0.00000000E+00  0.00000000E+00  0.00000000E+00  0.00000000E+00
  0.00000000E+00  0.00000000E+00  0.00000000E+00  6.89990666E-02  3.16423961E-01
  7.44308291E-01  1.00000000E+00  0.00000000E+00  0.00000000E+00  0.00000000E+00
  0.00000000E+00  0.00000000E+00  0.00000000E+00  0.00000000E+00  0.00000000E+00
  0.00000000E+00  0.00000000E+00  0.00000000E+00  0.00000000E+00  0.00000000E+00
Coordinates of each shell                  R   N=         234
 -5.50451103E+00 -9.03532432E-01  1.91586767E+00 -5.50451103E+00 -9.03532432E-01
  1.91586767E+00 -5.50451103E+00 -9.03532432E-01  1.91586767E+00 -5.50451103E+00
 -9.03532432E-01  1.91586767E+00 -5.60893187E+00  9.72836045E-01 -1.97187505E+00
 -5.60893187E+00  9.72836045E-01 -1.97187505E+00 -5.60893187E+00  9.72836045E-01
 -1.97187505E+00 -5.60893187E+00  9.72836045E-01 -1.97187505E+00 -5.91423984E-01
 -6.48362428E+00  8.77127869E-01 -5.91423984E-01 -6.48362428E+00  8.77127869E-01
 -5.91423984E-01 -6.48362428E+00  8.77127869E-01 -5.91423984E-01 -6.48362428E+00
  8.77127869E-01 -4.89383508E-01  6.51375461E+00 -9.07363601E-01 -4.89383508E-01
  6.51375461E+00 -9.07363601E-01 -4.89383508E-01  6.51375461E+00 -9.07363601E-01
 -4.89383508E-01  6.51375461E+00 -9.07363601E-01 -3.59273391E+00 -4.69002630E+00
 -1.42122123E+00 -3.59273391E+00 -4.69002630E+00 -1.42122123E+00 -3.59273391E+00
 -4.69002630E+00 -1.42122123E+00 -3.59273391E+00 -4.69002630E+00 -1.42122123E+00
 -3.47843022E+00  4.76368365E+00  1.44468564E+00 -3.47843022E+00  4.76368365E+00
  1.44468564E+00 -3.47843022E+00  4.76368365E+00  1.44468564E+00 -3.47843022E+00
  4.76368365E+00  1.44468564E+00  7.48285406E+00 -2.15212839E+00 -4.53915099E-02
  7.48285406E+00 -2.15212839E+00 -4.53915099E-02  7.48285406E+00 -2.15212839E+00
 -4.53915099E-02  7.48285406E+00 -2.15212839E+00 -4.53915099E-02  7.52481687E+00
  2.02054361E+00  8.12116989E-02  7.52481687E+00  2.02054361E+00  8.12116989E-02
  7.52481687E+00  2.02054361E+00  8.12116989E-02  7.52481687E+00  2.02054361E+00
  8.12116989E-02 -1.59477529E+00 -4.65579439E+00 -1.93803780E-01 -1.59477529E+00
 -4.65579439E+00 -1.93803780E-01 -1.59477529E+00 -4.65579439E+00 -1.93803780E-01
 -1.59477529E+00 -4.65579439E+00 -1.93803780E-01 -1.50554921E+00  4.70222279E+00
  1.78275388E-01 -1.50554921E+00  4.70222279E+00  1.78275388E-01 -1.50554921E+00
  4.70222279E+00  1.78275388E-01 -1.50554921E+00  4.70222279E+00  1.78275388E-01
  6.43825053E+00 -5.49592151E-02  1.29183866E-02  6.43825053E+00 -5.49592151E-02
  1.29183866E-02  6.43825053E+00 -5.49592151E-02  1.29183866E-02  6.43825053E+00
 -5.49592151E-02  1.29183866E-02 -1.63321996E+00  2.73734059E-02 -2.23836398E-02
 -1.63321996E+00  2.73734059E-02 -2.23836398E-02 -1.63321996E+00  2.73734059E-02
 -2.23836398E-02 -1.63321996E+00  2.73734059E-02 -2.23836398E-02 -2.53707333E-01
 -2.22392708E+00 -4.47723982E-02 -2.53707333E-01 -2.22392708E+00 -4.47723982E-02
 -2.53707333E-01 -2.22392708E+00 -4.47723982E-02 -2.53707333E-01 -2.22392708E+00
 -4.47723982E-02 -2.06542209E-01  2.24924088E+00  9.74151961E-03 -2.06542209E-01
  2.24924088E+00  9.74151961E-03 -2.06542209E-01  2.24924088E+00  9.74151961E-03
 -2.06542209E-01  2.24924088E+00  9.74151961E-03  3.64832177E+00 -2.60213926E-02
 -5.58486123E-04  3.64832177E+00 -2.60213926E-02 -5.58486123E-04  3.64832177E+00
 -2.60213926E-02 -5.58486123E-04  3.64832177E+00 -2.60213926E-02 -5.58486123E-04
  2.37001766E+00 -2.31756489E+00 -6.78663634E-03  2.37001766E+00 -2.31756489E+00
 -6.78663634E-03  2.37001766E+00 -2.31756489E+00 -6.78663634E-03  2.37001766E+00
 -2.31756489E+00 -6.78663634E-03  2.41674898E+00  2.29214395E+00  3.34782316E-03
  2.41674898E+00  2.29214395E+00  3.34782316E-03  2.41674898E+00  2.29214395E+00
  3.34782316E-03  2.41674898E+00  2.29214395E+00  3.34782316E-03 -4.47211222E+00
  1.02443571E-01 -1.81077179E-01 -4.47211222E+00  1.02443571E-01 -1.81077179E-01
 -4.47211222E+00  1.02443571E-01 -1.81077179E-01 -4.47211222E+00  1.02443571E-01
 -1.81077179E-01  3.37037620E+00 -4.10538093E+00  7.20377026E-03  3.37037620E+00
 -4.10538093E+00  7.20377026E-03  3.45214288E+00  4.06012186E+00  4.56585164E-03
  3.45214288E+00  4.06012186E+00  4.56585164E-03 -7.34309265E+00 -8.49208040E-01
  1.67710248E+00 -7.34309265E+00 -8.49208040E-01  1.67710248E+00
Constraint Structure                       R   N=          63
 -5.50451103E+00 -9.03532432E-01  1.91586767E+00 -5.60893187E+00  9.72836045E-01
 -1.97187505E+00 -5.91423984E-01 -6.48362428E+00  8.77127869E-01 -4.89383508E-01
  6.51375461E+00 -9.07363601E-01 -3.59273391E+00 -4.69002630E+00 -1.42122123E+00
 -3.47843022E+00  4.76368365E+00  1.44468564E+00  7.48285406E+00 -2.15212839E+00
 -4.53915099E-02  7.52481687E+00  2.02054361E+00  8.12116989E-02 -1.59477529E+00
 -4.65579439E+00 -1.93803780E-01 -1.50554921E+00  4.70222279E+00  1.78275388E-01
  6.43825053E+00 -5.49592151E-02  1.29183866E-02 -1.63321996E+00  2.73734059E-02
 -2.23836398E-02 -2.53707333E-01 -2.22392708E+00 -4.47723982E-02 -2.06542209E-01
  2.24924088E+00  9.74151961E-03  3.64832177E+00 -2.60213926E-02 -5.58486123E-04
  2.37001766E+00 -2.31756489E+00 -6.78663634E-03  2.41674898E+00  2.29214395E+00
  3.34782316E-03 -4.47211222E+00  1.02443571E-01 -1.81077179E-01  3.37037620E+00
 -4.10538093E+00  7.20377026E-03  3.45214288E+00  4.06012186E+00  4.56585164E-03
 -7.34309265E+00 -8.49208040E-01  1.67710248E+00
Num ILSW                                   I              100
ILSW                                       I   N=         100
           0           1           0           1           2           0
           0           0           0           0           0          -1
           0           0           0           0           0           0
           0           0           0           0           1           0
           1           0           0           0           0           0
           0           0      100000           0          -1           0
           0           0           0           0           0           0
           0           0           0           1           1           0
           0           0           1           0           0           0
           0           0           4          40           0           0
           0           0           0           0           0           0
           0           0           0           0           0           0
           0           0           0           0           0           0
           0           0           0           0           0           0
           0           0           0           0           0           0
           0           0           0           0           0           0
           0           0           0           0
Num RLSW                                   I               40
RLSW                                       R   N=          40
  1.00000000E+00  1.00000000E+00  1.00000000E+00  1.00000000E+00  1.00000000E+00
  0.00000000E+00  0.00000000E+00  1.00000000E+00  0.00000000E+00  0.00000000E+00
  0.00000000E+00  0.00000000E+00  1.00000000E+00  0.00000000E+00  0.00000000E+00
  0.00000000E+00  0.00000000E+00  1.00000000E+00  0.00000000E+00  0.00000000E+00
  0.00000000E+00  0.00000000E+00  1.00000000E+00  0.00000000E+00  0.00000000E+00
  0.00000000E+00  0.00000000E+00  1.00000000E+00  0.00000000E+00  0.00000000E+00
  0.00000000E+00  0.00000000E+00  0.00000000E+00  0.00000000E+00  0.00000000E+00
  0.00000000E+00  0.00000000E+00  0.00000000E+00  1.00000000E+00  1.00000000E+00
MxBond                                     I                3
NBond                                      I   N=          21
           2           1           1           1           1           1
           1           1           3           3           3           3
           3           3           3           3           3           3
           1           1           1
IBond                                      I   N=          63
          18          21           0          18           0           0
           9           0           0          10           0           0
           9           0           0          10           0           0
          11           0           0          11           0           0
           3           5          13           4           6          14
           7           8          15          13          14          18
           9          12          16          10          12          17
          11          16          17          13          15          19
          14          15          20           1           2          12
          16           0           0          17           0           0
           1           0           0
RBond                                      R   N=          63
  1.50000000E+00  1.00000000E+00  0.00000000E+00  2.00000000E+00  0.00000000E+00
  0.00000000E+00  2.00000000E+00  0.00000000E+00  0.00000000E+00  2.00000000E+00
  0.00000000E+00  0.00000000E+00  2.00000000E+00  0.00000000E+00  0.00000000E+00
  2.00000000E+00  0.00000000E+00  0.00000000E+00  2.00000000E+00  0.00000000E+00
  0.00000000E+00  2.00000000E+00  0.00000000E+00  0.00000000E+00  2.00000000E+00
  2.00000000E+00  1.00000000E+00  2.00000000E+00  2.00000000E+00  1.00000000E+00
  2.00000000E+00  2.00000000E+00  1.00000000E+00  1.50000000E+00  1.50000000E+00
  1.00000000E+00  1.00000000E+00  1.50000000E+00  1.50000000E+00  1.00000000E+00
  1.50000000E+00  1.50000000E+00  1.00000000E+00  1.50000000E+00  1.50000000E+00
  1.50000000E+00  1.50000000E+00  1.00000000E+00  1.50000000E+00  1.50000000E+00
  1.00000000E+00  1.50000000E+00  2.00000000E+00  1.00000000E+00  1.00000000E+00
  0.00000000E+00  0.00000000E+00  1.00000000E+00  0.00000000E+00  0.00000000E+00
  1.00000000E+00  0.00000000E+00  0.00000000E+00
Virial Ratio                               R      2.003787838832268E+00