
    -----------------------------------------------------------------------
          Psi4: An Open-Source Ab Initio Electronic Structure Package
                               Psi4 1.3.2 release

                         Git: Rev {HEAD} ecbda83 


    R. M. Parrish, L. A. Burns, D. G. A. Smith, A. C. Simmonett,
    A. E. DePrince III, E. G. Hohenstein, U. Bozkaya, A. Yu. Sokolov,
    R. Di Remigio, R. M. Richard, J. F. Gonthier, A. M. James,
    H. R. McAlexander, A. Kumar, M. Saitow, X. Wang, B. P. Pritchard,
    P. Verma, H. F. Schaefer III, K. Patkowski, R. A. King, E. F. Valeev,
    F. A. Evangelista, J. M. Turney, T. D. Crawford, and C. D. Sherrill,
    J. Chem. Theory Comput. 13(7) pp 3185--3197 (2017).
    (doi: 10.1021/acs.jctc.7b00174)


                         Additional Contributions by
    P. Kraus, H. Kruse, M. H. Lechner, M. C. Schieber, R. A. Shaw,
    A. Alenaizan, R. Galvelis, Z. L. Glick, S. Lehtola, and J. P. Misiewicz

    -----------------------------------------------------------------------


    Psi4 started on: Thursday, 11 February 2021 05:40AM

    Process ID: 24447
    Host:       node144.bme.utexas.edu
    PSIDATADIR: /home/xy3866/psi4conda/share/psi4
    Memory:     500.0 MiB
    Threads:    8
    
  ==> Input File <==

--------------------------------------------------------------------------
#psi4
#
memory 32 gb

molecule  {
0 1
  O       -0.7670850     1.7208920    -0.4354900
  N        1.6863020     0.4747470     0.1388600
  N       -1.9291830    -0.1915810     0.0453950
  N        0.7639310    -1.5088640    -0.3477740
  C        0.5182450    -0.2160980    -0.0822800
  C       -0.7573787     0.5322026    -0.3086793
  C        2.7114570    -0.4276410     0.0208990
  C        1.8666300     1.8964630     0.4257140
  C       -3.1904980     0.5035560    -0.1598940
  C       -2.0503370    -1.5461500     0.5645390
  C        2.1210610    -1.6392390    -0.2794470
  H        3.7418240    -0.1353950     0.1686580
  H        1.1394670     2.2188990     1.1681400
  H        2.8785810     2.0278530     0.8121890
  H        1.7220340     2.4842350    -0.4794890
  H       -3.8467550    -0.1153850    -0.7799180
  H       -2.9915450     1.4520350    -0.6543500
  H       -3.6876690     0.6913720     0.7990550
  H       -1.0742680    -1.9474190     0.8155770
  H       -2.5092790    -2.1983750    -0.1864030
  H       -2.6938370    -1.5270200     1.4518100
  H        2.6051200    -2.5920870    -0.4498700
units angstrom
no_reorient  #important for SAPT in psi4, default
symmetry c1  #important for SAPT in psi4, default
}

set PROPERTIES_ORIGIN ["COM"]
properties('MP2/aug-cc-pvtz', properties = ['dipole'])
--------------------------------------------------------------------------

  Memory set to  29.802 GiB by Python driver.
    SCF Algorithm Type (re)set to DF.

*** tstart() called on node144.bme.utexas.edu
*** at Thu Feb 11 05:40:51 2021

   => Loading Basis Set <=

    Name: AUG-CC-PVTZ
    Role: ORBITAL
    Keyword: BASIS
    atoms 1     entry O          line   327 file /home/xy3866/psi4conda/share/psi4/basis/aug-cc-pvtz.gbs 
    atoms 2-4   entry N          line   281 file /home/xy3866/psi4conda/share/psi4/basis/aug-cc-pvtz.gbs 
    atoms 5-11  entry C          line   235 file /home/xy3866/psi4conda/share/psi4/basis/aug-cc-pvtz.gbs 
    atoms 12-22 entry H          line    36 file /home/xy3866/psi4conda/share/psi4/basis/aug-cc-pvtz.gbs 


         ---------------------------------------------------------
                                   SCF
               by Justin Turney, Rob Parrish, Andy Simmonett
                          and Daniel G. A. Smith
                              RHF Reference
                        8 Threads,  30517 MiB Core
         ---------------------------------------------------------

  ==> Geometry <==

    Molecular point group: c1
    Full point group: C1

    Geometry (in Angstrom), charge = 0, multiplicity = 1:

       Center              X                  Y                   Z               Mass       
    ------------   -----------------  -----------------  -----------------  -----------------
         O           -0.799116844196     1.721149208154    -0.406755845572    15.994914619570
         N            1.654270155804     0.475004208154     0.167594154428    14.003074004430
         N           -1.961214844196    -0.191323791846     0.074129154428    14.003074004430
         N            0.731899155804    -1.508606791846    -0.319039845572    14.003074004430
         C            0.486213155804    -0.215840791846    -0.053545845572    12.000000000000
         C           -0.789410544196     0.532459808154    -0.279945145572    12.000000000000
         C            2.679425155804    -0.427383791846     0.049633154428    12.000000000000
         C            1.834598155804     1.896720208154     0.454448154428    12.000000000000
         C           -3.222529844196     0.503813208154    -0.131159845572    12.000000000000
         C           -2.082368844196    -1.545892791846     0.593273154428    12.000000000000
         C            2.089029155804    -1.638981791846    -0.250712845572    12.000000000000
         H            3.709792155804    -0.135137791846     0.197392154428     1.007825032230
         H            1.107435155804     2.219156208154     1.196874154428     1.007825032230
         H            2.846549155804     2.028110208154     0.840923154428     1.007825032230
         H            1.690002155804     2.484492208154    -0.450754845572     1.007825032230
         H           -3.878786844196    -0.115127791846    -0.751183845572     1.007825032230
         H           -3.023576844196     1.452292208154    -0.625615845572     1.007825032230
         H           -3.719700844196     0.691629208154     0.827789154428     1.007825032230
         H           -1.106299844196    -1.947161791846     0.844311154428     1.007825032230
         H           -2.541310844196    -2.198117791846    -0.157668845572     1.007825032230
         H           -2.725868844196    -1.526762791846     1.480544154428     1.007825032230
         H            2.573088155804    -2.591829791846    -0.421135845572     1.007825032230

  Running in c1 symmetry.

  Rotational constants: A =      0.06689  B =      0.02892  C =      0.02123 [cm^-1]
  Rotational constants: A =   2005.23852  B =    867.03839  C =    636.37966 [MHz]
  Nuclear repulsion =  628.643867531055093

  Charge       = 0
  Multiplicity = 1
  Electrons    = 82
  Nalpha       = 41
  Nbeta        = 41

  ==> Algorithm <==

  SCF Algorithm Type is DF.
  DIIS enabled.
  MOM disabled.
  Fractional occupation disabled.
  Guess Type is SAD.
  Energy threshold   = 1.00e-10
  Density threshold  = 1.00e-10
  Integral threshold = 0.00e+00

  ==> Primary Basis <==

  Basis Set: AUG-CC-PVTZ
    Blend: AUG-CC-PVTZ
    Number of shells: 253
    Number of basis function: 759
    Number of Cartesian functions: 880
    Spherical Harmonics?: true
    Max angular momentum: 3

   => Loading Basis Set <=

    Name: (AUG-CC-PVTZ AUX)
    Role: JKFIT
    Keyword: DF_BASIS_SCF
    atoms 1     entry O          line   286 file /home/xy3866/psi4conda/share/psi4/basis/aug-cc-pvtz-jkfit.gbs 
    atoms 2-4   entry N          line   224 file /home/xy3866/psi4conda/share/psi4/basis/aug-cc-pvtz-jkfit.gbs 
    atoms 5-11  entry C          line   162 file /home/xy3866/psi4conda/share/psi4/basis/aug-cc-pvtz-jkfit.gbs 
    atoms 12-22 entry H          line    70 file /home/xy3866/psi4conda/share/psi4/basis/aug-cc-pvtz-jkfit.gbs 

  ==> Pre-Iterations <==

   -------------------------------------------------------
    Irrep   Nso     Nmo     Nalpha   Nbeta   Ndocc  Nsocc
   -------------------------------------------------------
     A        759     759       0       0       0       0
   -------------------------------------------------------
    Total     759     759      41      41      41       0
   -------------------------------------------------------

  ==> Integral Setup <==

  DFHelper Memory: AOs need 6.735 GiB; user supplied 22.352 GiB. Using in-core AOs.

  ==> MemDFJK: Density-Fitted J/K Matrices <==

    J tasked:                   Yes
    K tasked:                   Yes
    wK tasked:                   No
    OpenMP threads:               8
    Memory [MiB]:             22888
    Algorithm:                 Disk
    Schwarz Cutoff:           1E-12
    Mask sparsity (%):       7.3066
    Fitting Condition:        1E-10

   => Auxiliary Basis Set <=

  Basis Set: (AUG-CC-PVTZ AUX)
    Blend: AUG-CC-PVTZ-JKFIT
    Number of shells: 484
    Number of basis function: 1650
    Number of Cartesian functions: 2046
    Spherical Harmonics?: true
    Max angular momentum: 4

  Minimum eigenvalue in the overlap matrix is 1.3935666645E-06.
  Using Symmetric Orthogonalization.

  SCF Guess: Superposition of Atomic Densities via on-the-fly atomic UHF.

  ==> Iterations <==

                           Total Energy        Delta E     RMS |[F,P]|

   @DF-RHF iter SAD:  -509.31604846550670   -5.09316e+02   0.00000e+00 
   @DF-RHF iter   1:  -509.55264720171687   -2.36599e-01   9.59945e-04 DIIS
   @DF-RHF iter   2:  -509.78696499646810   -2.34318e-01   5.11301e-04 DIIS
   @DF-RHF iter   3:  -509.84328067924042   -5.63157e-02   1.26545e-04 DIIS
   @DF-RHF iter   4:  -509.84859324995261   -5.31257e-03   4.60762e-05 DIIS
   @DF-RHF iter   5:  -509.84937441091074   -7.81161e-04   1.11462e-05 DIIS
   @DF-RHF iter   6:  -509.84945418114899   -7.97702e-05   5.99487e-06 DIIS
   @DF-RHF iter   7:  -509.84947895355623   -2.47724e-05   2.13792e-06 DIIS
   @DF-RHF iter   8:  -509.84948446050277   -5.50695e-06   8.11769e-07 DIIS
   @DF-RHF iter   9:  -509.84948512930998   -6.68807e-07   3.20645e-07 DIIS
   @DF-RHF iter  10:  -509.84948518819169   -5.88817e-08   1.08802e-07 DIIS
   @DF-RHF iter  11:  -509.84948519642126   -8.22956e-09   4.70755e-08 DIIS
   @DF-RHF iter  12:  -509.84948519790657   -1.48532e-09   1.79305e-08 DIIS
   @DF-RHF iter  13:  -509.84948519820864   -3.02066e-10   6.07277e-09 DIIS
   @DF-RHF iter  14:  -509.84948519826207   -5.34328e-11   3.41424e-09 DIIS
   @DF-RHF iter  15:  -509.84948519826776   -5.68434e-12   1.36640e-09 DIIS
   @DF-RHF iter  16:  -509.84948519827077   -3.01270e-12   5.46251e-10 DIIS
   @DF-RHF iter  17:  -509.84948519827043    3.41061e-13   2.42229e-10 DIIS
   @DF-RHF iter  18:  -509.84948519826884    1.59162e-12   6.90201e-11 DIIS
  Energy and wave function converged.


  ==> Post-Iterations <==

    Orbital Energies [Eh]
    ---------------------

    Doubly Occupied:                                                      

       1A    -20.532448     2A    -15.634875     3A    -15.579227  
       4A    -15.562198     5A    -11.366464     6A    -11.304701  
       7A    -11.274984     8A    -11.270744     9A    -11.252314  
      10A    -11.249299    11A    -11.246280    12A     -1.411731  
      13A     -1.347217    14A     -1.230379    15A     -1.189458  
      16A     -1.030997    17A     -0.976761    18A     -0.959605  
      19A     -0.924146    20A     -0.829107    21A     -0.810021  
      22A     -0.742471    23A     -0.706029    24A     -0.671241  
      25A     -0.655443    26A     -0.643045    27A     -0.635959  
      28A     -0.606086    29A     -0.594906    30A     -0.582943  
      31A     -0.564655    32A     -0.558151    33A     -0.551640  
      34A     -0.547594    35A     -0.535805    36A     -0.522575  
      37A     -0.454891    38A     -0.430179    39A     -0.392341  
      40A     -0.365638    41A     -0.321567  

    Virtual:                                                              

      42A      0.025570    43A      0.032915    44A      0.035026  
      45A      0.040998    46A      0.046718    47A      0.048107  
      48A      0.052964    49A      0.060527    50A      0.064572  
      51A      0.069143    52A      0.076070    53A      0.080500  
      54A      0.087230    55A      0.100150    56A      0.106592  
      57A      0.107276    58A      0.114084    59A      0.116500  
      60A      0.118973    61A      0.119618    62A      0.125024  
      63A      0.126200    64A      0.128858    65A      0.137498  
      66A      0.139261    67A      0.141201    68A      0.147532  
      69A      0.153553    70A      0.157166    71A      0.160425  
      72A      0.161878    73A      0.168331    74A      0.175399  
      75A      0.178327    76A      0.178774    77A      0.185711  
      78A      0.199987    79A      0.203694    80A      0.214192  
      81A      0.221386    82A      0.224444    83A      0.226725  
      84A      0.233699    85A      0.240919    86A      0.242975  
      87A      0.246465    88A      0.253139    89A      0.255122  
      90A      0.260145    91A      0.263777    92A      0.268275  
      93A      0.272544    94A      0.282591    95A      0.285732  
      96A      0.287668    97A      0.292232    98A      0.297795  
      99A      0.302085   100A      0.310886   101A      0.320696  
     102A      0.325310   103A      0.327531   104A      0.331189  
     105A      0.336238   106A      0.341004   107A      0.345038  
     108A      0.352527   109A      0.354278   110A      0.358402  
     111A      0.362338   112A      0.365553   113A      0.370226  
     114A      0.374453   115A      0.377516   116A      0.381201  
     117A      0.382473   118A      0.388126   119A      0.390273  
     120A      0.393501   121A      0.402276   122A      0.406050  
     123A      0.410967   124A      0.413813   125A      0.417292  
     126A      0.426711   127A      0.429997   128A      0.431141  
     129A      0.437691   130A      0.442965   131A      0.446853  
     132A      0.450286   133A      0.451876   134A      0.457330  
     135A      0.461063   136A      0.462147   137A      0.473184  
     138A      0.476452   139A      0.476764   140A      0.479833  
     141A      0.484398   142A      0.487732   143A      0.491307  
     144A      0.493157   145A      0.499612   146A      0.505158  
     147A      0.506525   148A      0.508411   149A      0.512228  
     150A      0.516213   151A      0.518769   152A      0.526346  
     153A      0.529825   154A      0.532851   155A      0.539287  
     156A      0.540373   157A      0.547396   158A      0.552807  
     159A      0.558853   160A      0.559291   161A      0.564709  
     162A      0.568210   163A      0.572537   164A      0.576557  
     165A      0.583411   166A      0.589908   167A      0.595556  
     168A      0.604725   169A      0.607685   170A      0.613962  
     171A      0.618903   172A      0.629215   173A      0.636222  
     174A      0.637107   175A      0.639721   176A      0.644043  
     177A      0.656959   178A      0.662117   179A      0.670276  
     180A      0.678791   181A      0.686867   182A      0.691588  
     183A      0.699304   184A      0.708734   185A      0.713148  
     186A      0.717812   187A      0.721930   188A      0.731034  
     189A      0.739877   190A      0.741144   191A      0.756157  
     192A      0.760856   193A      0.762758   194A      0.776553  
     195A      0.783836   196A      0.793459   197A      0.794379  
     198A      0.799974   199A      0.808567   200A      0.816845  
     201A      0.823836   202A      0.830752   203A      0.838012  
     204A      0.841314   205A      0.849113   206A      0.851476  
     207A      0.855654   208A      0.856985   209A      0.867942  
     210A      0.868992   211A      0.877453   212A      0.884818  
     213A      0.889265   214A      0.893692   215A      0.901632  
     216A      0.905747   217A      0.910716   218A      0.915283  
     219A      0.921764   220A      0.927328   221A      0.933319  
     222A      0.937163   223A      0.938727   224A      0.946331  
     225A      0.950730   226A      0.957038   227A      0.964165  
     228A      0.967261   229A      0.970529   230A      0.973694  
     231A      0.981346   232A      0.984063   233A      0.991795  
     234A      0.996964   235A      1.003589   236A      1.004449  
     237A      1.012605   238A      1.018142   239A      1.022323  
     240A      1.028866   241A      1.034435   242A      1.040564  
     243A      1.042815   244A      1.050789   245A      1.059773  
     246A      1.065017   247A      1.069029   248A      1.072989  
     249A      1.077738   250A      1.080819   251A      1.083555  
     252A      1.088952   253A      1.091610   254A      1.099897  
     255A      1.107445   256A      1.112172   257A      1.116880  
     258A      1.121959   259A      1.130561   260A      1.143929  
     261A      1.145723   262A      1.149212   263A      1.158314  
     264A      1.160411   265A      1.167485   266A      1.172077  
     267A      1.180689   268A      1.181626   269A      1.187749  
     270A      1.195523   271A      1.201490   272A      1.204133  
     273A      1.210902   274A      1.217915   275A      1.225991  
     276A      1.236222   277A      1.243406   278A      1.247588  
     279A      1.250680   280A      1.254713   281A      1.268058  
     282A      1.272872   283A      1.279421   284A      1.281771  
     285A      1.298609   286A      1.306525   287A      1.313775  
     288A      1.319056   289A      1.325996   290A      1.334847  
     291A      1.336261   292A      1.350263   293A      1.352282  
     294A      1.366833   295A      1.378016   296A      1.384339  
     297A      1.389017   298A      1.392815   299A      1.399540  
     300A      1.403256   301A      1.408733   302A      1.418385  
     303A      1.427303   304A      1.432585   305A      1.437683  
     306A      1.445691   307A      1.448371   308A      1.456391  
     309A      1.460529   310A      1.468243   311A      1.473853  
     312A      1.477076   313A      1.483200   314A      1.489748  
     315A      1.501890   316A      1.511177   317A      1.516242  
     318A      1.519020   319A      1.526276   320A      1.538766  
     321A      1.543161   322A      1.556095   323A      1.562876  
     324A      1.569222   325A      1.575760   326A      1.581082  
     327A      1.594537   328A      1.600928   329A      1.608113  
     330A      1.610346   331A      1.624342   332A      1.631601  
     333A      1.634595   334A      1.640815   335A      1.656103  
     336A      1.660803   337A      1.667404   338A      1.669467  
     339A      1.676659   340A      1.680094   341A      1.691835  
     342A      1.700457   343A      1.704492   344A      1.705494  
     345A      1.712303   346A      1.718743   347A      1.727174  
     348A      1.728545   349A      1.735947   350A      1.738513  
     351A      1.743419   352A      1.750136   353A      1.756917  
     354A      1.767319   355A      1.779468   356A      1.782867  
     357A      1.791411   358A      1.792908   359A      1.806460  
     360A      1.819569   361A      1.829645   362A      1.834780  
     363A      1.838281   364A      1.842849   365A      1.860875  
     366A      1.867210   367A      1.872881   368A      1.886626  
     369A      1.889362   370A      1.896761   371A      1.903646  
     372A      1.911355   373A      1.915506   374A      1.918675  
     375A      1.932494   376A      1.946343   377A      1.956595  
     378A      1.962034   379A      1.977985   380A      1.982441  
     381A      1.987696   382A      2.003561   383A      2.004846  
     384A      2.030954   385A      2.036961   386A      2.042628  
     387A      2.045160   388A      2.058097   389A      2.064686  
     390A      2.083336   391A      2.092958   392A      2.097412  
     393A      2.104734   394A      2.113466   395A      2.119225  
     396A      2.128312   397A      2.132118   398A      2.141102  
     399A      2.153972   400A      2.176751   401A      2.187354  
     402A      2.192568   403A      2.204012   404A      2.208787  
     405A      2.219945   406A      2.230562   407A      2.241546  
     408A      2.248615   409A      2.254002   410A      2.263004  
     411A      2.275804   412A      2.283172   413A      2.293039  
     414A      2.304218   415A      2.310242   416A      2.331126  
     417A      2.331612   418A      2.336922   419A      2.342437  
     420A      2.360320   421A      2.380496   422A      2.386425  
     423A      2.400006   424A      2.414835   425A      2.423728  
     426A      2.425877   427A      2.429916   428A      2.442825  
     429A      2.456004   430A      2.462849   431A      2.468226  
     432A      2.497913   433A      2.503663   434A      2.517421  
     435A      2.524689   436A      2.533036   437A      2.551812  
     438A      2.557364   439A      2.564709   440A      2.586734  
     441A      2.609783   442A      2.616353   443A      2.629073  
     444A      2.635744   445A      2.652986   446A      2.665518  
     447A      2.671659   448A      2.682163   449A      2.698178  
     450A      2.705629   451A      2.716922   452A      2.734854  
     453A      2.743676   454A      2.764640   455A      2.779326  
     456A      2.793347   457A      2.813544   458A      2.839262  
     459A      2.849770   460A      2.875262   461A      2.899596  
     462A      2.904571   463A      2.916171   464A      2.932535  
     465A      2.951498   466A      2.982849   467A      3.015063  
     468A      3.028552   469A      3.052228   470A      3.076232  
     471A      3.094449   472A      3.117688   473A      3.131334  
     474A      3.141895   475A      3.172116   476A      3.182351  
     477A      3.207959   478A      3.229327   479A      3.246579  
     480A      3.260009   481A      3.304770   482A      3.312658  
     483A      3.335956   484A      3.336421   485A      3.354046  
     486A      3.381497   487A      3.391883   488A      3.407163  
     489A      3.414587   490A      3.448343   491A      3.452968  
     492A      3.468047   493A      3.478447   494A      3.512693  
     495A      3.533768   496A      3.538404   497A      3.545945  
     498A      3.565186   499A      3.568697   500A      3.588467  
     501A      3.601575   502A      3.605142   503A      3.621133  
     504A      3.638973   505A      3.645436   506A      3.648194  
     507A      3.657360   508A      3.667398   509A      3.675708  
     510A      3.689830   511A      3.703569   512A      3.720908  
     513A      3.727599   514A      3.731170   515A      3.738562  
     516A      3.755070   517A      3.758344   518A      3.774292  
     519A      3.791024   520A      3.800257   521A      3.807884  
     522A      3.817386   523A      3.828321   524A      3.834948  
     525A      3.842585   526A      3.845503   527A      3.856903  
     528A      3.870152   529A      3.881728   530A      3.888346  
     531A      3.895063   532A      3.901421   533A      3.909868  
     534A      3.919570   535A      3.929313   536A      3.940923  
     537A      3.947129   538A      3.951818   539A      3.970720  
     540A      3.979321   541A      3.983483   542A      3.992054  
     543A      4.006899   544A      4.009694   545A      4.025251  
     546A      4.033597   547A      4.040831   548A      4.054655  
     549A      4.060299   550A      4.082670   551A      4.089715  
     552A      4.104959   553A      4.109744   554A      4.116930  
     555A      4.122844   556A      4.125811   557A      4.128763  
     558A      4.141553   559A      4.155971   560A      4.169509  
     561A      4.171989   562A      4.193867   563A      4.198650  
     564A      4.212239   565A      4.223858   566A      4.231368  
     567A      4.242559   568A      4.246110   569A      4.254021  
     570A      4.264895   571A      4.276103   572A      4.282636  
     573A      4.287531   574A      4.299094   575A      4.309462  
     576A      4.323924   577A      4.337818   578A      4.346920  
     579A      4.359010   580A      4.368589   581A      4.383596  
     582A      4.402192   583A      4.408817   584A      4.429837  
     585A      4.436790   586A      4.442199   587A      4.458007  
     588A      4.463741   589A      4.479410   590A      4.489316  
     591A      4.509387   592A      4.519221   593A      4.530785  
     594A      4.532115   595A      4.544841   596A      4.569059  
     597A      4.585915   598A      4.602794   599A      4.619625  
     600A      4.636815   601A      4.655762   602A      4.655976  
     603A      4.672384   604A      4.690751   605A      4.695883  
     606A      4.717309   607A      4.729128   608A      4.745329  
     609A      4.769039   610A      4.779240   611A      4.798918  
     612A      4.804920   613A      4.829049   614A      4.843539  
     615A      4.855381   616A      4.863052   617A      4.877246  
     618A      4.884091   619A      4.903571   620A      4.916814  
     621A      4.922793   622A      4.932911   623A      4.951416  
     624A      4.956364   625A      4.976105   626A      4.985888  
     627A      4.997783   628A      5.013869   629A      5.021230  
     630A      5.042092   631A      5.080629   632A      5.086077  
     633A      5.093487   634A      5.113363   635A      5.120210  
     636A      5.143139   637A      5.153260   638A      5.160310  
     639A      5.165516   640A      5.193036   641A      5.207940  
     642A      5.223350   643A      5.226614   644A      5.250110  
     645A      5.265939   646A      5.277111   647A      5.280275  
     648A      5.302225   649A      5.306867   650A      5.332735  
     651A      5.334842   652A      5.354603   653A      5.372165  
     654A      5.382470   655A      5.422925   656A      5.429823  
     657A      5.451848   658A      5.473989   659A      5.502598  
     660A      5.510251   661A      5.530038   662A      5.537436  
     663A      5.546588   664A      5.564908   665A      5.576801  
     666A      5.585244   667A      5.609895   668A      5.645117  
     669A      5.656510   670A      5.672921   671A      5.679141  
     672A      5.711848   673A      5.724202   674A      5.737971  
     675A      5.759070   676A      5.761315   677A      5.790532  
     678A      5.800661   679A      5.818564   680A      5.829986  
     681A      5.847479   682A      5.858984   683A      5.875790  
     684A      5.884777   685A      5.897698   686A      5.907650  
     687A      5.929391   688A      5.942715   689A      5.951882  
     690A      5.959574   691A      5.999423   692A      6.010606  
     693A      6.037204   694A      6.062820   695A      6.104408  
     696A      6.131885   697A      6.152692   698A      6.159311  
     699A      6.166462   700A      6.182754   701A      6.193754  
     702A      6.206664   703A      6.244983   704A      6.277769  
     705A      6.279822   706A      6.306180   707A      6.326253  
     708A      6.357430   709A      6.368651   710A      6.389862  
     711A      6.413954   712A      6.478763   713A      6.524561  
     714A      6.576857   715A      6.605530   716A      6.617969  
     717A      6.661501   718A      6.704662   719A      6.722890  
     720A      6.767170   721A      6.799732   722A      6.810424  
     723A      6.824593   724A      6.856462   725A      6.864425  
     726A      6.884363   727A      6.907684   728A      6.922954  
     729A      6.967353   730A      6.982741   731A      7.001227  
     732A      7.012148   733A      7.053154   734A      7.072867  
     735A      7.092984   736A      7.128857   737A      7.170489  
     738A      7.219583   739A      7.285135   740A      7.353482  
     741A      7.400580   742A      7.527795   743A      7.549419  
     744A      7.761688   745A      7.815963   746A      7.844338  
     747A      8.008394   748A      8.121721   749A     15.704874  
     750A     16.422616   751A     16.713824   752A     17.245914  
     753A     18.086625   754A     18.482013   755A     18.780196  
     756A     19.016229   757A     19.488303   758A     20.480932  
     759A     20.560445  

    Final Occupation by Irrep:
              A 
    DOCC [    41 ]

  @DF-RHF Final Energy:  -509.84948519826884

   => Energetics <=

    Nuclear Repulsion Energy =            628.6438675310550934
    One-Electron Energy =               -1940.8544747554556125
    Two-Electron Energy =                 802.3611220261316248
    Total Energy =                       -509.8494851982688942

Computation Completed

*** tstop() called on node144.bme.utexas.edu at Thu Feb 11 05:42:51 2021
Module time:
	user time   =     512.92 seconds =       8.55 minutes
	system time =      65.39 seconds =       1.09 minutes
	total time  =        120 seconds =       2.00 minutes
Total time:
	user time   =     512.92 seconds =       8.55 minutes
	system time =      65.39 seconds =       1.09 minutes
	total time  =        120 seconds =       2.00 minutes
   => Loading Basis Set <=

    Name: (AUG-CC-PVTZ AUX)
    Role: RIFIT
    Keyword: DF_BASIS_MP2
    atoms 1     entry O          line   264 file /home/xy3866/psi4conda/share/psi4/basis/aug-cc-pvtz-ri.gbs 
    atoms 2-4   entry N          line   206 file /home/xy3866/psi4conda/share/psi4/basis/aug-cc-pvtz-ri.gbs 
    atoms 5-11  entry C          line   148 file /home/xy3866/psi4conda/share/psi4/basis/aug-cc-pvtz-ri.gbs 
    atoms 12-22 entry H          line    30 file /home/xy3866/psi4conda/share/psi4/basis/aug-cc-pvtz-ri.gbs 


*** tstart() called on node144.bme.utexas.edu
*** at Thu Feb 11 05:42:51 2021


  //>>>>>>>>>>>>>>>>>>>>>>>>>>>>>>>>>>>//
  //               DFMP2               //
  //<<<<<<<<<<<<<<<<<<<<<<<<<<<<<<<<<<<//

	 --------------------------------------------------------
	                          DF-MP2                         
	      2nd-Order Density-Fitted Moller-Plesset Theory     
	              RMP2 Wavefunction,   8 Threads             
	                                                         
	        Rob Parrish, Justin Turney, Andy Simmonett,      
	           Ed Hohenstein, and C. David Sherrill          
	 --------------------------------------------------------

   => Auxiliary Basis Set <=

  Basis Set: (AUG-CC-PVTZ AUX)
    Blend: AUG-CC-PVTZ-RI
    Number of shells: 462
    Number of basis function: 1672
    Number of Cartesian functions: 2101
    Spherical Harmonics?: true
    Max angular momentum: 4

	 --------------------------------------------------------
	                 NBF =   759, NAUX =  1672
	 --------------------------------------------------------
	   CLASS    FOCC     OCC    AOCC    AVIR     VIR    FVIR
	   PAIRS       0      41      41     718     718       0
	 --------------------------------------------------------

  DFHelper Memory: AOs need 6.735 GiB; user supplied 22.352 GiB. Using in-core AOs.


         ------------------------------------------------------------
                                     CPHF                           
                                  Rob Parrish                       
         ------------------------------------------------------------

  ==> Geometry <==

    Molecular point group: c1
    Full point group: C1

    Geometry (in Angstrom), charge = 0, multiplicity = 1:

       Center              X                  Y                   Z               Mass       
    ------------   -----------------  -----------------  -----------------  -----------------
         O           -0.799116844196     1.721149208154    -0.406755845572    15.994914619570
         N            1.654270155804     0.475004208154     0.167594154428    14.003074004430
         N           -1.961214844196    -0.191323791846     0.074129154428    14.003074004430
         N            0.731899155804    -1.508606791846    -0.319039845572    14.003074004430
         C            0.486213155804    -0.215840791846    -0.053545845572    12.000000000000
         C           -0.789410544196     0.532459808154    -0.279945145572    12.000000000000
         C            2.679425155804    -0.427383791846     0.049633154428    12.000000000000
         C            1.834598155804     1.896720208154     0.454448154428    12.000000000000
         C           -3.222529844196     0.503813208154    -0.131159845572    12.000000000000
         C           -2.082368844196    -1.545892791846     0.593273154428    12.000000000000
         C            2.089029155804    -1.638981791846    -0.250712845572    12.000000000000
         H            3.709792155804    -0.135137791846     0.197392154428     1.007825032230
         H            1.107435155804     2.219156208154     1.196874154428     1.007825032230
         H            2.846549155804     2.028110208154     0.840923154428     1.007825032230
         H            1.690002155804     2.484492208154    -0.450754845572     1.007825032230
         H           -3.878786844196    -0.115127791846    -0.751183845572     1.007825032230
         H           -3.023576844196     1.452292208154    -0.625615845572     1.007825032230
         H           -3.719700844196     0.691629208154     0.827789154428     1.007825032230
         H           -1.106299844196    -1.947161791846     0.844311154428     1.007825032230
         H           -2.541310844196    -2.198117791846    -0.157668845572     1.007825032230
         H           -2.725868844196    -1.526762791846     1.480544154428     1.007825032230
         H            2.573088155804    -2.591829791846    -0.421135845572     1.007825032230

  Nuclear repulsion =  628.643867531055093
  Reference energy  = -509.849485198268837

  ==> Basis Set <==

  Basis Set: AUG-CC-PVTZ
    Blend: AUG-CC-PVTZ
    Number of shells: 253
    Number of basis function: 759
    Number of Cartesian functions: 880
    Spherical Harmonics?: true
    Max angular momentum: 3

  ==> CGRSolver (by Rob Parrish) <==

   Number of roots    =         1
   Preconditioning    =    JACOBI
   Convergence cutoff =     1E-06
   Maximum iterations =       100

  ==> CPHFRHamiltonian (by Rob Parrish) <== 

  ==> MemDFJK: Density-Fitted J/K Matrices <==

    J tasked:                   Yes
    K tasked:                   Yes
    wK tasked:                   No
    OpenMP threads:               8
    Memory [MiB]:             22888
    Algorithm:                 Disk
    Schwarz Cutoff:           1E-12
    Mask sparsity (%):       7.3066
    Fitting Condition:        1E-10

   => Auxiliary Basis Set <=

  Basis Set: (AUG-CC-PVTZ AUX)
    Blend: AUG-CC-PVTZ-JKFIT
    Number of shells: 484
    Number of basis function: 1650
    Number of Cartesian functions: 2046
    Spherical Harmonics?: true
    Max angular momentum: 4

  ==> CPHF Iterations <==

  => Iterations <=

             Iter  Converged  Remaining    Residual
  CGR           1          0          1   1.183E-01
  CGR           2          0          1   4.079E-02
  CGR           3          0          1   1.961E-02
  CGR           4          0          1   6.914E-03
  CGR           5          0          1   2.947E-03
  CGR           6          0          1   1.239E-03
  CGR           7          0          1   4.695E-04
  CGR           8          0          1   1.759E-04
  CGR           9          0          1   5.997E-05
  CGR          10          0          1   2.619E-05
  CGR          11          0          1   1.080E-05
  CGR          12          0          1   4.376E-06
  CGR          13          0          1   1.770E-06
  CGR          14          1          0   4.816E-07

    CGRSolver converged.

	-----------------------------------------------------------
	 ==================> DF-MP2 Energies <==================== 
	-----------------------------------------------------------
	 Reference Energy          =    -509.8494851982688374 [Eh]
	 Singles Energy            =      -0.0000000000000000 [Eh]
	 Same-Spin Energy          =      -0.5435277777611776 [Eh]
	 Opposite-Spin Energy      =      -1.6949340226455647 [Eh]
	 Correlation Energy        =      -2.2384618004067423 [Eh]
	 Total Energy              =    -512.0879469986755339 [Eh]
	-----------------------------------------------------------
	 ================> DF-SCS-MP2 Energies <================== 
	-----------------------------------------------------------
	 SCS Same-Spin Scale       =       0.3333333333333333 [-]
	 SCS Opposite-Spin Scale   =       1.2000000000000000 [-]
	 SCS Same-Spin Energy      =      -0.1811759259203925 [Eh]
	 SCS Opposite-Spin Energy  =      -2.0339208271746774 [Eh]
	 SCS Correlation Energy    =      -2.2150967530950698 [Eh]
	 SCS Total Energy          =    -512.0645819513639481 [Eh]
	-----------------------------------------------------------



Properties will be evaluated at   0.000000,   0.000000,   0.000000 [a0]

Properties computed using the MP2 density matrix

  Nuclear Dipole Moment: [e a0]
     X:    -4.7568      Y:     0.3508      Z:     2.7933

  Electronic Dipole Moment: [e a0]
     X:     5.2270      Y:    -0.1952      Z:    -2.2134

  Dipole Moment: [e a0]
     X:     0.4702      Y:     0.1556      Z:     0.5800     Total:     0.7627

  Dipole Moment: [D]
     X:     1.1952      Y:     0.3955      Z:     1.4741     Total:     1.9385


*** tstop() called on node144.bme.utexas.edu at Thu Feb 11 05:47:31 2021
Module time:
	user time   =    1667.11 seconds =      27.79 minutes
	system time =      76.08 seconds =       1.27 minutes
	total time  =        280 seconds =       4.67 minutes
Total time:
	user time   =    2180.32 seconds =      36.34 minutes
	system time =     141.47 seconds =       2.36 minutes
	total time  =        400 seconds =       6.67 minutes

    Psi4 stopped on: Thursday, 11 February 2021 05:47AM
    Psi4 wall time for execution: 0:06:40.45

*** Psi4 exiting successfully. Buy a developer a beer!
