202_Butyronitrile Gaussian SP Calculation on node58.bme.utexas.edu      
Freq      RMP2-FC                                                     6-31G(d)            
Number of atoms                            I               12
Info1-9                                    I   N=           9
          23          22        1002           0           0         100
           6           2           1
Charge                                     I                0
Multiplicity                               I                1
Number of electrons                        I               38
Number of alpha electrons                  I               19
Number of beta electrons                   I               19
Number of basis functions                  I               89
Number of independent functions            I               89
Number of point charges in /Mol/           I                0
Number of translation vectors              I                0
Atomic numbers                             I   N=          12
           7           6           6           6           6           1
           1           1           1           1           1           1
Nuclear charges                            R   N=          12
  7.00000000E+00  6.00000000E+00  6.00000000E+00  6.00000000E+00  6.00000000E+00
  1.00000000E+00  1.00000000E+00  1.00000000E+00  1.00000000E+00  1.00000000E+00
  1.00000000E+00  1.00000000E+00
Current cartesian coordinates              R   N=          36
 -4.97517099E+00 -5.49655453E-01  1.24690766E-06  1.65318107E+00 -9.90199627E-01
 -1.30154639E-06 -2.79476483E-01  1.17176787E+00 -5.24628564E-07  4.35435022E+00
  1.55739667E-02  7.80566783E-07 -2.88962149E+00  2.43774802E-01 -1.34271198E-06
  1.33196533E+00 -2.18112933E+00 -1.66072017E+00  1.33196400E+00 -2.18112970E+00
  1.66071742E+00 -6.76034890E-03  2.37403826E+00 -1.66384832E+00 -6.76120281E-03
  2.37403239E+00  1.66385174E+00  4.71401834E+00  1.17647685E+00 -1.67276006E+00
  4.71401791E+00  1.17646714E+00  1.67276845E+00  5.71715297E+00 -1.53666950E+00
 -3.44929379E-06
Force Field                                I                0
Int Atom Types                             I   N=          12
           0           0           0           0           0           0
           0           0           0           0           0           0
MM charges                                 R   N=          12
  0.00000000E+00  0.00000000E+00  0.00000000E+00  0.00000000E+00  0.00000000E+00
  0.00000000E+00  0.00000000E+00  0.00000000E+00  0.00000000E+00  0.00000000E+00
  0.00000000E+00  0.00000000E+00
Integer atomic weights                     I   N=          12
          14          12          12          12          12           1
           1           1           1           1           1           1
Real atomic weights                        R   N=          12
  1.40030740E+01  1.20000000E+01  1.20000000E+01  1.20000000E+01  1.20000000E+01
  1.00782504E+00  1.00782504E+00  1.00782504E+00  1.00782504E+00  1.00782504E+00
  1.00782504E+00  1.00782504E+00
Atom fragment info                         I   N=          12
           0           0           0           0           0           0
           0           0           0           0           0           0
Atom residue num                           I   N=          12
           0           0           0           0           0           0
           0           0           0           0           0           0
Nuclear spins                              I   N=          12
           2           0           0           0           0           1
           1           1           1           1           1           1
Nuclear ZEff                               R   N=          12
 -4.55000000E+00 -3.60000000E+00 -3.60000000E+00 -3.60000000E+00 -3.60000000E+00
 -1.00000000E+00 -1.00000000E+00 -1.00000000E+00 -1.00000000E+00 -1.00000000E+00
 -1.00000000E+00 -1.00000000E+00
Nuclear QMom                               R   N=          12
  2.04400000E+00  0.00000000E+00  0.00000000E+00  0.00000000E+00  0.00000000E+00
  0.00000000E+00  0.00000000E+00  0.00000000E+00  0.00000000E+00  0.00000000E+00
  0.00000000E+00  0.00000000E+00
Nuclear GFac                               R   N=          12
  4.03761000E-01  0.00000000E+00  0.00000000E+00  0.00000000E+00  0.00000000E+00
  2.79284600E+00  2.79284600E+00  2.79284600E+00  2.79284600E+00  2.79284600E+00
  2.79284600E+00  2.79284600E+00
MicOpt                                     I   N=          12
          -1          -1          -1          -1          -1          -1
          -1          -1          -1          -1          -1          -1
Number of contracted shells                I               34
Number of primitive shells                 I               83
Pure/Cartesian d shells                    I                1
Pure/Cartesian f shells                    I                0
Highest angular momentum                   I                2
Largest degree of contraction              I                6
Shell types                                I   N=          34
           0          -1          -1           2           0          -1
          -1           2           0          -1          -1           2
           0          -1          -1           2           0          -1
          -1           2           0           0           0           0
           0           0           0           0           0           0
           0           0           0           0
Number of primitives per shell             I   N=          34
           6           3           1           1           6           3
           1           1           6           3           1           1
           6           3           1           1           6           3
           1           1           3           1           3           1
           3           1           3           1           3           1
           3           1           3           1
Shell to atom map                          I   N=          34
           1           1           1           1           2           2
           2           2           3           3           3           3
           4           4           4           4           5           5
           5           5           6           6           7           7
           8           8           9           9          10          10
          11          11          12          12
Primitive exponents                        R   N=          83
  4.17351146E+03  6.27457911E+02  1.42902093E+02  4.02343293E+01  1.28202129E+01
  4.39043701E+00  1.16263619E+01  2.71627981E+00  7.72218397E-01  2.12031498E-01
  8.00000000E-01  3.04752488E+03  4.57369518E+02  1.03948685E+02  2.92101553E+01
  9.28666296E+00  3.16392696E+00  7.86827235E+00  1.88128854E+00  5.44249258E-01
  1.68714478E-01  8.00000000E-01  3.04752488E+03  4.57369518E+02  1.03948685E+02
  2.92101553E+01  9.28666296E+00  3.16392696E+00  7.86827235E+00  1.88128854E+00
  5.44249258E-01  1.68714478E-01  8.00000000E-01  3.04752488E+03  4.57369518E+02
  1.03948685E+02  2.92101553E+01  9.28666296E+00  3.16392696E+00  7.86827235E+00
  1.88128854E+00  5.44249258E-01  1.68714478E-01  8.00000000E-01  3.04752488E+03
  4.57369518E+02  1.03948685E+02  2.92101553E+01  9.28666296E+00  3.16392696E+00
  7.86827235E+00  1.88128854E+00  5.44249258E-01  1.68714478E-01  8.00000000E-01
  1.87311370E+01  2.82539436E+00  6.40121692E-01  1.61277759E-01  1.87311370E+01
  2.82539436E+00  6.40121692E-01  1.61277759E-01  1.87311370E+01  2.82539436E+00
  6.40121692E-01  1.61277759E-01  1.87311370E+01  2.82539436E+00  6.40121692E-01
  1.61277759E-01  1.87311370E+01  2.82539436E+00  6.40121692E-01  1.61277759E-01
  1.87311370E+01  2.82539436E+00  6.40121692E-01  1.61277759E-01  1.87311370E+01
  2.82539436E+00  6.40121692E-01  1.61277759E-01
Contraction coefficients                   R   N=          83
  1.83477216E-03  1.39946270E-02  6.85865518E-02  2.32240873E-01  4.69069948E-01
  3.60455199E-01 -1.14961182E-01 -1.69117479E-01  1.14585195E+00  1.00000000E+00
  1.00000000E+00  1.83473713E-03  1.40373228E-02  6.88426223E-02  2.32184443E-01
  4.67941348E-01  3.62311985E-01 -1.19332420E-01 -1.60854152E-01  1.14345644E+00
  1.00000000E+00  1.00000000E+00  1.83473713E-03  1.40373228E-02  6.88426223E-02
  2.32184443E-01  4.67941348E-01  3.62311985E-01 -1.19332420E-01 -1.60854152E-01
  1.14345644E+00  1.00000000E+00  1.00000000E+00  1.83473713E-03  1.40373228E-02
  6.88426223E-02  2.32184443E-01  4.67941348E-01  3.62311985E-01 -1.19332420E-01
 -1.60854152E-01  1.14345644E+00  1.00000000E+00  1.00000000E+00  1.83473713E-03
  1.40373228E-02  6.88426223E-02  2.32184443E-01  4.67941348E-01  3.62311985E-01
 -1.19332420E-01 -1.60854152E-01  1.14345644E+00  1.00000000E+00  1.00000000E+00
  3.34946043E-02  2.34726953E-01  8.13757326E-01  1.00000000E+00  3.34946043E-02
  2.34726953E-01  8.13757326E-01  1.00000000E+00  3.34946043E-02  2.34726953E-01
  8.13757326E-01  1.00000000E+00  3.34946043E-02  2.34726953E-01  8.13757326E-01
  1.00000000E+00  3.34946043E-02  2.34726953E-01  8.13757326E-01  1.00000000E+00
  3.34946043E-02  2.34726953E-01  8.13757326E-01  1.00000000E+00  3.34946043E-02
  2.34726953E-01  8.13757326E-01  1.00000000E+00
P(S=P) Contraction coefficients            R   N=          83
  0.00000000E+00  0.00000000E+00  0.00000000E+00  0.00000000E+00  0.00000000E+00
  0.00000000E+00  6.75797439E-02  3.23907296E-01  7.40895140E-01  1.00000000E+00
  0.00000000E+00  0.00000000E+00  0.00000000E+00  0.00000000E+00  0.00000000E+00
  0.00000000E+00  0.00000000E+00  6.89990666E-02  3.16423961E-01  7.44308291E-01
  1.00000000E+00  0.00000000E+00  0.00000000E+00  0.00000000E+00  0.00000000E+00
  0.00000000E+00  0.00000000E+00  0.00000000E+00  6.89990666E-02  3.16423961E-01
  7.44308291E-01  1.00000000E+00  0.00000000E+00  0.00000000E+00  0.00000000E+00
  0.00000000E+00  0.00000000E+00  0.00000000E+00  0.00000000E+00  6.89990666E-02
  3.16423961E-01  7.44308291E-01  1.00000000E+00  0.00000000E+00  0.00000000E+00
  0.00000000E+00  0.00000000E+00  0.00000000E+00  0.00000000E+00  0.00000000E+00
  6.89990666E-02  3.16423961E-01  7.44308291E-01  1.00000000E+00  0.00000000E+00
  0.00000000E+00  0.00000000E+00  0.00000000E+00  0.00000000E+00  0.00000000E+00
  0.00000000E+00  0.00000000E+00  0.00000000E+00  0.00000000E+00  0.00000000E+00
  0.00000000E+00  0.00000000E+00  0.00000000E+00  0.00000000E+00  0.00000000E+00
  0.00000000E+00  0.00000000E+00  0.00000000E+00  0.00000000E+00  0.00000000E+00
  0.00000000E+00  0.00000000E+00  0.00000000E+00  0.00000000E+00  0.00000000E+00
  0.00000000E+00  0.00000000E+00  0.00000000E+00
Coordinates of each shell                  R   N=         102
 -4.97517099E+00 -5.49655453E-01  1.24690766E-06 -4.97517099E+00 -5.49655453E-01
  1.24690766E-06 -4.97517099E+00 -5.49655453E-01  1.24690766E-06 -4.97517099E+00
 -5.49655453E-01  1.24690766E-06  1.65318107E+00 -9.90199627E-01 -1.30154639E-06
  1.65318107E+00 -9.90199627E-01 -1.30154639E-06  1.65318107E+00 -9.90199627E-01
 -1.30154639E-06  1.65318107E+00 -9.90199627E-01 -1.30154639E-06 -2.79476483E-01
  1.17176787E+00 -5.24628564E-07 -2.79476483E-01  1.17176787E+00 -5.24628564E-07
 -2.79476483E-01  1.17176787E+00 -5.24628564E-07 -2.79476483E-01  1.17176787E+00
 -5.24628564E-07  4.35435022E+00  1.55739667E-02  7.80566783E-07  4.35435022E+00
  1.55739667E-02  7.80566783E-07  4.35435022E+00  1.55739667E-02  7.80566783E-07
  4.35435022E+00  1.55739667E-02  7.80566783E-07 -2.88962149E+00  2.43774802E-01
 -1.34271198E-06 -2.88962149E+00  2.43774802E-01 -1.34271198E-06 -2.88962149E+00
  2.43774802E-01 -1.34271198E-06 -2.88962149E+00  2.43774802E-01 -1.34271198E-06
  1.33196533E+00 -2.18112933E+00 -1.66072017E+00  1.33196533E+00 -2.18112933E+00
 -1.66072017E+00  1.33196400E+00 -2.18112970E+00  1.66071742E+00  1.33196400E+00
 -2.18112970E+00  1.66071742E+00 -6.76034890E-03  2.37403826E+00 -1.66384832E+00
 -6.76034890E-03  2.37403826E+00 -1.66384832E+00 -6.76120281E-03  2.37403239E+00
  1.66385174E+00 -6.76120281E-03  2.37403239E+00  1.66385174E+00  4.71401834E+00
  1.17647685E+00 -1.67276006E+00  4.71401834E+00  1.17647685E+00 -1.67276006E+00
  4.71401791E+00  1.17646714E+00  1.67276845E+00  4.71401791E+00  1.17646714E+00
  1.67276845E+00  5.71715297E+00 -1.53666950E+00 -3.44929379E-06  5.71715297E+00
 -1.53666950E+00 -3.44929379E-06
Constraint Structure                       R   N=          36
 -4.97517099E+00 -5.49655453E-01  1.24690766E-06  1.65318107E+00 -9.90199627E-01
 -1.30154639E-06 -2.79476483E-01  1.17176787E+00 -5.24628564E-07  4.35435022E+00
  1.55739667E-02  7.80566783E-07 -2.88962149E+00  2.43774802E-01 -1.34271198E-06
  1.33196533E+00 -2.18112933E+00 -1.66072017E+00  1.33196400E+00 -2.18112970E+00
  1.66071742E+00 -6.76034890E-03  2.37403826E+00 -1.66384832E+00 -6.76120281E-03
  2.37403239E+00  1.66385174E+00  4.71401834E+00  1.17647685E+00 -1.67276006E+00
  4.71401791E+00  1.17646714E+00  1.67276845E+00  5.71715297E+00 -1.53666950E+00
 -3.44929379E-06
Num ILSW                                   I              100
ILSW                                       I   N=         100
           0           1           0           0           2           0
           0           0           0           0           0          -1
           0           0           0           0           0           0
           0           0           0           0           1           0
           1           0           0           0           0           0
           0           0      100000           0          -1           0
           0           0           0           0           0           0
           0           0           0           1           1           0
           0           0           1           0           0           0
           0           0           4          40           0           0
           0           0           0           0           0           0
           0           0           0           0           0           0
           0           0           0           0           0           0
           0           0           0           0           0           0
           0           0           0           0           0           0
           0           0           0           0           0           0
           0           0           0           0
Num RLSW                                   I               40
RLSW                                       R   N=          40
  1.00000000E+00  1.00000000E+00  1.00000000E+00  1.00000000E+00  1.00000000E+00
  0.00000000E+00  0.00000000E+00  1.00000000E+00  0.00000000E+00  0.00000000E+00
  0.00000000E+00  0.00000000E+00  1.00000000E+00  0.00000000E+00  0.00000000E+00
  0.00000000E+00  0.00000000E+00  1.00000000E+00  0.00000000E+00  0.00000000E+00
  0.00000000E+00  0.00000000E+00  1.00000000E+00  0.00000000E+00  0.00000000E+00
  0.00000000E+00  0.00000000E+00  1.00000000E+00  0.00000000E+00  0.00000000E+00
  0.00000000E+00  0.00000000E+00  0.00000000E+00  0.00000000E+00  0.00000000E+00
  0.00000000E+00  0.00000000E+00  0.00000000E+00  1.00000000E+00  1.00000000E+00
MxBond                                     I                4
NBond                                      I   N=          12
           1           4           4           4           2           1
           1           1           1           1           1           1
IBond                                      I   N=          48
           5           0           0           0           3           4
           6           7           2           5           8           9
           2          10          11          12           1           3
           0           0           2           0           0           0
           2           0           0           0           3           0
           0           0           3           0           0           0
           4           0           0           0           4           0
           0           0           4           0           0           0
RBond                                      R   N=          48
  3.00000000E+00  0.00000000E+00  0.00000000E+00  0.00000000E+00  1.00000000E+00
  1.00000000E+00  1.00000000E+00  1.00000000E+00  1.00000000E+00  1.00000000E+00
  1.00000000E+00  1.00000000E+00  1.00000000E+00  1.00000000E+00  1.00000000E+00
  1.00000000E+00  3.00000000E+00  1.00000000E+00  0.00000000E+00  0.00000000E+00
  1.00000000E+00  0.00000000E+00  0.00000000E+00  0.00000000E+00  1.00000000E+00
  0.00000000E+00  0.00000000E+00  0.00000000E+00  1.00000000E+00  0.00000000E+00
  0.00000000E+00  0.00000000E+00  1.00000000E+00  0.00000000E+00  0.00000000E+00
  0.00000000E+00  1.00000000E+00  0.00000000E+00  0.00000000E+00  0.00000000E+00
  1.00000000E+00  0.00000000E+00  0.00000000E+00  0.00000000E+00  1.00000000E+00
  0.00000000E+00  0.00000000E+00  0.00000000E+00
Virial Ratio                               R      2.002560616309473E+00
SCF Energy                                 R     -2.099921355056391E+02
MP2 Energy                                 R     -2.106696540167145E+02
Total Energy                               R     -2.106696540167145E+02
Post-SCF wavefunction norm                 R      1.574795073715470E+00
RMS Force                                  R      1.422409897036314E-07
RMS Density                                R      2.241954002146047E-09
External E-field                           R   N=          35
  0.00000000E+00  0.00000000E+00  0.00000000E+00  0.00000000E+00  0.00000000E+00
  0.00000000E+00  0.00000000E+00  0.00000000E+00  0.00000000E+00  0.00000000E+00
  0.00000000E+00  0.00000000E+00  0.00000000E+00  0.00000000E+00  0.00000000E+00
  0.00000000E+00  0.00000000E+00  0.00000000E+00  0.00000000E+00  0.00000000E+00
  0.00000000E+00  0.00000000E+00  0.00000000E+00  0.00000000E+00  0.00000000E+00
  0.00000000E+00  0.00000000E+00  0.00000000E+00  0.00000000E+00  0.00000000E+00
  0.00000000E+00  0.00000000E+00  0.00000000E+00  0.00000000E+00  0.00000000E+00
IOpCl                                      I                0
IROHF                                      I                0
Alpha Orbital Energies                     R   N=          89
 -1.55793811E+01 -1.12837905E+01 -1.12823996E+01 -1.12535080E+01 -1.12367131E+01
 -1.20282109E+00 -1.10072970E+00 -9.85947783E-01 -8.45485043E-01 -7.04246561E-01
 -6.71124477E-01 -6.03270688E-01 -5.82858545E-01 -5.59561565E-01 -5.27102271E-01
 -5.17571541E-01 -5.05003902E-01 -4.44662008E-01 -4.42060841E-01  1.89263996E-01
  2.00686580E-01  2.24092965E-01  2.63688092E-01  2.68252235E-01  2.77755156E-01
  3.04769096E-01  3.22890550E-01  3.52192992E-01  3.81763716E-01  4.03260591E-01
  4.17974000E-01  4.99984266E-01  7.04235164E-01  7.26659213E-01  7.37045468E-01
  7.59511132E-01  7.74948187E-01  8.33883593E-01  8.61863853E-01  8.69244441E-01
  9.08774470E-01  9.47918274E-01  1.00669090E+00  1.04235269E+00  1.08561794E+00
  1.08677855E+00  1.12169358E+00  1.12737739E+00  1.14542556E+00  1.14884287E+00
  1.16769416E+00  1.20146870E+00  1.22613711E+00  1.24267616E+00  1.30202976E+00
  1.48702625E+00  1.63066223E+00  1.63973536E+00  1.67321611E+00  1.75015293E+00
  1.80130392E+00  1.81153093E+00  1.86378883E+00  2.01591549E+00  2.05319448E+00
  2.13901373E+00  2.19927476E+00  2.22093494E+00  2.25137951E+00  2.25258407E+00
  2.31450343E+00  2.32365576E+00  2.40151865E+00  2.52182451E+00  2.54558454E+00
  2.64141767E+00  2.67834263E+00  2.69683162E+00  2.86952802E+00  2.94401118E+00
  3.08764758E+00  3.11749342E+00  3.19705946E+00  3.58688730E+00  4.44385067E+00
  4.52047925E+00  4.64540367E+00  4.80221446E+00  5.06497056E+00
Alpha MO coefficients                      R   N=        7921
  9.95382224E-01  2.43682743E-02  2.33126087E-03  8.89849618E-04 -3.58667525E-09
 -7.04950539E-03 -2.49185881E-03 -9.49899310E-04  4.17295402E-09 -1.89862307E-03
 -2.95393150E-03 -3.12937338E-03  5.43226014E-04 -1.73909099E-09 -6.19447491E-10
  5.62726187E-06  3.22734438E-05 -2.34078533E-06 -9.38446867E-06 -1.38335958E-10
 -3.52902631E-04  9.87929007E-05 -1.63246515E-04  1.39614166E-09  9.77283804E-06
 -8.89445291E-06  1.51596148E-06  1.85058334E-05 -6.64927889E-11  3.47941670E-11
 -1.57617270E-05 -2.94052672E-04 -2.53457719E-04 -9.88329672E-05  4.59067227E-11
  3.53468188E-03 -1.47442954E-03 -5.97015365E-04 -3.75882728E-09  3.56971333E-04
  4.49778173E-05 -7.54821757E-06  1.32878005E-04  6.16891426E-10  7.64880786E-11
 -1.06499485E-05 -5.26682188E-05  1.65478320E-05 -1.96887992E-05 -5.08162002E-11
  2.19969002E-04 -2.17806863E-04  1.67861520E-04 -8.58852556E-11  3.20732641E-06
 -2.85775485E-05 -7.79909357E-06 -7.55122234E-06  8.59603459E-11 -7.32896483E-11
  8.45052266E-05  3.08954500E-04  7.41856943E-04  2.96119858E-04 -1.01728143E-09
  2.37454717E-03 -5.25864705E-03 -1.98362098E-03  4.07044324E-09 -1.13369785E-03
 -5.32660106E-05  1.13439453E-04 -5.38895042E-04  1.18155762E-09  4.42344114E-10
  2.65116522E-05 -3.76297768E-05  2.65115096E-05 -3.76311850E-05 -5.12489379E-05
 -2.53418900E-05 -5.12481632E-05 -2.53406611E-05 -3.35900403E-05 -1.63239484E-05
 -3.35899593E-05 -1.63237548E-05  1.33242995E-05  1.03500895E-04 -1.72587716E-04
  2.37056574E-04  2.03506242E-04  7.82131091E-05 -3.56568192E-10 -9.89045683E-04
 -6.13741717E-04 -2.20020107E-04 -2.10777215E-10  2.20823811E-04  6.67180533E-05
  3.77803722E-05  7.69119002E-05 -6.25824319E-10 -2.55618094E-10  8.97917730E-03
  1.87303166E-04 -8.04943526E-05  3.28016028E-05  3.74094132E-11  4.04125483E-03
 -1.61419314E-03  1.48465625E-03  8.85534235E-10 -2.40180823E-04 -3.26440688E-04
 -1.26543378E-04  1.21780975E-04 -1.05534651E-10  4.54339740E-11  9.58316741E-01
  2.76777777E-02 -5.76511789E-04 -1.75028403E-04  9.73123787E-10 -1.66976686E-02
  3.26302188E-04  1.07359034E-03 -6.40407246E-09 -1.70247197E-03 -1.65384640E-03
 -1.51915613E-03 -1.00353901E-05 -2.24330047E-10 -6.76598737E-10 -9.27543218E-05
 -1.68150552E-04  7.39391189E-05 -3.19303948E-05 -2.31860910E-10  4.60426518E-04
 -5.53597112E-05  1.40542539E-04  1.54318919E-09 -3.59188639E-05  3.54100919E-06
 -8.99562547E-05 -2.46309943E-05  5.32899899E-11  1.09722421E-10  2.70288357E-01
  7.54686176E-03  1.14785380E-04 -3.46419579E-06 -7.59260846E-11  3.25364460E-03
  1.05280621E-03  2.99928953E-04  2.63128926E-09 -1.02562992E-03 -9.30338333E-04
 -8.47319706E-04 -7.38140847E-05 -5.64635166E-10 -2.69467439E-10 -1.81535634E-04
  9.06212805E-05 -1.81535444E-04  9.06210347E-05  2.35028340E-04  2.62242417E-03
  2.35030074E-04  2.62242923E-03 -5.32602172E-06 -2.59398767E-04 -5.32586272E-06
 -2.59400782E-04 -3.67291450E-05  2.05364047E-04 -6.57527040E-04  4.29837539E-04
 -1.44988617E-04 -3.84852460E-05  1.52717933E-10 -1.02195476E-02 -3.16919892E-03
 -1.41180264E-03  8.50621481E-09  3.21161846E-04  2.44990926E-04  2.65703365E-04
 -1.96458806E-05  1.24589200E-09  5.39916348E-10 -2.81691593E-03 -2.15763996E-04
  2.39910051E-04 -3.20381306E-05 -1.34734920E-10 -1.99250393E-03 -9.34077646E-04
 -8.18977259E-04  6.89414099E-10  7.14161680E-05  1.03002098E-04 -2.85875118E-05
 -8.37235084E-05 -1.94160689E-10  1.03206271E-10 -2.70798437E-01 -8.02499786E-03
  5.88438779E-04  2.26108395E-04  4.51665270E-10  1.50595184E-02 -4.90593137E-03
 -1.78613622E-03 -4.62570423E-09 -5.52721767E-04  4.97612089E-05  2.08050076E-04
 -2.88344238E-04 -1.94037911E-10 -3.11290335E-10 -5.63739271E-05 -2.40669437E-04
 -2.36659822E-05 -5.32665908E-05 -1.50399680E-10  1.91055971E-03 -1.01258175E-03
  8.48162590E-05 -1.77837408E-10  1.23782531E-05 -9.28637579E-05 -6.23281388E-05
  2.51450580E-05  1.92762305E-10 -1.01828508E-10  9.58246922E-01  2.61847435E-02
  4.91764177E-04  1.13351228E-04  3.84957071E-10 -7.16814403E-03 -1.24311327E-02
 -4.23547037E-03  3.82442304E-09 -2.47837829E-04 -2.18678878E-03 -2.47708920E-03
  9.65826683E-04 -1.78092423E-09 -6.62819370E-10 -3.74571315E-05 -2.18698172E-05
 -3.74573121E-05 -2.18713462E-05 -3.56540629E-04 -5.58883855E-04 -3.56539822E-04
 -5.58882601E-04 -1.01273133E-04 -6.85013883E-05 -1.01272955E-04 -6.85018993E-05
 -2.93110059E-05  1.50377548E-04 -4.46713703E-07 -6.84394218E-06  9.18563472E-06
 -2.15512461E-06  8.65914896E-11  1.25928248E-04  2.13099507E-05  3.10689149E-05
 -2.84211143E-10  5.97199832E-06 -2.15166457E-06  1.14999986E-05  3.25850009E-06
  1.59683682E-11  2.67590663E-11  9.95654143E-01  2.84572159E-02 -1.09418908E-04
  2.62955754E-04  6.30130890E-10 -1.71470784E-02 -2.44106819E-05 -1.11672438E-03
 -3.16357768E-09 -1.63655999E-03 -1.63908040E-03 -1.54508093E-03  2.89833921E-05
  7.31532427E-11  4.06406849E-10 -9.70921999E-03 -1.81713855E-04  8.55894666E-05
 -5.12293637E-06  3.06472310E-11  4.20866557E-03  1.42348285E-03 -1.46987320E-03
 -7.52959175E-10 -2.90368892E-04 -3.66857456E-04 -8.32455324E-05  2.23273995E-04
  4.38112310E-11 -2.36010704E-10  1.76785813E-02  5.56511406E-04 -8.36007804E-05
  2.14021719E-05  1.46567004E-10  3.88148216E-03 -1.73007912E-03 -6.74289963E-04
 -2.18105308E-09 -4.61969715E-04 -2.18515199E-04 -1.23024282E-04 -1.59462985E-04
 -3.71605457E-10 -2.33303542E-10  2.30369209E-04 -1.64530123E-04 -7.37607800E-05
 -1.43887017E-05 -2.21860652E-11  4.32554947E-05  1.74636048E-04  1.10912724E-04
  1.09623575E-10  2.15106390E-05  2.86915047E-05 -1.03735754E-04 -4.67462471E-05
  1.88015391E-11  7.95381345E-11  2.36228627E-04  2.61786929E-03  2.36229423E-04
  2.61787039E-03 -1.54182895E-04  5.98723481E-06 -1.54182626E-04  5.98752785E-06
 -1.52624469E-04  7.83063055E-05 -1.52624422E-04  7.83075610E-05 -1.35843773E-04
 -1.17845566E-04 -2.43208298E-05 -9.41232182E-05  3.20534824E-06 -5.27439962E-06
  4.11643587E-11  1.36769982E-03  2.99616828E-04  1.68679962E-04 -8.85748998E-10
 -5.46115491E-05 -4.20667762E-05 -4.54009508E-05  1.80207602E-06 -4.34948742E-11
 -2.54052391E-11 -1.79714625E-02 -4.00181846E-04 -5.40480348E-06 -1.63236655E-05
  1.18229526E-10  3.96492343E-03  1.76949722E-03  5.82355410E-04  3.71284777E-10
 -4.05163938E-04 -1.72541986E-04 -5.66110142E-05 -1.28407510E-04 -2.61161312E-10
 -1.12990158E-10  2.19423184E-04 -7.12182107E-05 -1.07765818E-04 -1.39834883E-05
 -1.34051639E-10 -1.31028246E-03  1.46578676E-03  6.75365728E-04  1.62326525E-09
 -3.09661059E-05 -2.25007299E-05 -3.70037614E-05 -4.69606548E-05  7.31814200E-11
 -4.88453945E-12  9.95602781E-01  2.84854605E-02 -1.46364945E-04  4.31027430E-05
  3.65056014E-10 -1.54120686E-02  1.00448629E-03 -5.65595670E-05 -1.23949278E-09
 -1.84356348E-03 -1.78158992E-03 -1.79921299E-03 -2.99159962E-05 -2.27992011E-10
  1.25625256E-11 -2.70465298E-05 -1.77326077E-04 -2.67146146E-05 -6.55354848E-06
  9.38548678E-11  1.18307292E-03  1.96472829E-03  5.77788565E-04 -7.28670540E-10
 -2.26274134E-06 -7.63206316E-05 -8.96272858E-05  1.39197354E-05  4.36309382E-11
  4.83507016E-13 -1.40738154E-04  7.49061133E-06 -1.40737904E-04  7.49158807E-06
 -2.57062987E-05 -2.75301849E-04 -2.57066733E-05 -2.75301155E-04  1.81273695E-04
  2.63925364E-03  1.81273791E-04  2.63925487E-03  1.19470281E-04  2.32232061E-03
 -1.72005672E-01  3.42575627E-01  1.60341131E-01  6.03919417E-02 -1.80060793E-07
  4.05517900E-01  7.64246295E-02  2.95060924E-02 -1.10865439E-07  1.23433347E-02
 -9.99843802E-03 -1.37271485E-02  1.14148075E-02 -3.68498940E-08 -1.38054768E-08
 -2.00826308E-02  3.82369889E-02 -1.25926397E-02  1.05367167E-02  1.27805110E-08
  2.67214765E-02  3.15156103E-03  2.18907363E-03 -2.31316299E-08  1.61345911E-03
  1.60693254E-03  2.73636031E-04 -1.72566161E-03  3.85673423E-10  1.04481246E-10
 -4.44345590E-02  8.63920729E-02 -2.83769547E-02 -1.51096306E-02  1.61337437E-08
 -6.37014337E-03  2.89983499E-02  8.42244763E-03  9.86093974E-08  5.41254768E-03
  1.26808608E-03  1.06319015E-04  2.00563491E-03 -4.45156488E-09 -3.60297955E-10
 -6.84314535E-03  1.42903918E-02 -6.85992874E-03 -7.90998958E-04 -1.58014825E-09
  1.76820082E-03  3.95536606E-03 -1.83686777E-03  1.45788619E-09  1.18807712E-03
  3.10513357E-04  2.25249921E-04  4.37723605E-04 -1.97298347E-10  2.89946831E-10
 -1.53382126E-01  2.87752082E-01 -1.57723236E-01 -6.14560423E-02  2.47129614E-07
  1.08967223E-01  1.07012023E-01  3.86849232E-02 -6.78777955E-08  2.14044718E-02
 -1.12145937E-02 -1.66469382E-02  1.63300694E-02 -4.18687373E-08 -1.64050218E-08
  1.03995330E-02  1.54103423E-03  1.03995417E-02  1.54106556E-03  2.19561520E-02
 -4.41834131E-04  2.19561640E-02 -4.41877911E-04  3.86393541E-03  1.03686170E-03
  3.86393408E-03  1.03686319E-03  2.78565838E-03 -1.67733153E-03  5.49919229E-02
 -1.14010253E-01 -4.48127519E-02 -1.88140213E-02  7.38103248E-08 -1.17813850E-01
 -1.51744677E-02 -7.12143257E-03  3.10139056E-08 -5.28277645E-03  2.66110861E-03
  4.34510522E-03 -4.73285523E-03  2.00284688E-08  8.02682950E-09 -1.30338588E-01
  2.40817136E-01 -8.20316843E-03  4.65358337E-02  6.69190284E-08  1.99841664E-01
 -3.67770525E-03  5.44893403E-03  5.17961287E-08  8.34952180E-03  6.57850622E-03
  2.11380787E-03 -2.59957310E-03  3.34745610E-10  7.50700042E-09 -1.27830332E-01
  2.38683516E-01  2.68617848E-02 -3.93057756E-02  4.64388727E-08  2.24657750E-01
 -2.76319905E-03 -7.61361806E-03  1.88388324E-08  4.37663247E-03  7.05299265E-03
  3.23418014E-03 -4.92305596E-03  1.36678901E-09 -4.47507206E-09 -8.36314581E-02
  1.54681786E-01 -5.22916516E-02 -1.18122587E-02 -1.70233640E-08  1.26045239E-01
 -7.94010780E-03 -1.10602944E-03 -6.93699974E-09  9.59873892E-03  1.99470901E-03
  1.43053204E-03  2.80505730E-03  5.50403737E-09  7.62995014E-10 -4.84679559E-03
  1.50887481E-02  1.42276558E-01  4.60361343E-02 -6.69344119E-08  6.89901093E-03
 -8.69114008E-03 -2.84836222E-03  1.10322056E-09  7.60949990E-03  8.33928356E-04
  4.83669530E-04  1.85255517E-03  1.31864596E-08  5.43599940E-09  6.93125515E-02
  8.29399079E-03  6.93125714E-02  8.29396473E-03  7.10881323E-02  9.94818912E-03
  7.10881843E-02  9.94818491E-03  4.54420216E-02  7.89568320E-03  4.54420302E-02
  7.89569016E-03  4.15470042E-02  6.13825283E-03 -4.11392266E-02  8.74876207E-02
  2.54169006E-02  8.63366558E-03 -6.24408988E-08  8.81964391E-02  6.35769527E-03