
    -----------------------------------------------------------------------
          Psi4: An Open-Source Ab Initio Electronic Structure Package
                               Psi4 1.3.2 release

                         Git: Rev {HEAD} ecbda83 


    R. M. Parrish, L. A. Burns, D. G. A. Smith, A. C. Simmonett,
    A. E. DePrince III, E. G. Hohenstein, U. Bozkaya, A. Yu. Sokolov,
    R. Di Remigio, R. M. Richard, J. F. Gonthier, A. M. James,
    H. R. McAlexander, A. Kumar, M. Saitow, X. Wang, B. P. Pritchard,
    P. Verma, H. F. Schaefer III, K. Patkowski, R. A. King, E. F. Valeev,
    F. A. Evangelista, J. M. Turney, T. D. Crawford, and C. D. Sherrill,
    J. Chem. Theory Comput. 13(7) pp 3185--3197 (2017).
    (doi: 10.1021/acs.jctc.7b00174)


                         Additional Contributions by
    P. Kraus, H. Kruse, M. H. Lechner, M. C. Schieber, R. A. Shaw,
    A. Alenaizan, R. Galvelis, Z. L. Glick, S. Lehtola, and J. P. Misiewicz

    -----------------------------------------------------------------------


    Psi4 started on: Wednesday, 04 November 2020 07:53AM

    Process ID: 92087
    Host:       node101.bme.utexas.edu
    PSIDATADIR: /home/xy3866/psi4conda/share/psi4
    Memory:     500.0 MiB
    Threads:    8
    
  ==> Input File <==

--------------------------------------------------------------------------
#psi4
#
memory 32 gb

molecule  {
0 1
  N       -3.2629527     0.1650839     0.0001980
  C       -0.6037160    -0.0000080    -0.0000850
  C        0.0916120    -1.2188480    -0.0000380
  C        0.0915980     1.2188410    -0.0000380
  C        1.4853760    -1.2105100     0.0000370
  C        1.4853620     1.2105190     0.0000370
  C        2.1831530     0.0000080     0.0000710
  C       -2.0399480    -0.0000140    -0.0001810
  H       -0.4610000    -2.1546890    -0.0000690
  H       -0.4610240     2.1546760    -0.0000680
  H        2.0281230    -2.1522080     0.0000640
  H        2.0281000     2.1522220     0.0000650
  H        3.2702100     0.0000140     0.0001300
units angstrom
no_reorient  #important for SAPT in psi4, default
symmetry c1  #important for SAPT in psi4, default
}

set PROPERTIES_ORIGIN ["COM"]
properties('MP2/aug-cc-pvtz', properties = ['dipole'])
--------------------------------------------------------------------------

  Memory set to  29.802 GiB by Python driver.
    SCF Algorithm Type (re)set to DF.

*** tstart() called on node101.bme.utexas.edu
*** at Wed Nov  4 07:53:23 2020

   => Loading Basis Set <=

    Name: AUG-CC-PVTZ
    Role: ORBITAL
    Keyword: BASIS
    atoms 1    entry N          line   281 file /home/xy3866/psi4conda/share/psi4/basis/aug-cc-pvtz.gbs 
    atoms 2-8  entry C          line   235 file /home/xy3866/psi4conda/share/psi4/basis/aug-cc-pvtz.gbs 
    atoms 9-13 entry H          line    36 file /home/xy3866/psi4conda/share/psi4/basis/aug-cc-pvtz.gbs 


         ---------------------------------------------------------
                                   SCF
               by Justin Turney, Rob Parrish, Andy Simmonett
                          and Daniel G. A. Smith
                              RHF Reference
                        8 Threads,  30517 MiB Core
         ---------------------------------------------------------

  ==> Geometry <==

    Molecular point group: c1
    Full point group: C1

    Geometry (in Angstrom), charge = 0, multiplicity = 1:

       Center              X                  Y                   Z               Mass       
    ------------   -----------------  -----------------  -----------------  -----------------
         N           -3.195838445062     0.142650826902     0.000192841305    14.003074004430
         C           -0.536601745062    -0.022441073098    -0.000090158695    12.000000000000
         C            0.158726254938    -1.241281073098    -0.000043158695    12.000000000000
         C            0.158712254938     1.196407926902    -0.000043158695    12.000000000000
         C            1.552490254938    -1.232943073098     0.000031841305    12.000000000000
         C            1.552476254938     1.188085926902     0.000031841305    12.000000000000
         C            2.250267254938    -0.022425073098     0.000065841305    12.000000000000
         C           -1.972833745062    -0.022447073098    -0.000186158695    12.000000000000
         H           -0.393885745062    -2.177122073098    -0.000074158695     1.007825032230
         H           -0.393909745062     2.132242926902    -0.000073158695     1.007825032230
         H            2.095237254938    -2.174641073098     0.000058841305     1.007825032230
         H            2.095214254938     2.129788926902     0.000059841305     1.007825032230
         H            3.337324254938    -0.022419073098     0.000124841305     1.007825032230

  Running in c1 symmetry.

  Rotational constants: A =      0.18810  B =      0.05062  C =      0.03989 [cm^-1]
  Rotational constants: A =   5638.99965  B =   1517.63834  C =   1195.80760 [MHz]
  Nuclear repulsion =  297.452893380673800

  Charge       = 0
  Multiplicity = 1
  Electrons    = 54
  Nalpha       = 27
  Nbeta        = 27

  ==> Algorithm <==

  SCF Algorithm Type is DF.
  DIIS enabled.
  MOM disabled.
  Fractional occupation disabled.
  Guess Type is SAD.
  Energy threshold   = 1.00e-10
  Density threshold  = 1.00e-10
  Integral threshold = 0.00e+00

  ==> Primary Basis <==

  Basis Set: AUG-CC-PVTZ
    Blend: AUG-CC-PVTZ
    Number of shells: 157
    Number of basis function: 483
    Number of Cartesian functions: 565
    Spherical Harmonics?: true
    Max angular momentum: 3

   => Loading Basis Set <=

    Name: (AUG-CC-PVTZ AUX)
    Role: JKFIT
    Keyword: DF_BASIS_SCF
    atoms 1    entry N          line   224 file /home/xy3866/psi4conda/share/psi4/basis/aug-cc-pvtz-jkfit.gbs 
    atoms 2-8  entry C          line   162 file /home/xy3866/psi4conda/share/psi4/basis/aug-cc-pvtz-jkfit.gbs 
    atoms 9-13 entry H          line    70 file /home/xy3866/psi4conda/share/psi4/basis/aug-cc-pvtz-jkfit.gbs 

  ==> Pre-Iterations <==

   -------------------------------------------------------
    Irrep   Nso     Nmo     Nalpha   Nbeta   Ndocc  Nsocc
   -------------------------------------------------------
     A        483     483       0       0       0       0
   -------------------------------------------------------
    Total     483     483      27      27      27       0
   -------------------------------------------------------

  ==> Integral Setup <==

  DFHelper Memory: AOs need 1.861 GiB; user supplied 22.352 GiB. Using in-core AOs.

  ==> MemDFJK: Density-Fitted J/K Matrices <==

    J tasked:                   Yes
    K tasked:                   Yes
    wK tasked:                   No
    OpenMP threads:               8
    Memory [MiB]:             22888
    Algorithm:                 Core
    Schwarz Cutoff:           1E-12
    Mask sparsity (%):       2.9466
    Fitting Condition:        1E-10

   => Auxiliary Basis Set <=

  Basis Set: (AUG-CC-PVTZ AUX)
    Blend: AUG-CC-PVTZ-JKFIT
    Number of shells: 310
    Number of basis function: 1062
    Number of Cartesian functions: 1323
    Spherical Harmonics?: true
    Max angular momentum: 4

  Minimum eigenvalue in the overlap matrix is 6.9133191373E-07.
  Using Symmetric Orthogonalization.

  SCF Guess: Superposition of Atomic Densities via on-the-fly atomic UHF.

  ==> Iterations <==

                           Total Energy        Delta E     RMS |[F,P]|

   @DF-RHF iter SAD:  -321.35776675413848   -3.21358e+02   0.00000e+00 
   @DF-RHF iter   1:  -322.33551787789577   -9.77751e-01   1.16804e-03 DIIS
   @DF-RHF iter   2:  -322.46412602831822   -1.28608e-01   7.20108e-04 DIIS
   @DF-RHF iter   3:  -322.51368824530488   -4.95622e-02   2.04268e-04 DIIS
   @DF-RHF iter   4:  -322.51821271019708   -4.52446e-03   8.80490e-05 DIIS
   @DF-RHF iter   5:  -322.51916406911056   -9.51359e-04   1.17128e-05 DIIS
   @DF-RHF iter   6:  -322.51919441145219   -3.03423e-05   4.13646e-06 DIIS
   @DF-RHF iter   7:  -322.51920103944792   -6.62800e-06   2.06568e-06 DIIS
   @DF-RHF iter   8:  -322.51920346785494   -2.42841e-06   1.11199e-06 DIIS
   @DF-RHF iter   9:  -322.51920456203800   -1.09418e-06   6.26638e-07 DIIS
   @DF-RHF iter  10:  -322.51920487458722   -3.12549e-07   2.70625e-07 DIIS
   @DF-RHF iter  11:  -322.51920493074897   -5.61618e-08   9.15458e-08 DIIS
   @DF-RHF iter  12:  -322.51920493387343   -3.12446e-09   3.53867e-08 DIIS
   @DF-RHF iter  13:  -322.51920493452525   -6.51823e-10   1.73429e-08 DIIS
   @DF-RHF iter  14:  -322.51920493474506   -2.19814e-10   7.99766e-09 DIIS
   @DF-RHF iter  15:  -322.51920493477996   -3.49019e-11   2.08045e-09 DIIS
   @DF-RHF iter  16:  -322.51920493478190   -1.93268e-12   6.58672e-10 DIIS
   @DF-RHF iter  17:  -322.51920493478241   -5.11591e-13   3.18945e-10 DIIS
   @DF-RHF iter  18:  -322.51920493478133    1.08002e-12   9.13746e-11 DIIS
  Energy and wave function converged.


  ==> Post-Iterations <==

    Orbital Energies [Eh]
    ---------------------

    Doubly Occupied:                                                      

       1A    -15.596958     2A    -11.303082     3A    -11.295637  
       4A    -11.276771     5A    -11.276627     6A    -11.271743  
       7A    -11.265883     8A    -11.265704     9A     -1.202409  
      10A     -1.170561    11A     -1.062959    12A     -1.048601  
      13A     -0.890249    14A     -0.860524    15A     -0.768005  
      16A     -0.702299    17A     -0.662044    18A     -0.639353  
      19A     -0.619881    20A     -0.568102    21A     -0.551727  
      22A     -0.535368    23A     -0.531173    24A     -0.467616  
      25A     -0.445831    26A     -0.367996    27A     -0.356665  

    Virtual:                                                              

      28A      0.020681    29A      0.029117    30A      0.035589  
      31A      0.048203    32A      0.051923    33A      0.054534  
      34A      0.074050    35A      0.082095    36A      0.083810  
      37A      0.091445    38A      0.100370    39A      0.101998  
      40A      0.103618    41A      0.107408    42A      0.109625  
      43A      0.120259    44A      0.124646    45A      0.131009  
      46A      0.131072    47A      0.135716    48A      0.138291  
      49A      0.146547    50A      0.147194    51A      0.149386  
      52A      0.157803    53A      0.164214    54A      0.169375  
      55A      0.172678    56A      0.191351    57A      0.205249  
      58A      0.209927    59A      0.224169    60A      0.227281  
      61A      0.235531    62A      0.240308    63A      0.241591  
      64A      0.250095    65A      0.257906    66A      0.262971  
      67A      0.266106    68A      0.268386    69A      0.281230  
      70A      0.293917    71A      0.298631    72A      0.298734  
      73A      0.301607    74A      0.308698    75A      0.312293  
      76A      0.325027    77A      0.325488    78A      0.333708  
      79A      0.339205    80A      0.343116    81A      0.353186  
      82A      0.362596    83A      0.367094    84A      0.387703  
      85A      0.396739    86A      0.396798    87A      0.415349  
      88A      0.422061    89A      0.422191    90A      0.424749  
      91A      0.436335    92A      0.438638    93A      0.443550  
      94A      0.450915    95A      0.454991    96A      0.456709  
      97A      0.461176    98A      0.467500    99A      0.472144  
     100A      0.475786   101A      0.482752   102A      0.493491  
     103A      0.499840   104A      0.500089   105A      0.509716  
     106A      0.510942   107A      0.515258   108A      0.524103  
     109A      0.528070   110A      0.528486   111A      0.532860  
     112A      0.574405   113A      0.582282   114A      0.596079  
     115A      0.600824   116A      0.611273   117A      0.614980  
     118A      0.619175   119A      0.619469   120A      0.623482  
     121A      0.632555   122A      0.645693   123A      0.655373  
     124A      0.672202   125A      0.675903   126A      0.678746  
     127A      0.685863   128A      0.690605   129A      0.694124  
     130A      0.709238   131A      0.721914   132A      0.729051  
     133A      0.737394   134A      0.755734   135A      0.757233  
     136A      0.767700   137A      0.777553   138A      0.783475  
     139A      0.787205   140A      0.813729   141A      0.825033  
     142A      0.833132   143A      0.837009   144A      0.852651  
     145A      0.859876   146A      0.862315   147A      0.864100  
     148A      0.868717   149A      0.873347   150A      0.882503  
     151A      0.883364   152A      0.884628   153A      0.899242  
     154A      0.908704   155A      0.913983   156A      0.914467  
     157A      0.921188   158A      0.945331   159A      0.955874  
     160A      0.965297   161A      0.972629   162A      0.979020  
     163A      0.990498   164A      0.992745   165A      1.006535  
     166A      1.018558   167A      1.018819   168A      1.023815  
     169A      1.033001   170A      1.044946   171A      1.048926  
     172A      1.063696   173A      1.065682   174A      1.068596  
     175A      1.073650   176A      1.080191   177A      1.082153  
     178A      1.082270   179A      1.108675   180A      1.127454  
     181A      1.136071   182A      1.139340   183A      1.149474  
     184A      1.157880   185A      1.164193   186A      1.174382  
     187A      1.176858   188A      1.182054   189A      1.183481  
     190A      1.192801   191A      1.200293   192A      1.206544  
     193A      1.212816   194A      1.215404   195A      1.217644  
     196A      1.232823   197A      1.240429   198A      1.253174  
     199A      1.254059   200A      1.286157   201A      1.286249  
     202A      1.309310   203A      1.334920   204A      1.336836  
     205A      1.342828   206A      1.354861   207A      1.365446  
     208A      1.371252   209A      1.379018   210A      1.386445  
     211A      1.403835   212A      1.421263   213A      1.435145  
     214A      1.440360   215A      1.454423   216A      1.464826  
     217A      1.470518   218A      1.497535   219A      1.505244  
     220A      1.515415   221A      1.540471   222A      1.542506  
     223A      1.580244   224A      1.592907   225A      1.599653  
     226A      1.626255   227A      1.630497   228A      1.637052  
     229A      1.660302   230A      1.666492   231A      1.676572  
     232A      1.682795   233A      1.724891   234A      1.725825  
     235A      1.732209   236A      1.748169   237A      1.765147  
     238A      1.780375   239A      1.788402   240A      1.791783  
     241A      1.802091   242A      1.808390   243A      1.811589  
     244A      1.816676   245A      1.839952   246A      1.848384  
     247A      1.863081   248A      1.871019   249A      1.877567  
     250A      1.885079   251A      1.900308   252A      1.918761  
     253A      1.919724   254A      1.953574   255A      1.953847  
     256A      1.980208   257A      1.982462   258A      1.994652  
     259A      1.995550   260A      2.013307   261A      2.020548  
     262A      2.040604   263A      2.046153   264A      2.054781  
     265A      2.058300   266A      2.088351   267A      2.097798  
     268A      2.104276   269A      2.109077   270A      2.112453  
     271A      2.143184   272A      2.165281   273A      2.200154  
     274A      2.213097   275A      2.214965   276A      2.261057  
     277A      2.273544   278A      2.307452   279A      2.319564  
     280A      2.320786   281A      2.338819   282A      2.339606  
     283A      2.348386   284A      2.351732   285A      2.378187  
     286A      2.386120   287A      2.414639   288A      2.417043  
     289A      2.437056   290A      2.440879   291A      2.463037  
     292A      2.511469   293A      2.532160   294A      2.540710  
     295A      2.553073   296A      2.578025   297A      2.599948  
     298A      2.691597   299A      2.711082   300A      2.722126  
     301A      2.746560   302A      2.748100   303A      2.752191  
     304A      2.783099   305A      2.862576   306A      2.875103  
     307A      2.963962   308A      2.986621   309A      3.080340  
     310A      3.094602   311A      3.127675   312A      3.151224  
     313A      3.162727   314A      3.183723   315A      3.188236  
     316A      3.269741   317A      3.277562   318A      3.279307  
     319A      3.293819   320A      3.311452   321A      3.325647  
     322A      3.346076   323A      3.352600   324A      3.359113  
     325A      3.374535   326A      3.404818   327A      3.413719  
     328A      3.422711   329A      3.432671   330A      3.439453  
     331A      3.457535   332A      3.479361   333A      3.511300  
     334A      3.515991   335A      3.518803   336A      3.539259  
     337A      3.543491   338A      3.565003   339A      3.569925  
     340A      3.578527   341A      3.592885   342A      3.610569  
     343A      3.610605   344A      3.615380   345A      3.623631  
     346A      3.667539   347A      3.691280   348A      3.692289  
     349A      3.721316   350A      3.728019   351A      3.752065  
     352A      3.752796   353A      3.781230   354A      3.799954  
     355A      3.815193   356A      3.830114   357A      3.841372  
     358A      3.843101   359A      3.851960   360A      3.867895  
     361A      3.893355   362A      3.909432   363A      3.922200  
     364A      3.924722   365A      3.948845   366A      3.954517  
     367A      3.960567   368A      3.984264   369A      3.996339  
     370A      4.003354   371A      4.009407   372A      4.033839  
     373A      4.056021   374A      4.069834   375A      4.092648  
     376A      4.096507   377A      4.107049   378A      4.135180  
     379A      4.154876   380A      4.161581   381A      4.194942  
     382A      4.223306   383A      4.235100   384A      4.238059  
     385A      4.268210   386A      4.276449   387A      4.306172  
     388A      4.325858   389A      4.329509   390A      4.337638  
     391A      4.362325   392A      4.365792   393A      4.383330  
     394A      4.392411   395A      4.393525   396A      4.404240  
     397A      4.408774   398A      4.426850   399A      4.439381  
     400A      4.457526   401A      4.490748   402A      4.541058  
     403A      4.585426   404A      4.637497   405A      4.659387  
     406A      4.685301   407A      4.689175   408A      4.710794  
     409A      4.722654   410A      4.736359   411A      4.740641  
     412A      4.777707   413A      4.834677   414A      4.850997  
     415A      4.866165   416A      4.916021   417A      4.921988  
     418A      4.935953   419A      4.973754   420A      4.988007  
     421A      5.007637   422A      5.020391   423A      5.025177  
     424A      5.043772   425A      5.047782   426A      5.082099  
     427A      5.089904   428A      5.102146   429A      5.115085  
     430A      5.119408   431A      5.121917   432A      5.125787  
     433A      5.156065   434A      5.231064   435A      5.240123  
     436A      5.244928   437A      5.285797   438A      5.294506  
     439A      5.310744   440A      5.344616   441A      5.360531  
     442A      5.365060   443A      5.394553   444A      5.420492  
     445A      5.448342   446A      5.531268   447A      5.557511  
     448A      5.565386   449A      5.624014   450A      5.698779  
     451A      5.718684   452A      5.755581   453A      5.780306  
     454A      5.817557   455A      5.828762   456A      5.893906  
     457A      5.947635   458A      6.029813   459A      6.067018  
     460A      6.145302   461A      6.169121   462A      6.197734  
     463A      6.259802   464A      6.301827   465A      6.359258  
     466A      6.385600   467A      6.468609   468A      6.508404  
     469A      6.649082   470A      6.686720   471A      6.835180  
     472A      6.970589   473A      6.995721   474A      7.156449  
     475A      7.341709   476A     15.371540   477A     15.967928  
     478A     16.280816   479A     17.396315   480A     18.478599  
     481A     19.524661   482A     19.652444   483A     19.970549  

    Final Occupation by Irrep:
              A 
    DOCC [    27 ]

  @DF-RHF Final Energy:  -322.51920493478133

   => Energetics <=

    Nuclear Repulsion Energy =            297.4528933806737996
    One-Electron Energy =               -1023.9366611745697355
    Two-Electron Energy =                 403.9645628591146078
    Total Energy =                       -322.5192049347813281

Computation Completed

*** tstop() called on node101.bme.utexas.edu at Wed Nov  4 07:53:37 2020
Module time:
	user time   =      88.19 seconds =       1.47 minutes
	system time =       2.04 seconds =       0.03 minutes
	total time  =         14 seconds =       0.23 minutes
Total time:
	user time   =      88.19 seconds =       1.47 minutes
	system time =       2.04 seconds =       0.03 minutes
	total time  =         14 seconds =       0.23 minutes
   => Loading Basis Set <=

    Name: (AUG-CC-PVTZ AUX)
    Role: RIFIT
    Keyword: DF_BASIS_MP2
    atoms 1    entry N          line   206 file /home/xy3866/psi4conda/share/psi4/basis/aug-cc-pvtz-ri.gbs 
    atoms 2-8  entry C          line   148 file /home/xy3866/psi4conda/share/psi4/basis/aug-cc-pvtz-ri.gbs 
    atoms 9-13 entry H          line    30 file /home/xy3866/psi4conda/share/psi4/basis/aug-cc-pvtz-ri.gbs 


*** tstart() called on node101.bme.utexas.edu
*** at Wed Nov  4 07:53:37 2020


  //>>>>>>>>>>>>>>>>>>>>>>>>>>>>>>>>>>>//
  //               DFMP2               //
  //<<<<<<<<<<<<<<<<<<<<<<<<<<<<<<<<<<<//

	 --------------------------------------------------------
	                          DF-MP2                         
	      2nd-Order Density-Fitted Moller-Plesset Theory     
	              RMP2 Wavefunction,   8 Threads             
	                                                         
	        Rob Parrish, Justin Turney, Andy Simmonett,      
	           Ed Hohenstein, and C. David Sherrill          
	 --------------------------------------------------------

   => Auxiliary Basis Set <=

  Basis Set: (AUG-CC-PVTZ AUX)
    Blend: AUG-CC-PVTZ-RI
    Number of shells: 294
    Number of basis function: 1078
    Number of Cartesian functions: 1363
    Spherical Harmonics?: true
    Max angular momentum: 4

	 --------------------------------------------------------
	                 NBF =   483, NAUX =  1078
	 --------------------------------------------------------
	   CLASS    FOCC     OCC    AOCC    AVIR     VIR    FVIR
	   PAIRS       0      27      27     456     456       0
	 --------------------------------------------------------

  DFHelper Memory: AOs need 1.861 GiB; user supplied 22.352 GiB. Using in-core AOs.


         ------------------------------------------------------------
                                     CPHF                           
                                  Rob Parrish                       
         ------------------------------------------------------------

  ==> Geometry <==

    Molecular point group: c1
    Full point group: C1

    Geometry (in Angstrom), charge = 0, multiplicity = 1:

       Center              X                  Y                   Z               Mass       
    ------------   -----------------  -----------------  -----------------  -----------------
         N           -3.195838445062     0.142650826902     0.000192841305    14.003074004430
         C           -0.536601745062    -0.022441073098    -0.000090158695    12.000000000000
         C            0.158726254938    -1.241281073098    -0.000043158695    12.000000000000
         C            0.158712254938     1.196407926902    -0.000043158695    12.000000000000
         C            1.552490254938    -1.232943073098     0.000031841305    12.000000000000
         C            1.552476254938     1.188085926902     0.000031841305    12.000000000000
         C            2.250267254938    -0.022425073098     0.000065841305    12.000000000000
         C           -1.972833745062    -0.022447073098    -0.000186158695    12.000000000000
         H           -0.393885745062    -2.177122073098    -0.000074158695     1.007825032230
         H           -0.393909745062     2.132242926902    -0.000073158695     1.007825032230
         H            2.095237254938    -2.174641073098     0.000058841305     1.007825032230
         H            2.095214254938     2.129788926902     0.000059841305     1.007825032230
         H            3.337324254938    -0.022419073098     0.000124841305     1.007825032230

  Nuclear repulsion =  297.452893380673800
  Reference energy  = -322.519204934781328

  ==> Basis Set <==

  Basis Set: AUG-CC-PVTZ
    Blend: AUG-CC-PVTZ
    Number of shells: 157
    Number of basis function: 483
    Number of Cartesian functions: 565
    Spherical Harmonics?: true
    Max angular momentum: 3

  ==> CGRSolver (by Rob Parrish) <==

   Number of roots    =         1
   Preconditioning    =    JACOBI
   Convergence cutoff =     1E-06
   Maximum iterations =       100

  ==> CPHFRHamiltonian (by Rob Parrish) <== 

  ==> MemDFJK: Density-Fitted J/K Matrices <==

    J tasked:                   Yes
    K tasked:                   Yes
    wK tasked:                   No
    OpenMP threads:               8
    Memory [MiB]:             22888
    Algorithm:                 Core
    Schwarz Cutoff:           1E-12
    Mask sparsity (%):       2.9466
    Fitting Condition:        1E-10

   => Auxiliary Basis Set <=

  Basis Set: (AUG-CC-PVTZ AUX)
    Blend: AUG-CC-PVTZ-JKFIT
    Number of shells: 310
    Number of basis function: 1062
    Number of Cartesian functions: 1323
    Spherical Harmonics?: true
    Max angular momentum: 4

  ==> CPHF Iterations <==

  => Iterations <=

             Iter  Converged  Remaining    Residual
  CGR           1          0          1   9.632E-02
  CGR           2          0          1   4.188E-02
  CGR           3          0          1   2.353E-02
  CGR           4          0          1   1.512E-02
  CGR           5          0          1   4.917E-03
  CGR           6          0          1   2.257E-03
  CGR           7          0          1   1.006E-03
  CGR           8          0          1   5.253E-04
  CGR           9          0          1   1.761E-04
  CGR          10          0          1   5.073E-05
  CGR          11          0          1   1.722E-05
  CGR          12          0          1   4.674E-06
  CGR          13          0          1   1.307E-06
  CGR          14          1          0   5.173E-07

    CGRSolver converged.

	-----------------------------------------------------------
	 ==================> DF-MP2 Energies <==================== 
	-----------------------------------------------------------
	 Reference Energy          =    -322.5192049347813281 [Eh]
	 Singles Energy            =      -0.0000000000000000 [Eh]
	 Same-Spin Energy          =      -0.3564621901420414 [Eh]
	 Opposite-Spin Energy      =      -1.0985795001093170 [Eh]
	 Correlation Energy        =      -1.4550416902513583 [Eh]
	 Total Energy              =    -323.9742466250326629 [Eh]
	-----------------------------------------------------------
	 ================> DF-SCS-MP2 Energies <================== 
	-----------------------------------------------------------
	 SCS Same-Spin Scale       =       0.3333333333333333 [-]
	 SCS Opposite-Spin Scale   =       1.2000000000000000 [-]
	 SCS Same-Spin Energy      =      -0.1188207300473471 [Eh]
	 SCS Opposite-Spin Energy  =      -1.3182954001311804 [Eh]
	 SCS Correlation Energy    =      -1.4371161301785276 [Eh]
	 SCS Total Energy          =    -323.9563210649598659 [Eh]
	-----------------------------------------------------------



Properties will be evaluated at  -0.000000,  -0.000000,   0.000000 [a0]

Properties computed using the MP2 density matrix

  Nuclear Dipole Moment: [e a0]
     X:     6.3278      Y:    -0.1056      Z:     0.0001

  Electronic Dipole Moment: [e a0]
     X:    -4.5558      Y:     0.0236      Z:    -0.0002

  Dipole Moment: [e a0]
     X:     1.7720      Y:    -0.0820      Z:    -0.0001     Total:     1.7739

  Dipole Moment: [D]
     X:     4.5041      Y:    -0.2084      Z:    -0.0003     Total:     4.5089


*** tstop() called on node101.bme.utexas.edu at Wed Nov  4 07:54:24 2020
Module time:
	user time   =     302.46 seconds =       5.04 minutes
	system time =       6.97 seconds =       0.12 minutes
	total time  =         47 seconds =       0.78 minutes
Total time:
	user time   =     391.63 seconds =       6.53 minutes
	system time =       9.07 seconds =       0.15 minutes
	total time  =         61 seconds =       1.02 minutes

    Psi4 stopped on: Wednesday, 04 November 2020 07:54AM
    Psi4 wall time for execution: 0:01:01.18

*** Psi4 exiting successfully. Buy a developer a beer!
