
    -----------------------------------------------------------------------
          Psi4: An Open-Source Ab Initio Electronic Structure Package
                               Psi4 1.3.2 release

                         Git: Rev {HEAD} ecbda83 


    R. M. Parrish, L. A. Burns, D. G. A. Smith, A. C. Simmonett,
    A. E. DePrince III, E. G. Hohenstein, U. Bozkaya, A. Yu. Sokolov,
    R. Di Remigio, R. M. Richard, J. F. Gonthier, A. M. James,
    H. R. McAlexander, A. Kumar, M. Saitow, X. Wang, B. P. Pritchard,
    P. Verma, H. F. Schaefer III, K. Patkowski, R. A. King, E. F. Valeev,
    F. A. Evangelista, J. M. Turney, T. D. Crawford, and C. D. Sherrill,
    J. Chem. Theory Comput. 13(7) pp 3185--3197 (2017).
    (doi: 10.1021/acs.jctc.7b00174)


                         Additional Contributions by
    P. Kraus, H. Kruse, M. H. Lechner, M. C. Schieber, R. A. Shaw,
    A. Alenaizan, R. Galvelis, Z. L. Glick, S. Lehtola, and J. P. Misiewicz

    -----------------------------------------------------------------------


    Psi4 started on: Tuesday, 03 November 2020 11:37AM

    Process ID: 75808
    Host:       node35.bme.utexas.edu
    PSIDATADIR: /home/xy3866/psi4conda/share/psi4
    Memory:     500.0 MiB
    Threads:    8
    
  ==> Input File <==

--------------------------------------------------------------------------
#psi4
#
memory 32 gb

molecule  {
0 1
  O       -1.3548645    -1.1422120     0.1645589
  O        1.4419330     1.0393260     0.2985870
  O        1.2366830    -1.0978030    -0.4508720
  C       -0.7180600     0.1031850     0.3873850
  C       -1.3431230     1.2084980    -0.4569850
  C        0.7367530    -0.0975110     0.0221890
  H       -0.7278539     0.4148192     1.4427539
  H       -1.2930290     0.9302150    -1.5111840
  H       -0.8256550     2.1573260    -0.3051780
  H       -2.3949050     1.3388590    -0.1830910
  H       -2.2729280    -1.0415480     0.5084360
  H        2.3630120     0.8399890     0.0298380
units angstrom
no_reorient  #important for SAPT in psi4, default
symmetry c1  #important for SAPT in psi4, default
}

set PROPERTIES_ORIGIN ["COM"]
properties('MP2/aug-cc-pvtz', properties = ['dipole'])
--------------------------------------------------------------------------

  Memory set to  29.802 GiB by Python driver.
    SCF Algorithm Type (re)set to DF.

*** tstart() called on node35.bme.utexas.edu
*** at Tue Nov  3 11:37:10 2020

   => Loading Basis Set <=

    Name: AUG-CC-PVTZ
    Role: ORBITAL
    Keyword: BASIS
    atoms 1-3  entry O          line   327 file /home/xy3866/psi4conda/share/psi4/basis/aug-cc-pvtz.gbs 
    atoms 4-6  entry C          line   235 file /home/xy3866/psi4conda/share/psi4/basis/aug-cc-pvtz.gbs 
    atoms 7-12 entry H          line    36 file /home/xy3866/psi4conda/share/psi4/basis/aug-cc-pvtz.gbs 


         ---------------------------------------------------------
                                   SCF
               by Justin Turney, Rob Parrish, Andy Simmonett
                          and Daniel G. A. Smith
                              RHF Reference
                        8 Threads,  30517 MiB Core
         ---------------------------------------------------------

  ==> Geometry <==

    Molecular point group: c1
    Full point group: C1

    Geometry (in Angstrom), charge = 0, multiplicity = 1:

       Center              X                  Y                   Z               Mass       
    ------------   -----------------  -----------------  -----------------  -----------------
         O           -1.355847084761    -1.142668635315     0.168903828734    15.994914619570
         O            1.440950415239     1.038869364685     0.302931928734    15.994914619570
         O            1.235700415239    -1.098259635315    -0.446527071266    15.994914619570
         C           -0.719042584761     0.102728364685     0.391729928734    12.000000000000
         C           -1.344105584761     1.208041364685    -0.452640071266    12.000000000000
         C            0.735770415239    -0.097967635315     0.026533928734    12.000000000000
         H           -0.728836484761     0.414362564685     1.447098828734     1.007825032230
         H           -1.294011584761     0.929758364685    -1.506839071266     1.007825032230
         H           -0.826637584761     2.156869364685    -0.300833071266     1.007825032230
         H           -2.395887584761     1.338402364685    -0.178746071266     1.007825032230
         H           -2.273910584761    -1.042004635315     0.512780928734     1.007825032230
         H            2.362029415239     0.839532364685     0.034182928734     1.007825032230

  Running in c1 symmetry.

  Rotational constants: A =      0.17113  B =      0.10851  C =      0.07475 [cm^-1]
  Rotational constants: A =   5130.21079  B =   3253.00114  C =   2240.92052 [MHz]
  Nuclear repulsion =  248.788138754351110

  Charge       = 0
  Multiplicity = 1
  Electrons    = 48
  Nalpha       = 24
  Nbeta        = 24

  ==> Algorithm <==

  SCF Algorithm Type is DF.
  DIIS enabled.
  MOM disabled.
  Fractional occupation disabled.
  Guess Type is SAD.
  Energy threshold   = 1.00e-10
  Density threshold  = 1.00e-10
  Integral threshold = 0.00e+00

  ==> Primary Basis <==

  Basis Set: AUG-CC-PVTZ
    Blend: AUG-CC-PVTZ
    Number of shells: 138
    Number of basis function: 414
    Number of Cartesian functions: 480
    Spherical Harmonics?: true
    Max angular momentum: 3

   => Loading Basis Set <=

    Name: (AUG-CC-PVTZ AUX)
    Role: JKFIT
    Keyword: DF_BASIS_SCF
    atoms 1-3  entry O          line   286 file /home/xy3866/psi4conda/share/psi4/basis/aug-cc-pvtz-jkfit.gbs 
    atoms 4-6  entry C          line   162 file /home/xy3866/psi4conda/share/psi4/basis/aug-cc-pvtz-jkfit.gbs 
    atoms 7-12 entry H          line    70 file /home/xy3866/psi4conda/share/psi4/basis/aug-cc-pvtz-jkfit.gbs 

  ==> Pre-Iterations <==

   -------------------------------------------------------
    Irrep   Nso     Nmo     Nalpha   Nbeta   Ndocc  Nsocc
   -------------------------------------------------------
     A        414     414       0       0       0       0
   -------------------------------------------------------
    Total     414     414      24      24      24       0
   -------------------------------------------------------

  ==> Integral Setup <==

  DFHelper Memory: AOs need 1.181 GiB; user supplied 22.352 GiB. Using in-core AOs.

  ==> MemDFJK: Density-Fitted J/K Matrices <==

    J tasked:                   Yes
    K tasked:                   Yes
    wK tasked:                   No
    OpenMP threads:               8
    Memory [MiB]:             22888
    Algorithm:                 Core
    Schwarz Cutoff:           1E-12
    Mask sparsity (%):       1.6733
    Fitting Condition:        1E-10

   => Auxiliary Basis Set <=

  Basis Set: (AUG-CC-PVTZ AUX)
    Blend: AUG-CC-PVTZ-JKFIT
    Number of shells: 264
    Number of basis function: 900
    Number of Cartesian functions: 1116
    Spherical Harmonics?: true
    Max angular momentum: 4

  Minimum eigenvalue in the overlap matrix is 1.3238238704E-05.
  Using Symmetric Orthogonalization.

  SCF Guess: Superposition of Atomic Densities via on-the-fly atomic UHF.

  ==> Iterations <==

                           Total Energy        Delta E     RMS |[F,P]|

   @DF-RHF iter SAD:  -340.77571273191990   -3.40776e+02   0.00000e+00 
   @DF-RHF iter   1:  -341.59645475519903   -8.20742e-01   1.71458e-03 DIIS
   @DF-RHF iter   2:  -341.76185209118034   -1.65397e-01   1.05431e-03 DIIS
   @DF-RHF iter   3:  -341.82371007343443   -6.18580e-02   1.74059e-04 DIIS
   @DF-RHF iter   4:  -341.82678816917695   -3.07810e-03   8.30118e-05 DIIS
   @DF-RHF iter   5:  -341.82744405979719   -6.55891e-04   1.88619e-05 DIIS
   @DF-RHF iter   6:  -341.82750305561700   -5.89958e-05   8.90222e-06 DIIS
   @DF-RHF iter   7:  -341.82751697231663   -1.39167e-05   3.20950e-06 DIIS
   @DF-RHF iter   8:  -341.82751964602062   -2.67370e-06   1.22364e-06 DIIS
   @DF-RHF iter   9:  -341.82752002939151   -3.83371e-07   3.11779e-07 DIIS
   @DF-RHF iter  10:  -341.82752005367320   -2.42817e-08   1.09372e-07 DIIS
   @DF-RHF iter  11:  -341.82752005565510   -1.98190e-09   3.27123e-08 DIIS
   @DF-RHF iter  12:  -341.82752005582239   -1.67290e-10   1.25548e-08 DIIS
   @DF-RHF iter  13:  -341.82752005584251   -2.01226e-11   3.57447e-09 DIIS
   @DF-RHF iter  14:  -341.82752005584626   -3.75167e-12   1.54851e-09 DIIS
   @DF-RHF iter  15:  -341.82752005584740   -1.13687e-12   6.20403e-10 DIIS
   @DF-RHF iter  16:  -341.82752005584769   -2.84217e-13   2.67765e-10 DIIS
   @DF-RHF iter  17:  -341.82752005584740    2.84217e-13   9.17621e-11 DIIS
  Energy and wave function converged.


  ==> Post-Iterations <==

    Orbital Energies [Eh]
    ---------------------

    Doubly Occupied:                                                      

       1A    -20.619379     2A    -20.577306     3A    -20.554476  
       4A    -11.389935     5A    -11.313359     6A    -11.238410  
       7A     -1.462976     8A     -1.380310     9A     -1.356178  
      10A     -1.055104    11A     -0.921016    12A     -0.801050  
      13A     -0.731654    14A     -0.704576    15A     -0.662299  
      16A     -0.648533    17A     -0.613541    18A     -0.601310  
      19A     -0.565037    20A     -0.557712    21A     -0.522670  
      22A     -0.485020    23A     -0.463435    24A     -0.450940  

    Virtual:                                                              

      25A      0.023828    26A      0.032743    27A      0.038552  
      28A      0.044627    29A      0.056633    30A      0.061374  
      31A      0.087096    32A      0.092714    33A      0.101655  
      34A      0.115328    35A      0.116917    36A      0.121187  
      37A      0.130308    38A      0.137508    39A      0.143934  
      40A      0.149300    41A      0.165291    42A      0.166996  
      43A      0.172678    44A      0.182902    45A      0.192381  
      46A      0.202574    47A      0.211758    48A      0.223702  
      49A      0.234430    50A      0.246196    51A      0.255937  
      52A      0.265095    53A      0.268939    54A      0.271183  
      55A      0.274539    56A      0.285504    57A      0.298930  
      58A      0.317234    59A      0.325200    60A      0.325985  
      61A      0.334048    62A      0.346629    63A      0.354759  
      64A      0.358494    65A      0.368106    66A      0.369930  
      67A      0.372864    68A      0.377314    69A      0.388379  
      70A      0.401062    71A      0.408005    72A      0.418845  
      73A      0.424494    74A      0.431316    75A      0.432011  
      76A      0.443568    77A      0.455728    78A      0.459699  
      79A      0.466098    80A      0.473870    81A      0.481398  
      82A      0.490005    83A      0.496274    84A      0.506228  
      85A      0.517090    86A      0.520719    87A      0.538776  
      88A      0.545946    89A      0.553705    90A      0.570994  
      91A      0.584483    92A      0.594375    93A      0.595416  
      94A      0.612342    95A      0.624848    96A      0.633639  
      97A      0.652471    98A      0.664172    99A      0.685342  
     100A      0.696306   101A      0.731017   102A      0.737993  
     103A      0.753254   104A      0.766820   105A      0.770041  
     106A      0.776054   107A      0.779779   108A      0.795689  
     109A      0.817988   110A      0.822889   111A      0.829121  
     112A      0.831295   113A      0.839487   114A      0.843424  
     115A      0.862615   116A      0.875448   117A      0.885799  
     118A      0.894924   119A      0.902978   120A      0.910656  
     121A      0.916697   122A      0.934789   123A      0.946461  
     124A      0.961005   125A      0.972572   126A      0.976016  
     127A      0.977230   128A      0.990256   129A      0.998154  
     130A      1.001004   131A      1.022331   132A      1.025126  
     133A      1.027721   134A      1.053670   135A      1.061652  
     136A      1.071908   137A      1.080327   138A      1.081032  
     139A      1.084582   140A      1.101936   141A      1.112373  
     142A      1.123475   143A      1.135981   144A      1.140180  
     145A      1.159555   146A      1.170419   147A      1.177408  
     148A      1.192877   149A      1.215075   150A      1.221202  
     151A      1.224001   152A      1.235408   153A      1.248780  
     154A      1.272579   155A      1.291476   156A      1.296893  
     157A      1.308391   158A      1.321511   159A      1.346296  
     160A      1.356397   161A      1.372172   162A      1.376465  
     163A      1.391465   164A      1.419960   165A      1.422505  
     166A      1.438709   167A      1.453476   168A      1.460199  
     169A      1.476032   170A      1.493003   171A      1.498558  
     172A      1.508768   173A      1.528619   174A      1.536141  
     175A      1.553699   176A      1.565838   177A      1.582144  
     178A      1.587727   179A      1.615737   180A      1.624542  
     181A      1.640512   182A      1.650463   183A      1.667633  
     184A      1.672321   185A      1.691400   186A      1.696866  
     187A      1.714000   188A      1.729883   189A      1.744238  
     190A      1.761053   191A      1.770390   192A      1.783288  
     193A      1.806515   194A      1.811536   195A      1.836326  
     196A      1.848314   197A      1.865821   198A      1.879045  
     199A      1.887982   200A      1.912895   201A      1.923822  
     202A      1.952103   203A      1.974504   204A      1.979772  
     205A      1.987158   206A      2.010319   207A      2.030525  
     208A      2.046045   209A      2.068822   210A      2.095565  
     211A      2.136822   212A      2.159544   213A      2.172062  
     214A      2.198777   215A      2.210826   216A      2.217538  
     217A      2.236364   218A      2.271354   219A      2.291456  
     220A      2.325049   221A      2.331193   222A      2.360980  
     223A      2.372109   224A      2.411588   225A      2.420749  
     226A      2.471846   227A      2.483376   228A      2.491864  
     229A      2.514543   230A      2.543913   231A      2.564724  
     232A      2.576713   233A      2.611682   234A      2.614680  
     235A      2.630163   236A      2.643606   237A      2.667790  
     238A      2.693373   239A      2.707378   240A      2.728904  
     241A      2.737473   242A      2.789081   243A      2.811470  
     244A      2.831829   245A      2.833451   246A      2.844205  
     247A      2.897362   248A      2.915560   249A      2.943984  
     250A      2.950593   251A      2.973868   252A      3.018020  
     253A      3.022871   254A      3.041549   255A      3.064024  
     256A      3.086793   257A      3.117645   258A      3.166152  
     259A      3.185600   260A      3.225640   261A      3.231047  
     262A      3.283492   263A      3.308305   264A      3.351636  
     265A      3.379861   266A      3.402972   267A      3.449354  
     268A      3.470582   269A      3.527597   270A      3.547167  
     271A      3.583972   272A      3.602103   273A      3.616441  
     274A      3.649153   275A      3.664573   276A      3.679893  
     277A      3.694538   278A      3.718138   279A      3.740929  
     280A      3.749892   281A      3.779398   282A      3.818438  
     283A      3.844220   284A      3.869954   285A      3.879046  
     286A      3.894078   287A      3.924448   288A      3.958615  
     289A      3.965089   290A      3.981080   291A      4.010951  
     292A      4.024548   293A      4.057249   294A      4.076126  
     295A      4.102743   296A      4.127393   297A      4.131679  
     298A      4.157510   299A      4.164664   300A      4.204075  
     301A      4.231345   302A      4.248458   303A      4.256736  
     304A      4.298864   305A      4.323635   306A      4.325101  
     307A      4.364329   308A      4.378184   309A      4.389710  
     310A      4.427392   311A      4.445444   312A      4.470020  
     313A      4.493255   314A      4.535805   315A      4.541694  
     316A      4.571583   317A      4.581699   318A      4.641229  
     319A      4.656843   320A      4.685993   321A      4.707938  
     322A      4.730598   323A      4.748209   324A      4.780484  
     325A      4.804241   326A      4.833164   327A      4.849219  
     328A      4.876513   329A      4.908498   330A      4.937382  
     331A      4.973656   332A      4.999789   333A      5.019119  
     334A      5.030012   335A      5.058373   336A      5.121508  
     337A      5.145625   338A      5.161462   339A      5.206011  
     340A      5.217745   341A      5.252959   342A      5.267911  
     343A      5.322620   344A      5.355159   345A      5.370775  
     346A      5.375840   347A      5.414730   348A      5.425133  
     349A      5.432658   350A      5.475208   351A      5.529511  
     352A      5.542636   353A      5.573504   354A      5.630268  
     355A      5.649589   356A      5.736032   357A      5.786461  
     358A      5.830698   359A      5.843487   360A      5.903657  
     361A      6.064792   362A      6.103293   363A      6.148700  
     364A      6.180863   365A      6.219525   366A      6.263546  
     367A      6.394806   368A      6.561742   369A      6.584030  
     370A      6.654982   371A      6.721008   372A      6.745686  
     373A      6.776382   374A      6.820895   375A      6.852185  
     376A      6.882326   377A      6.893558   378A      6.950716  
     379A      6.964740   380A      7.024442   381A      7.049751  
     382A      7.104090   383A      7.237069   384A      7.246005  
     385A      7.268817   386A      7.286660   387A      7.309459  
     388A      7.342196   389A      7.389342   390A      7.413990  
     391A      7.430466   392A      7.485498   393A      7.537423  
     394A      7.548266   395A      7.555864   396A      7.641784  
     397A      7.675705   398A      7.705851   399A      7.707951  
     400A      7.842833   401A      7.853457   402A      7.896536  
     403A      7.969430   404A      8.067612   405A      8.213715  
     406A      8.298617   407A      8.523118   408A      8.576904  
     409A     15.077153   410A     15.668676   411A     16.160498  
     412A     17.273679   413A     18.249294   414A     19.356359  

    Final Occupation by Irrep:
              A 
    DOCC [    24 ]

  @DF-RHF Final Energy:  -341.82752005584740

   => Energetics <=

    Nuclear Repulsion Energy =            248.7881387543511096
    One-Electron Energy =                -961.8788712917540806
    Two-Electron Energy =                 371.2632124815556267
    Total Energy =                       -341.8275200558474012

Computation Completed

*** tstop() called on node35.bme.utexas.edu at Tue Nov  3 11:37:30 2020
Module time:
	user time   =      98.02 seconds =       1.63 minutes
	system time =       4.86 seconds =       0.08 minutes
	total time  =         20 seconds =       0.33 minutes
Total time:
	user time   =      98.02 seconds =       1.63 minutes
	system time =       4.86 seconds =       0.08 minutes
	total time  =         20 seconds =       0.33 minutes
   => Loading Basis Set <=

    Name: (AUG-CC-PVTZ AUX)
    Role: RIFIT
    Keyword: DF_BASIS_MP2
    atoms 1-3  entry O          line   264 file /home/xy3866/psi4conda/share/psi4/basis/aug-cc-pvtz-ri.gbs 
    atoms 4-6  entry C          line   148 file /home/xy3866/psi4conda/share/psi4/basis/aug-cc-pvtz-ri.gbs 
    atoms 7-12 entry H          line    30 file /home/xy3866/psi4conda/share/psi4/basis/aug-cc-pvtz-ri.gbs 


*** tstart() called on node35.bme.utexas.edu
*** at Tue Nov  3 11:37:30 2020


  //>>>>>>>>>>>>>>>>>>>>>>>>>>>>>>>>>>>//
  //               DFMP2               //
  //<<<<<<<<<<<<<<<<<<<<<<<<<<<<<<<<<<<//

	 --------------------------------------------------------
	                          DF-MP2                         
	      2nd-Order Density-Fitted Moller-Plesset Theory     
	              RMP2 Wavefunction,   8 Threads             
	                                                         
	        Rob Parrish, Justin Turney, Andy Simmonett,      
	           Ed Hohenstein, and C. David Sherrill          
	 --------------------------------------------------------

   => Auxiliary Basis Set <=

  Basis Set: (AUG-CC-PVTZ AUX)
    Blend: AUG-CC-PVTZ-RI
    Number of shells: 252
    Number of basis function: 912
    Number of Cartesian functions: 1146
    Spherical Harmonics?: true
    Max angular momentum: 4

	 --------------------------------------------------------
	                 NBF =   414, NAUX =   912
	 --------------------------------------------------------
	   CLASS    FOCC     OCC    AOCC    AVIR     VIR    FVIR
	   PAIRS       0      24      24     390     390       0
	 --------------------------------------------------------

  DFHelper Memory: AOs need 1.181 GiB; user supplied 22.352 GiB. Using in-core AOs.


         ------------------------------------------------------------
                                     CPHF                           
                                  Rob Parrish                       
         ------------------------------------------------------------

  ==> Geometry <==

    Molecular point group: c1
    Full point group: C1

    Geometry (in Angstrom), charge = 0, multiplicity = 1:

       Center              X                  Y                   Z               Mass       
    ------------   -----------------  -----------------  -----------------  -----------------
         O           -1.355847084761    -1.142668635315     0.168903828734    15.994914619570
         O            1.440950415239     1.038869364685     0.302931928734    15.994914619570
         O            1.235700415239    -1.098259635315    -0.446527071266    15.994914619570
         C           -0.719042584761     0.102728364685     0.391729928734    12.000000000000
         C           -1.344105584761     1.208041364685    -0.452640071266    12.000000000000
         C            0.735770415239    -0.097967635315     0.026533928734    12.000000000000
         H           -0.728836484761     0.414362564685     1.447098828734     1.007825032230
         H           -1.294011584761     0.929758364685    -1.506839071266     1.007825032230
         H           -0.826637584761     2.156869364685    -0.300833071266     1.007825032230
         H           -2.395887584761     1.338402364685    -0.178746071266     1.007825032230
         H           -2.273910584761    -1.042004635315     0.512780928734     1.007825032230
         H            2.362029415239     0.839532364685     0.034182928734     1.007825032230

  Nuclear repulsion =  248.788138754351110
  Reference energy  = -341.827520055847401

  ==> Basis Set <==

  Basis Set: AUG-CC-PVTZ
    Blend: AUG-CC-PVTZ
    Number of shells: 138
    Number of basis function: 414
    Number of Cartesian functions: 480
    Spherical Harmonics?: true
    Max angular momentum: 3

  ==> CGRSolver (by Rob Parrish) <==

   Number of roots    =         1
   Preconditioning    =    JACOBI
   Convergence cutoff =     1E-06
   Maximum iterations =       100

  ==> CPHFRHamiltonian (by Rob Parrish) <== 

  ==> MemDFJK: Density-Fitted J/K Matrices <==

    J tasked:                   Yes
    K tasked:                   Yes
    wK tasked:                   No
    OpenMP threads:               8
    Memory [MiB]:             22888
    Algorithm:                 Core
    Schwarz Cutoff:           1E-12
    Mask sparsity (%):       1.6733
    Fitting Condition:        1E-10

   => Auxiliary Basis Set <=

  Basis Set: (AUG-CC-PVTZ AUX)
    Blend: AUG-CC-PVTZ-JKFIT
    Number of shells: 264
    Number of basis function: 900
    Number of Cartesian functions: 1116
    Spherical Harmonics?: true
    Max angular momentum: 4

  ==> CPHF Iterations <==

  => Iterations <=

             Iter  Converged  Remaining    Residual
  CGR           1          0          1   1.068E-01
  CGR           2          0          1   3.120E-02
  CGR           3          0          1   1.144E-02
  CGR           4          0          1   3.385E-03
  CGR           5          0          1   1.238E-03
  CGR           6          0          1   3.198E-04
  CGR           7          0          1   9.808E-05
  CGR           8          0          1   2.852E-05
  CGR           9          0          1   9.797E-06
  CGR          10          0          1   4.325E-06
  CGR          11          0          1   1.752E-06
  CGR          12          1          0   6.163E-07

    CGRSolver converged.

	-----------------------------------------------------------
	 ==================> DF-MP2 Energies <==================== 
	-----------------------------------------------------------
	 Reference Energy          =    -341.8275200558474012 [Eh]
	 Singles Energy            =      -0.0000000000000000 [Eh]
	 Same-Spin Energy          =      -0.3271204855637941 [Eh]
	 Opposite-Spin Energy      =      -1.0130824304392831 [Eh]
	 Correlation Energy        =      -1.3402029160030773 [Eh]
	 Total Energy              =    -343.1677229718504805 [Eh]
	-----------------------------------------------------------
	 ================> DF-SCS-MP2 Energies <================== 
	-----------------------------------------------------------
	 SCS Same-Spin Scale       =       0.3333333333333333 [-]
	 SCS Opposite-Spin Scale   =       1.2000000000000000 [-]
	 SCS Same-Spin Energy      =      -0.1090401618545980 [Eh]
	 SCS Opposite-Spin Energy  =      -1.2156989165271397 [Eh]
	 SCS Correlation Energy    =      -1.3247390783817377 [Eh]
	 SCS Total Energy          =    -343.1522591342291548 [Eh]
	-----------------------------------------------------------



Properties will be evaluated at  -0.000000,  -0.000000,  -0.000000 [a0]

Properties computed using the MP2 density matrix

  Nuclear Dipole Moment: [e a0]
     X:    -4.8284      Y:     4.3412      Z:     0.0073

  Electronic Dipole Moment: [e a0]
     X:     4.3081      Y:    -3.2816      Z:     0.4293

  Dipole Moment: [e a0]
     X:    -0.5203      Y:     1.0596      Z:     0.4366     Total:     1.2586

  Dipole Moment: [D]
     X:    -1.3225      Y:     2.6932      Z:     1.1097     Total:     3.1990


*** tstop() called on node35.bme.utexas.edu at Tue Nov  3 11:38:11 2020
Module time:
	user time   =     262.39 seconds =       4.37 minutes
	system time =      11.60 seconds =       0.19 minutes
	total time  =         41 seconds =       0.68 minutes
Total time:
	user time   =     360.55 seconds =       6.01 minutes
	system time =      16.47 seconds =       0.27 minutes
	total time  =         61 seconds =       1.02 minutes

    Psi4 stopped on: Tuesday, 03 November 2020 11:38AM
    Psi4 wall time for execution: 0:01:01.73

*** Psi4 exiting successfully. Buy a developer a beer!
