
    -----------------------------------------------------------------------
          Psi4: An Open-Source Ab Initio Electronic Structure Package
                               Psi4 1.3.2 release

                         Git: Rev {HEAD} ecbda83 


    R. M. Parrish, L. A. Burns, D. G. A. Smith, A. C. Simmonett,
    A. E. DePrince III, E. G. Hohenstein, U. Bozkaya, A. Yu. Sokolov,
    R. Di Remigio, R. M. Richard, J. F. Gonthier, A. M. James,
    H. R. McAlexander, A. Kumar, M. Saitow, X. Wang, B. P. Pritchard,
    P. Verma, H. F. Schaefer III, K. Patkowski, R. A. King, E. F. Valeev,
    F. A. Evangelista, J. M. Turney, T. D. Crawford, and C. D. Sherrill,
    J. Chem. Theory Comput. 13(7) pp 3185--3197 (2017).
    (doi: 10.1021/acs.jctc.7b00174)


                         Additional Contributions by
    P. Kraus, H. Kruse, M. H. Lechner, M. C. Schieber, R. A. Shaw,
    A. Alenaizan, R. Galvelis, Z. L. Glick, S. Lehtola, and J. P. Misiewicz

    -----------------------------------------------------------------------


    Psi4 started on: Tuesday, 03 November 2020 01:17PM

    Process ID: 87171
    Host:       node35.bme.utexas.edu
    PSIDATADIR: /home/xy3866/psi4conda/share/psi4
    Memory:     500.0 MiB
    Threads:    8
    
  ==> Input File <==

--------------------------------------------------------------------------
#psi4
#
memory 32 gb

molecule  {
0 1
  O       -1.3597980    -1.1437690     0.1887320
  O        1.4419330     1.0393260     0.2985870
  O        1.2366830    -1.0978030    -0.4508720
  C       -0.7286863     0.1317786     0.4310039
  C       -1.3431230     1.2084980    -0.4569850
  C        0.7367530    -0.0975110     0.0221890
  H       -0.7373290     0.3987270     1.4472430
  H       -1.3102207     0.9630548    -1.5199814
  H       -0.8256550     2.1573260    -0.3051780
  H       -2.3949050     1.3388590    -0.1830910
  H       -2.2729280    -1.0415480     0.5084360
  H        2.3630120     0.8399890     0.0298380
units angstrom
no_reorient  #important for SAPT in psi4, default
symmetry c1  #important for SAPT in psi4, default
}

set PROPERTIES_ORIGIN ["COM"]
properties('MP2/aug-cc-pvtz', properties = ['dipole'])
--------------------------------------------------------------------------

  Memory set to  29.802 GiB by Python driver.
    SCF Algorithm Type (re)set to DF.

*** tstart() called on node35.bme.utexas.edu
*** at Tue Nov  3 13:17:54 2020

   => Loading Basis Set <=

    Name: AUG-CC-PVTZ
    Role: ORBITAL
    Keyword: BASIS
    atoms 1-3  entry O          line   327 file /home/xy3866/psi4conda/share/psi4/basis/aug-cc-pvtz.gbs 
    atoms 4-6  entry C          line   235 file /home/xy3866/psi4conda/share/psi4/basis/aug-cc-pvtz.gbs 
    atoms 7-12 entry H          line    36 file /home/xy3866/psi4conda/share/psi4/basis/aug-cc-pvtz.gbs 


         ---------------------------------------------------------
                                   SCF
               by Justin Turney, Rob Parrish, Andy Simmonett
                          and Daniel G. A. Smith
                              RHF Reference
                        8 Threads,  30517 MiB Core
         ---------------------------------------------------------

  ==> Geometry <==

    Molecular point group: c1
    Full point group: C1

    Geometry (in Angstrom), charge = 0, multiplicity = 1:

       Center              X                  Y                   Z               Mass       
    ------------   -----------------  -----------------  -----------------  -----------------
         O           -1.358189253094    -1.147947633129     0.183016788607    15.994914619570
         O            1.443541746906     1.035147366871     0.292871788607    15.994914619570
         O            1.238291746906    -1.101981633129    -0.456587211393    15.994914619570
         C           -0.727077553094     0.127599966871     0.425288688607    12.000000000000
         C           -1.341514253094     1.204319366871    -0.462700211393    12.000000000000
         C            0.738361746906    -0.101689633129     0.016473788607    12.000000000000
         H           -0.735720253094     0.394548366871     1.441527788607     1.007825032230
         H           -1.308611953094     0.958876166871    -1.525696611393     1.007825032230
         H           -0.824046253094     2.153147366871    -0.310893211393     1.007825032230
         H           -2.393296253094     1.334680366871    -0.188806211393     1.007825032230
         H           -2.271319253094    -1.045726633129     0.502720788607     1.007825032230
         H            2.364620746906     0.835810366871     0.024122788607     1.007825032230

  Running in c1 symmetry.

  Rotational constants: A =      0.16976  B =      0.10778  C =      0.07453 [cm^-1]
  Rotational constants: A =   5089.16489  B =   3231.21727  C =   2234.46370 [MHz]
  Nuclear repulsion =  248.064226916840113

  Charge       = 0
  Multiplicity = 1
  Electrons    = 48
  Nalpha       = 24
  Nbeta        = 24

  ==> Algorithm <==

  SCF Algorithm Type is DF.
  DIIS enabled.
  MOM disabled.
  Fractional occupation disabled.
  Guess Type is SAD.
  Energy threshold   = 1.00e-10
  Density threshold  = 1.00e-10
  Integral threshold = 0.00e+00

  ==> Primary Basis <==

  Basis Set: AUG-CC-PVTZ
    Blend: AUG-CC-PVTZ
    Number of shells: 138
    Number of basis function: 414
    Number of Cartesian functions: 480
    Spherical Harmonics?: true
    Max angular momentum: 3

   => Loading Basis Set <=

    Name: (AUG-CC-PVTZ AUX)
    Role: JKFIT
    Keyword: DF_BASIS_SCF
    atoms 1-3  entry O          line   286 file /home/xy3866/psi4conda/share/psi4/basis/aug-cc-pvtz-jkfit.gbs 
    atoms 4-6  entry C          line   162 file /home/xy3866/psi4conda/share/psi4/basis/aug-cc-pvtz-jkfit.gbs 
    atoms 7-12 entry H          line    70 file /home/xy3866/psi4conda/share/psi4/basis/aug-cc-pvtz-jkfit.gbs 

  ==> Pre-Iterations <==

   -------------------------------------------------------
    Irrep   Nso     Nmo     Nalpha   Nbeta   Ndocc  Nsocc
   -------------------------------------------------------
     A        414     414       0       0       0       0
   -------------------------------------------------------
    Total     414     414      24      24      24       0
   -------------------------------------------------------

  ==> Integral Setup <==

  DFHelper Memory: AOs need 1.181 GiB; user supplied 22.352 GiB. Using in-core AOs.

  ==> MemDFJK: Density-Fitted J/K Matrices <==

    J tasked:                   Yes
    K tasked:                   Yes
    wK tasked:                   No
    OpenMP threads:               8
    Memory [MiB]:             22888
    Algorithm:                 Core
    Schwarz Cutoff:           1E-12
    Mask sparsity (%):       1.6803
    Fitting Condition:        1E-10

   => Auxiliary Basis Set <=

  Basis Set: (AUG-CC-PVTZ AUX)
    Blend: AUG-CC-PVTZ-JKFIT
    Number of shells: 264
    Number of basis function: 900
    Number of Cartesian functions: 1116
    Spherical Harmonics?: true
    Max angular momentum: 4

  Minimum eigenvalue in the overlap matrix is 1.3343432033E-05.
  Using Symmetric Orthogonalization.

  SCF Guess: Superposition of Atomic Densities via on-the-fly atomic UHF.

  ==> Iterations <==

                           Total Energy        Delta E     RMS |[F,P]|

   @DF-RHF iter SAD:  -340.72020998304106   -3.40720e+02   0.00000e+00 
   @DF-RHF iter   1:  -341.59452512139165   -8.74315e-01   1.71601e-03 DIIS
   @DF-RHF iter   2:  -341.75853953998615   -1.64014e-01   1.06030e-03 DIIS
   @DF-RHF iter   3:  -341.82096765817511   -6.24281e-02   1.74517e-04 DIIS
   @DF-RHF iter   4:  -341.82403978152456   -3.07212e-03   8.27779e-05 DIIS
   @DF-RHF iter   5:  -341.82469152459976   -6.51743e-04   1.89054e-05 DIIS
   @DF-RHF iter   6:  -341.82474998940177   -5.84648e-05   8.92841e-06 DIIS
   @DF-RHF iter   7:  -341.82476390857431   -1.39192e-05   3.19587e-06 DIIS
   @DF-RHF iter   8:  -341.82476659076355   -2.68219e-06   1.21436e-06 DIIS
   @DF-RHF iter   9:  -341.82476696998361   -3.79220e-07   3.11673e-07 DIIS
   @DF-RHF iter  10:  -341.82476699382244   -2.38388e-08   1.19312e-07 DIIS
   @DF-RHF iter  11:  -341.82476699594969   -2.12725e-09   3.54982e-08 DIIS
   @DF-RHF iter  12:  -341.82476699613960   -1.89914e-10   1.22844e-08 DIIS
   @DF-RHF iter  13:  -341.82476699615887   -1.92699e-11   3.03158e-09 DIIS
   @DF-RHF iter  14:  -341.82476699616120   -2.33058e-12   1.12989e-09 DIIS
   @DF-RHF iter  15:  -341.82476699616188   -6.82121e-13   3.61847e-10 DIIS
   @DF-RHF iter  16:  -341.82476699616217   -2.84217e-13   1.46193e-10 DIIS
   @DF-RHF iter  17:  -341.82476699616177    3.97904e-13   6.83913e-11 DIIS
  Energy and wave function converged.


  ==> Post-Iterations <==

    Orbital Energies [Eh]
    ---------------------

    Doubly Occupied:                                                      

       1A    -20.619146     2A    -20.573352     3A    -20.555576  
       4A    -11.391366     5A    -11.313006     6A    -11.239439  
       7A     -1.462504     8A     -1.373264     9A     -1.355181  
      10A     -1.055389    11A     -0.919239    12A     -0.804319  
      13A     -0.734343    14A     -0.705156    15A     -0.657161  
      16A     -0.645865    17A     -0.612857    18A     -0.598679  
      19A     -0.568044    20A     -0.554835    21A     -0.523633  
      22A     -0.484961    23A     -0.469150    24A     -0.449559  

    Virtual:                                                              

      25A      0.023980    26A      0.032807    27A      0.038079  
      28A      0.044800    29A      0.056209    30A      0.061300  
      31A      0.087381    32A      0.092550    33A      0.101469  
      34A      0.115873    35A      0.116580    36A      0.121305  
      37A      0.130721    38A      0.137446    39A      0.143456  
      40A      0.149466    41A      0.164732    42A      0.167264  
      43A      0.174037    44A      0.181994    45A      0.192127  
      46A      0.202128    47A      0.213012    48A      0.224492  
      49A      0.234844    50A      0.246717    51A      0.255319  
      52A      0.263768    53A      0.268874    54A      0.270092  
      55A      0.274617    56A      0.285443    57A      0.298569  
      58A      0.316732    59A      0.324784    60A      0.325598  
      61A      0.333820    62A      0.347127    63A      0.355752  
      64A      0.358671    65A      0.367251    66A      0.369984  
      67A      0.371967    68A      0.375904    69A      0.386528  
      70A      0.400687    71A      0.406874    72A      0.417692  
      73A      0.423085    74A      0.430478    75A      0.432645  
      76A      0.442020    77A      0.455957    78A      0.459775  
      79A      0.466935    80A      0.475691    81A      0.482995  
      82A      0.488059    83A      0.497711    84A      0.505667  
      85A      0.518854    86A      0.519992    87A      0.537976  
      88A      0.544461    89A      0.554024    90A      0.567821  
      91A      0.580717    92A      0.590426    93A      0.596620  
      94A      0.612939    95A      0.625082    96A      0.633522  
      97A      0.647255    98A      0.663076    99A      0.683084  
     100A      0.700605   101A      0.728680   102A      0.735792  
     103A      0.754762   104A      0.765604   105A      0.771112  
     106A      0.778358   107A      0.781833   108A      0.796944  
     109A      0.816480   110A      0.821458   111A      0.826929  
     112A      0.831266   113A      0.838528   114A      0.845652  
     115A      0.862817   116A      0.876048   117A      0.885203  
     118A      0.893056   119A      0.905496   120A      0.908004  
     121A      0.915978   122A      0.933795   123A      0.946549  
     124A      0.961801   125A      0.971853   126A      0.975728  
     127A      0.979311   128A      0.991193   129A      1.000676  
     130A      1.001238   131A      1.021647   132A      1.024339  
     133A      1.027319   134A      1.052806   135A      1.060801  
     136A      1.071467   137A      1.077360   138A      1.079981  
     139A      1.083024   140A      1.102434   141A      1.114887  
     142A      1.124497   143A      1.136688   144A      1.145528  
     145A      1.158945   146A      1.167506   147A      1.182239  
     148A      1.192474   149A      1.215773   150A      1.220835  
     151A      1.223947   152A      1.235097   153A      1.248819  
     154A      1.272536   155A      1.289842   156A      1.295672  
     157A      1.305801   158A      1.312577   159A      1.343807  
     160A      1.357446   161A      1.372469   162A      1.375613  
     163A      1.389141   164A      1.417369   165A      1.428077  
     166A      1.436742   167A      1.450440   168A      1.459056  
     169A      1.479119   170A      1.492504   171A      1.499037  
     172A      1.513423   173A      1.524190   174A      1.536047  
     175A      1.555344   176A      1.561934   177A      1.586353  
     178A      1.588816   179A      1.615008   180A      1.625992  
     181A      1.643042   182A      1.646967   183A      1.660925  
     184A      1.673386   185A      1.686536   186A      1.691159  
     187A      1.715535   188A      1.722669   189A      1.745975  
     190A      1.760425   191A      1.768627   192A      1.783778  
     193A      1.805275   194A      1.812661   195A      1.841402  
     196A      1.846098   197A      1.864185   198A      1.878685  
     199A      1.888951   200A      1.904445   201A      1.917957  
     202A      1.958302   203A      1.971350   204A      1.977881  
     205A      1.992127   206A      2.002522   207A      2.030712  
     208A      2.046251   209A      2.075440   210A      2.101240  
     211A      2.139913   212A      2.163242   213A      2.178081  
     214A      2.205931   215A      2.214997   216A      2.218955  
     217A      2.237496   218A      2.273781   219A      2.288663  
     220A      2.319313   221A      2.344530   222A      2.356600  
     223A      2.371238   224A      2.413749   225A      2.416614  
     226A      2.464804   227A      2.485094   228A      2.489117  
     229A      2.502244   230A      2.539978   231A      2.559018  
     232A      2.580103   233A      2.606237   234A      2.612712  
     235A      2.633027   236A      2.643576   237A      2.666560  
     238A      2.681774   239A      2.703103   240A      2.719434  
     241A      2.730936   242A      2.782867   243A      2.801223  
     244A      2.820559   245A      2.829277   246A      2.835829  
     247A      2.886744   248A      2.919903   249A      2.935420  
     250A      2.945309   251A      2.976598   252A      3.020617  
     253A      3.021208   254A      3.032121   255A      3.056110  
     256A      3.083659   257A      3.115221   258A      3.158325  
     259A      3.173807   260A      3.209244   261A      3.230004  
     262A      3.278127   263A      3.292910   264A      3.351497  
     265A      3.368113   266A      3.382492   267A      3.440469  
     268A      3.468562   269A      3.526968   270A      3.540811  
     271A      3.573561   272A      3.606206   273A      3.616462  
     274A      3.643066   275A      3.665880   276A      3.677644  
     277A      3.697067   278A      3.723140   279A      3.734275  
     280A      3.747846   281A      3.779625   282A      3.811570  
     283A      3.836817   284A      3.860209   285A      3.879379  
     286A      3.900723   287A      3.906614   288A      3.957270  
     289A      3.965892   290A      3.969468   291A      4.011432  
     292A      4.031716   293A      4.060827   294A      4.068760  
     295A      4.095813   296A      4.125534   297A      4.130087  
     298A      4.155797   299A      4.159158   300A      4.207252  
     301A      4.228192   302A      4.245570   303A      4.266875  
     304A      4.308571   305A      4.327630   306A      4.329285  
     307A      4.356438   308A      4.362173   309A      4.393754  
     310A      4.423193   311A      4.449117   312A      4.464707  
     313A      4.496555   314A      4.529100   315A      4.543430  
     316A      4.562348   317A      4.586708   318A      4.633077  
     319A      4.652991   320A      4.687190   321A      4.711913  
     322A      4.730804   323A      4.750532   324A      4.778854  
     325A      4.815467   326A      4.836591   327A      4.849969  
     328A      4.876008   329A      4.920945   330A      4.940520  
     331A      4.981039   332A      4.991247   333A      5.014660  
     334A      5.032870   335A      5.052658   336A      5.133878  
     337A      5.164964   338A      5.173338   339A      5.214851  
     340A      5.221735   341A      5.256416   342A      5.275951  
     343A      5.336402   344A      5.362262   345A      5.385262  
     346A      5.401662   347A      5.423778   348A      5.436740  
     349A      5.460880   350A      5.472190   351A      5.531419  
     352A      5.573078   353A      5.584478   354A      5.621112  
     355A      5.658451   356A      5.765220   357A      5.778448  
     358A      5.829322   359A      5.855247   360A      5.937444  
     361A      6.067956   362A      6.096113   363A      6.169915  
     364A      6.182567   365A      6.234441   366A      6.258300  
     367A      6.397367   368A      6.561462   369A      6.577143  
     370A      6.653807   371A      6.712405   372A      6.745323  
     373A      6.777533   374A      6.820041   375A      6.851759  
     376A      6.881925   377A      6.892828   378A      6.945479  
     379A      6.962125   380A      7.022154   381A      7.047669  
     382A      7.096961   383A      7.235946   384A      7.247055  
     385A      7.257580   386A      7.306263   387A      7.314280  
     388A      7.337450   389A      7.382499   390A      7.406607  
     391A      7.425912   392A      7.487641   393A      7.535076  
     394A      7.535500   395A      7.551334   396A      7.627669  
     397A      7.667924   398A      7.701649   399A      7.704911  
     400A      7.834572   401A      7.852692   402A      7.889560  
     403A      7.965044   404A      8.064745   405A      8.207518  
     406A      8.271584   407A      8.520247   408A      8.598564  
     409A     15.093236   410A     15.603537   411A     16.180331  
     412A     17.242657   413A     18.165229   414A     19.376867  

    Final Occupation by Irrep:
              A 
    DOCC [    24 ]

  @DF-RHF Final Energy:  -341.82476699616177

   => Energetics <=

    Nuclear Repulsion Energy =            248.0642269168401128
    One-Electron Energy =                -960.4459397299574448
    Two-Electron Energy =                 370.5569458169555901
    Total Energy =                       -341.8247669961617703

Computation Completed

*** tstop() called on node35.bme.utexas.edu at Tue Nov  3 13:18:10 2020
Module time:
	user time   =     105.83 seconds =       1.76 minutes
	system time =       5.60 seconds =       0.09 minutes
	total time  =         16 seconds =       0.27 minutes
Total time:
	user time   =     105.83 seconds =       1.76 minutes
	system time =       5.60 seconds =       0.09 minutes
	total time  =         16 seconds =       0.27 minutes
   => Loading Basis Set <=

    Name: (AUG-CC-PVTZ AUX)
    Role: RIFIT
    Keyword: DF_BASIS_MP2
    atoms 1-3  entry O          line   264 file /home/xy3866/psi4conda/share/psi4/basis/aug-cc-pvtz-ri.gbs 
    atoms 4-6  entry C          line   148 file /home/xy3866/psi4conda/share/psi4/basis/aug-cc-pvtz-ri.gbs 
    atoms 7-12 entry H          line    30 file /home/xy3866/psi4conda/share/psi4/basis/aug-cc-pvtz-ri.gbs 


*** tstart() called on node35.bme.utexas.edu
*** at Tue Nov  3 13:18:11 2020


  //>>>>>>>>>>>>>>>>>>>>>>>>>>>>>>>>>>>//
  //               DFMP2               //
  //<<<<<<<<<<<<<<<<<<<<<<<<<<<<<<<<<<<//

	 --------------------------------------------------------
	                          DF-MP2                         
	      2nd-Order Density-Fitted Moller-Plesset Theory     
	              RMP2 Wavefunction,   8 Threads             
	                                                         
	        Rob Parrish, Justin Turney, Andy Simmonett,      
	           Ed Hohenstein, and C. David Sherrill          
	 --------------------------------------------------------

   => Auxiliary Basis Set <=

  Basis Set: (AUG-CC-PVTZ AUX)
    Blend: AUG-CC-PVTZ-RI
    Number of shells: 252
    Number of basis function: 912
    Number of Cartesian functions: 1146
    Spherical Harmonics?: true
    Max angular momentum: 4

	 --------------------------------------------------------
	                 NBF =   414, NAUX =   912
	 --------------------------------------------------------
	   CLASS    FOCC     OCC    AOCC    AVIR     VIR    FVIR
	   PAIRS       0      24      24     390     390       0
	 --------------------------------------------------------

  DFHelper Memory: AOs need 1.181 GiB; user supplied 22.352 GiB. Using in-core AOs.


         ------------------------------------------------------------
                                     CPHF                           
                                  Rob Parrish                       
         ------------------------------------------------------------

  ==> Geometry <==

    Molecular point group: c1
    Full point group: C1

    Geometry (in Angstrom), charge = 0, multiplicity = 1:

       Center              X                  Y                   Z               Mass       
    ------------   -----------------  -----------------  -----------------  -----------------
         O           -1.358189253094    -1.147947633129     0.183016788607    15.994914619570
         O            1.443541746906     1.035147366871     0.292871788607    15.994914619570
         O            1.238291746906    -1.101981633129    -0.456587211393    15.994914619570
         C           -0.727077553094     0.127599966871     0.425288688607    12.000000000000
         C           -1.341514253094     1.204319366871    -0.462700211393    12.000000000000
         C            0.738361746906    -0.101689633129     0.016473788607    12.000000000000
         H           -0.735720253094     0.394548366871     1.441527788607     1.007825032230
         H           -1.308611953094     0.958876166871    -1.525696611393     1.007825032230
         H           -0.824046253094     2.153147366871    -0.310893211393     1.007825032230
         H           -2.393296253094     1.334680366871    -0.188806211393     1.007825032230
         H           -2.271319253094    -1.045726633129     0.502720788607     1.007825032230
         H            2.364620746906     0.835810366871     0.024122788607     1.007825032230

  Nuclear repulsion =  248.064226916840113
  Reference energy  = -341.824766996161770

  ==> Basis Set <==

  Basis Set: AUG-CC-PVTZ
    Blend: AUG-CC-PVTZ
    Number of shells: 138
    Number of basis function: 414
    Number of Cartesian functions: 480
    Spherical Harmonics?: true
    Max angular momentum: 3

  ==> CGRSolver (by Rob Parrish) <==

   Number of roots    =         1
   Preconditioning    =    JACOBI
   Convergence cutoff =     1E-06
   Maximum iterations =       100

  ==> CPHFRHamiltonian (by Rob Parrish) <== 

  ==> MemDFJK: Density-Fitted J/K Matrices <==

    J tasked:                   Yes
    K tasked:                   Yes
    wK tasked:                   No
    OpenMP threads:               8
    Memory [MiB]:             22888
    Algorithm:                 Core
    Schwarz Cutoff:           1E-12
    Mask sparsity (%):       1.6803
    Fitting Condition:        1E-10

   => Auxiliary Basis Set <=

  Basis Set: (AUG-CC-PVTZ AUX)
    Blend: AUG-CC-PVTZ-JKFIT
    Number of shells: 264
    Number of basis function: 900
    Number of Cartesian functions: 1116
    Spherical Harmonics?: true
    Max angular momentum: 4

  ==> CPHF Iterations <==

  => Iterations <=

             Iter  Converged  Remaining    Residual
  CGR           1          0          1   1.070E-01
  CGR           2          0          1   3.134E-02
  CGR           3          0          1   1.146E-02
  CGR           4          0          1   3.404E-03
  CGR           5          0          1   1.236E-03
  CGR           6          0          1   3.174E-04
  CGR           7          0          1   9.469E-05
  CGR           8          0          1   2.700E-05
  CGR           9          0          1   8.687E-06
  CGR          10          0          1   3.517E-06
  CGR          11          0          1   1.128E-06
  CGR          12          1          0   3.997E-07

    CGRSolver converged.

	-----------------------------------------------------------
	 ==================> DF-MP2 Energies <==================== 
	-----------------------------------------------------------
	 Reference Energy          =    -341.8247669961617703 [Eh]
	 Singles Energy            =      -0.0000000000000000 [Eh]
	 Same-Spin Energy          =      -0.3269579627500586 [Eh]
	 Opposite-Spin Energy      =      -1.0132962368408851 [Eh]
	 Correlation Energy        =      -1.3402541995909436 [Eh]
	 Total Energy              =    -343.1650211957527290 [Eh]
	-----------------------------------------------------------
	 ================> DF-SCS-MP2 Energies <================== 
	-----------------------------------------------------------
	 SCS Same-Spin Scale       =       0.3333333333333333 [-]
	 SCS Opposite-Spin Scale   =       1.2000000000000000 [-]
	 SCS Same-Spin Energy      =      -0.1089859875833529 [Eh]
	 SCS Opposite-Spin Energy  =      -1.2159554842090621 [Eh]
	 SCS Correlation Energy    =      -1.3249414717924148 [Eh]
	 SCS Total Energy          =    -343.1497084679542127 [Eh]
	-----------------------------------------------------------



Properties will be evaluated at  -0.000000,   0.000000,  -0.000000 [a0]

Properties computed using the MP2 density matrix

  Nuclear Dipole Moment: [e a0]
     X:    -4.8388      Y:     4.3359      Z:    -0.0534

  Electronic Dipole Moment: [e a0]
     X:     4.3421      Y:    -3.2442      Z:     0.4841

  Dipole Moment: [e a0]
     X:    -0.4967      Y:     1.0917      Z:     0.4307     Total:     1.2744

  Dipole Moment: [D]
     X:    -1.2626      Y:     2.7747      Z:     1.0947     Total:     3.2391


*** tstop() called on node35.bme.utexas.edu at Tue Nov  3 13:18:49 2020
Module time:
	user time   =     248.15 seconds =       4.14 minutes
	system time =      10.10 seconds =       0.17 minutes
	total time  =         38 seconds =       0.63 minutes
Total time:
	user time   =     354.86 seconds =       5.91 minutes
	system time =      15.78 seconds =       0.26 minutes
	total time  =         55 seconds =       0.92 minutes

    Psi4 stopped on: Tuesday, 03 November 2020 01:18PM
    Psi4 wall time for execution: 0:00:54.83

*** Psi4 exiting successfully. Buy a developer a beer!
