15220160                                                                
Freq      RMP2-FC                                                     6-31G(d)            
Number of atoms                            I               19
Info1-9                                    I   N=           9
          31          29        1002           0           0         100
           6           2           1
Charge                                     I                0
Multiplicity                               I                1
Number of electrons                        I               82
Number of alpha electrons                  I               41
Number of beta electrons                   I               41
Number of basis functions                  I              172
Number of independent functions            I              172
Number of point charges in /Mol/           I                0
Number of translation vectors              I                0
Atomic numbers                             I   N=          19
          16           8           7           6           6           6
           6           6           6           6           1           1
           1           1           1           1           1           1
           1
Nuclear charges                            R   N=          19
  1.60000000E+01  8.00000000E+00  7.00000000E+00  6.00000000E+00  6.00000000E+00
  6.00000000E+00  6.00000000E+00  6.00000000E+00  6.00000000E+00  6.00000000E+00
  1.00000000E+00  1.00000000E+00  1.00000000E+00  1.00000000E+00  1.00000000E+00
  1.00000000E+00  1.00000000E+00  1.00000000E+00  1.00000000E+00
Current cartesian coordinates              R   N=          57
 -2.52032067E+00 -7.03768574E-01 -2.16338872E+00  2.63581091E+00 -3.19139048E+00
  9.71622774E-01  1.79826822E+00  9.74831595E-01  1.95176001E-01 -8.16004496E-01
  4.98193495E-01  3.69812973E-01  2.55629532E+00  3.41400575E+00 -8.61502400E-01
  3.42487236E+00 -1.07737820E+00  4.22040818E-01 -2.35871274E+00  9.58855011E-01
  2.41598857E+00 -4.91763144E+00  3.40631756E-01  1.93184239E+00  6.20746932E+00
 -5.44667966E-01  1.31765055E-02 -5.28770571E+00 -5.77231904E-01 -4.76224383E-01
  1.20775715E+00  4.83126576E+00 -2.11922431E-01  2.56043666E+00  3.40233955E+00
 -2.93513035E+00  4.43013666E+00  3.93959802E+00 -1.84890853E-01 -1.63352182E+00
  1.69063568E+00  4.18899102E+00 -6.43474008E+00  5.44964694E-01  3.29564025E+00
  6.92665220E+00  8.11673452E-01  1.39768993E+00  6.57363905E+00  2.11840927E-01
 -1.87508293E+00  7.20704551E+00 -2.33074147E+00  2.36256558E-01 -7.03813503E+00
 -1.20842442E+00 -1.32735278E+00
Force Field                                I                0
Int Atom Types                             I   N=          19
           0           0           0           0           0           0
           0           0           0           0           0           0
           0           0           0           0           0           0
           0
MM charges                                 R   N=          19
  0.00000000E+00  0.00000000E+00  0.00000000E+00  0.00000000E+00  0.00000000E+00
  0.00000000E+00  0.00000000E+00  0.00000000E+00  0.00000000E+00  0.00000000E+00
  0.00000000E+00  0.00000000E+00  0.00000000E+00  0.00000000E+00  0.00000000E+00
  0.00000000E+00  0.00000000E+00  0.00000000E+00  0.00000000E+00
Integer atomic weights                     I   N=          19
          32          16          14          12          12          12
          12          12          12          12           1           1
           1           1           1           1           1           1
           1
Real atomic weights                        R   N=          19
  3.19720718E+01  1.59949146E+01  1.40030740E+01  1.20000000E+01  1.20000000E+01
  1.20000000E+01  1.20000000E+01  1.20000000E+01  1.20000000E+01  1.20000000E+01
  1.00782504E+00  1.00782504E+00  1.00782504E+00  1.00782504E+00  1.00782504E+00
  1.00782504E+00  1.00782504E+00  1.00782504E+00  1.00782504E+00
Atom fragment info                         I   N=          19
           0           0           0           0           0           0
           0           0           0           0           0           0
           0           0           0           0           0           0
           0
Atom residue num                           I   N=          19
           0           0           0           0           0           0
           0           0           0           0           0           0
           0           0           0           0           0           0
           0
Nuclear spins                              I   N=          19
           0           0           2           0           0           0
           0           0           0           0           1           1
           1           1           1           1           1           1
           1
Nuclear ZEff                               R   N=          19
 -1.36000000E+01 -5.60000000E+00 -4.55000000E+00 -3.60000000E+00 -3.60000000E+00
 -3.60000000E+00 -3.60000000E+00 -3.60000000E+00 -3.60000000E+00 -3.60000000E+00
 -1.00000000E+00 -1.00000000E+00 -1.00000000E+00 -1.00000000E+00 -1.00000000E+00
 -1.00000000E+00 -1.00000000E+00 -1.00000000E+00 -1.00000000E+00
Nuclear QMom                               R   N=          19
  0.00000000E+00  0.00000000E+00  2.04400000E+00  0.00000000E+00  0.00000000E+00
  0.00000000E+00  0.00000000E+00  0.00000000E+00  0.00000000E+00  0.00000000E+00
  0.00000000E+00  0.00000000E+00  0.00000000E+00  0.00000000E+00  0.00000000E+00
  0.00000000E+00  0.00000000E+00  0.00000000E+00  0.00000000E+00
Nuclear GFac                               R   N=          19
  0.00000000E+00  0.00000000E+00  4.03761000E-01  0.00000000E+00  0.00000000E+00
  0.00000000E+00  0.00000000E+00  0.00000000E+00  0.00000000E+00  0.00000000E+00
  2.79284600E+00  2.79284600E+00  2.79284600E+00  2.79284600E+00  2.79284600E+00
  2.79284600E+00  2.79284600E+00  2.79284600E+00  2.79284600E+00
MicOpt                                     I   N=          19
          -1          -1          -1          -1          -1          -1
          -1          -1          -1          -1          -1          -1
          -1          -1          -1          -1          -1          -1
          -1
Number of contracted shells                I               59
Number of primitive shells                 I              152
Pure/Cartesian d shells                    I                1
Pure/Cartesian f shells                    I                0
Highest angular momentum                   I                2
Largest degree of contraction              I                6
Shell types                                I   N=          59
           0          -1          -1          -1           2           0
          -1          -1           2           0          -1          -1
           2           0          -1          -1           2           0
          -1          -1           2           0          -1          -1
           2           0          -1          -1           2           0
          -1          -1           2           0          -1          -1
           2           0          -1          -1           2           0
           0           0           0           0           0           0
           0           0           0           0           0           0
           0           0           0           0           0
Number of primitives per shell             I   N=          59
           6           6           3           1           1           6
           3           1           1           6           3           1
           1           6           3           1           1           6
           3           1           1           6           3           1
           1           6           3           1           1           6
           3           1           1           6           3           1
           1           6           3           1           1           3
           1           3           1           3           1           3
           1           3           1           3           1           3
           1           3           1           3           1
Shell to atom map                          I   N=          59
           1           1           1           1           1           2
           2           2           2           3           3           3
           3           4           4           4           4           5
           5           5           5           6           6           6
           6           7           7           7           7           8
           8           8           8           9           9           9
           9          10          10          10          10          11
          11          12          12          13          13          14
          14          15          15          16          16          17
          17          18          18          19          19
Primitive exponents                        R   N=         152
  2.19171000E+04  3.30149000E+03  7.54146000E+02  2.12711000E+02  6.79896000E+01
  2.30515000E+01  4.23735000E+02  1.00710000E+02  3.21599000E+01  1.18079000E+01
  4.63110000E+00  1.87025000E+00  2.61584000E+00  9.22167000E-01  3.41287000E-01
  1.17167000E-01  6.50000000E-01  5.48467166E+03  8.25234946E+02  1.88046958E+02
  5.29645000E+01  1.68975704E+01  5.79963534E+00  1.55396162E+01  3.59993359E+00
  1.01376175E+00  2.70005823E-01  8.00000000E-01  4.17351146E+03  6.27457911E+02
  1.42902093E+02  4.02343293E+01  1.28202129E+01  4.39043701E+00  1.16263619E+01
  2.71627981E+00  7.72218397E-01  2.12031498E-01  8.00000000E-01  3.04752488E+03
  4.57369518E+02  1.03948685E+02  2.92101553E+01  9.28666296E+00  3.16392696E+00
  7.86827235E+00  1.88128854E+00  5.44249258E-01  1.68714478E-01  8.00000000E-01
  3.04752488E+03  4.57369518E+02  1.03948685E+02  2.92101553E+01  9.28666296E+00
  3.16392696E+00  7.86827235E+00  1.88128854E+00  5.44249258E-01  1.68714478E-01
  8.00000000E-01  3.04752488E+03  4.57369518E+02  1.03948685E+02  2.92101553E+01
  9.28666296E+00  3.16392696E+00  7.86827235E+00  1.88128854E+00  5.44249258E-01
  1.68714478E-01  8.00000000E-01  3.04752488E+03  4.57369518E+02  1.03948685E+02
  2.92101553E+01  9.28666296E+00  3.16392696E+00  7.86827235E+00  1.88128854E+00
  5.44249258E-01  1.68714478E-01  8.00000000E-01  3.04752488E+03  4.57369518E+02
  1.03948685E+02  2.92101553E+01  9.28666296E+00  3.16392696E+00  7.86827235E+00
  1.88128854E+00  5.44249258E-01  1.68714478E-01  8.00000000E-01  3.04752488E+03
  4.57369518E+02  1.03948685E+02  2.92101553E+01  9.28666296E+00  3.16392696E+00
  7.86827235E+00  1.88128854E+00  5.44249258E-01  1.68714478E-01  8.00000000E-01
  3.04752488E+03  4.57369518E+02  1.03948685E+02  2.92101553E+01  9.28666296E+00
  3.16392696E+00  7.86827235E+00  1.88128854E+00  5.44249258E-01  1.68714478E-01
  8.00000000E-01  1.87311370E+01  2.82539436E+00  6.40121692E-01  1.61277759E-01
  1.87311370E+01  2.82539436E+00  6.40121692E-01  1.61277759E-01  1.87311370E+01
  2.82539436E+00  6.40121692E-01  1.61277759E-01  1.87311370E+01  2.82539436E+00
  6.40121692E-01  1.61277759E-01  1.87311370E+01  2.82539436E+00  6.40121692E-01
  1.61277759E-01  1.87311370E+01  2.82539436E+00  6.40121692E-01  1.61277759E-01
  1.87311370E+01  2.82539436E+00  6.40121692E-01  1.61277759E-01  1.87311370E+01
  2.82539436E+00  6.40121692E-01  1.61277759E-01  1.87311370E+01  2.82539436E+00
  6.40121692E-01  1.61277759E-01
Contraction coefficients                   R   N=         152
  1.86924085E-03  1.42303065E-02  6.96962317E-02  2.38487108E-01  4.83307220E-01
  3.38074154E-01 -2.37677050E-03 -3.16930067E-02 -1.13317024E-01  5.60900118E-02
  5.92255124E-01  4.55006095E-01 -2.50373114E-01  6.69567631E-02  1.05450627E+00
  1.00000000E+00  1.00000000E+00  1.83107443E-03  1.39501722E-02  6.84450781E-02
  2.32714336E-01  4.70192898E-01  3.58520853E-01 -1.10777550E-01 -1.48026263E-01
  1.13076702E+00  1.00000000E+00  1.00000000E+00  1.83477216E-03  1.39946270E-02
  6.85865518E-02  2.32240873E-01  4.69069948E-01  3.60455199E-01 -1.14961182E-01
 -1.69117479E-01  1.14585195E+00  1.00000000E+00  1.00000000E+00  1.83473713E-03
  1.40373228E-02  6.88426223E-02  2.32184443E-01  4.67941348E-01  3.62311985E-01
 -1.19332420E-01 -1.60854152E-01  1.14345644E+00  1.00000000E+00  1.00000000E+00
  1.83473713E-03  1.40373228E-02  6.88426223E-02  2.32184443E-01  4.67941348E-01
  3.62311985E-01 -1.19332420E-01 -1.60854152E-01  1.14345644E+00  1.00000000E+00
  1.00000000E+00  1.83473713E-03  1.40373228E-02  6.88426223E-02  2.32184443E-01
  4.67941348E-01  3.62311985E-01 -1.19332420E-01 -1.60854152E-01  1.14345644E+00
  1.00000000E+00  1.00000000E+00  1.83473713E-03  1.40373228E-02  6.88426223E-02
  2.32184443E-01  4.67941348E-01  3.62311985E-01 -1.19332420E-01 -1.60854152E-01
  1.14345644E+00  1.00000000E+00  1.00000000E+00  1.83473713E-03  1.40373228E-02
  6.88426223E-02  2.32184443E-01  4.67941348E-01  3.62311985E-01 -1.19332420E-01
 -1.60854152E-01  1.14345644E+00  1.00000000E+00  1.00000000E+00  1.83473713E-03
  1.40373228E-02  6.88426223E-02  2.32184443E-01  4.67941348E-01  3.62311985E-01
 -1.19332420E-01 -1.60854152E-01  1.14345644E+00  1.00000000E+00  1.00000000E+00
  1.83473713E-03  1.40373228E-02  6.88426223E-02  2.32184443E-01  4.67941348E-01
  3.62311985E-01 -1.19332420E-01 -1.60854152E-01  1.14345644E+00  1.00000000E+00
  1.00000000E+00  3.34946043E-02  2.34726953E-01  8.13757326E-01  1.00000000E+00
  3.34946043E-02  2.34726953E-01  8.13757326E-01  1.00000000E+00  3.34946043E-02
  2.34726953E-01  8.13757326E-01  1.00000000E+00  3.34946043E-02  2.34726953E-01
  8.13757326E-01  1.00000000E+00  3.34946043E-02  2.34726953E-01  8.13757326E-01
  1.00000000E+00  3.34946043E-02  2.34726953E-01  8.13757326E-01  1.00000000E+00
  3.34946043E-02  2.34726953E-01  8.13757326E-01  1.00000000E+00  3.34946043E-02
  2.34726953E-01  8.13757326E-01  1.00000000E+00  3.34946043E-02  2.34726953E-01
  8.13757326E-01  1.00000000E+00
P(S=P) Contraction coefficients            R   N=         152
  0.00000000E+00  0.00000000E+00  0.00000000E+00  0.00000000E+00  0.00000000E+00
  0.00000000E+00  4.06100998E-03  3.06812999E-02  1.30451999E-01  3.27204999E-01
  4.52850998E-01  2.56041999E-01 -1.45104895E-02  3.10262776E-01  7.54482456E-01
  1.00000000E+00  0.00000000E+00  0.00000000E+00  0.00000000E+00  0.00000000E+00
  0.00000000E+00  0.00000000E+00  0.00000000E+00  7.08742682E-02  3.39752839E-01
  7.27158577E-01  1.00000000E+00  0.00000000E+00  0.00000000E+00  0.00000000E+00
  0.00000000E+00  0.00000000E+00  0.00000000E+00  0.00000000E+00  6.75797439E-02
  3.23907296E-01  7.40895140E-01  1.00000000E+00  0.00000000E+00  0.00000000E+00
  0.00000000E+00  0.00000000E+00  0.00000000E+00  0.00000000E+00  0.00000000E+00
  6.89990666E-02  3.16423961E-01  7.44308291E-01  1.00000000E+00  0.00000000E+00
  0.00000000E+00  0.00000000E+00  0.00000000E+00  0.00000000E+00  0.00000000E+00
  0.00000000E+00  6.89990666E-02  3.16423961E-01  7.44308291E-01  1.00000000E+00
  0.00000000E+00  0.00000000E+00  0.00000000E+00  0.00000000E+00  0.00000000E+00
  0.00000000E+00  0.00000000E+00  6.89990666E-02  3.16423961E-01  7.44308291E-01
  1.00000000E+00  0.00000000E+00  0.00000000E+00  0.00000000E+00  0.00000000E+00
  0.00000000E+00  0.00000000E+00  0.00000000E+00  6.89990666E-02  3.16423961E-01
  7.44308291E-01  1.00000000E+00  0.00000000E+00  0.00000000E+00  0.00000000E+00
  0.00000000E+00  0.00000000E+00  0.00000000E+00  0.00000000E+00  6.89990666E-02
  3.16423961E-01  7.44308291E-01  1.00000000E+00  0.00000000E+00  0.00000000E+00
  0.00000000E+00  0.00000000E+00  0.00000000E+00  0.00000000E+00  0.00000000E+00
  6.89990666E-02  3.16423961E-01  7.44308291E-01  1.00000000E+00  0.00000000E+00
  0.00000000E+00  0.00000000E+00  0.00000000E+00  0.00000000E+00  0.00000000E+00
  0.00000000E+00  6.89990666E-02  3.16423961E-01  7.44308291E-01  1.00000000E+00
  0.00000000E+00  0.00000000E+00  0.00000000E+00  0.00000000E+00  0.00000000E+00
  0.00000000E+00  0.00000000E+00  0.00000000E+00  0.00000000E+00  0.00000000E+00
  0.00000000E+00  0.00000000E+00  0.00000000E+00  0.00000000E+00  0.00000000E+00
  0.00000000E+00  0.00000000E+00  0.00000000E+00  0.00000000E+00  0.00000000E+00
  0.00000000E+00  0.00000000E+00  0.00000000E+00  0.00000000E+00  0.00000000E+00
  0.00000000E+00  0.00000000E+00  0.00000000E+00  0.00000000E+00  0.00000000E+00
  0.00000000E+00  0.00000000E+00  0.00000000E+00  0.00000000E+00  0.00000000E+00
  0.00000000E+00  0.00000000E+00
Coordinates of each shell                  R   N=         177
 -2.52032067E+00 -7.03768574E-01 -2.16338872E+00 -2.52032067E+00 -7.03768574E-01
 -2.16338872E+00 -2.52032067E+00 -7.03768574E-01 -2.16338872E+00 -2.52032067E+00
 -7.03768574E-01 -2.16338872E+00 -2.52032067E+00 -7.03768574E-01 -2.16338872E+00
  2.63581091E+00 -3.19139048E+00  9.71622774E-01  2.63581091E+00 -3.19139048E+00
  9.71622774E-01  2.63581091E+00 -3.19139048E+00  9.71622774E-01  2.63581091E+00
 -3.19139048E+00  9.71622774E-01  1.79826822E+00  9.74831595E-01  1.95176001E-01
  1.79826822E+00  9.74831595E-01  1.95176001E-01  1.79826822E+00  9.74831595E-01
  1.95176001E-01  1.79826822E+00  9.74831595E-01  1.95176001E-01 -8.16004496E-01
  4.98193495E-01  3.69812973E-01 -8.16004496E-01  4.98193495E-01  3.69812973E-01
 -8.16004496E-01  4.98193495E-01  3.69812973E-01 -8.16004496E-01  4.98193495E-01
  3.69812973E-01  2.55629532E+00  3.41400575E+00 -8.61502400E-01  2.55629532E+00
  3.41400575E+00 -8.61502400E-01  2.55629532E+00  3.41400575E+00 -8.61502400E-01
  2.55629532E+00  3.41400575E+00 -8.61502400E-01  3.42487236E+00 -1.07737820E+00
  4.22040818E-01  3.42487236E+00 -1.07737820E+00  4.22040818E-01  3.42487236E+00
 -1.07737820E+00  4.22040818E-01  3.42487236E+00 -1.07737820E+00  4.22040818E-01
 -2.35871274E+00  9.58855011E-01  2.41598857E+00 -2.35871274E+00  9.58855011E-01
  2.41598857E+00 -2.35871274E+00  9.58855011E-01  2.41598857E+00 -2.35871274E+00
  9.58855011E-01  2.41598857E+00 -4.91763144E+00  3.40631756E-01  1.93184239E+00
 -4.91763144E+00  3.40631756E-01  1.93184239E+00 -4.91763144E+00  3.40631756E-01
  1.93184239E+00 -4.91763144E+00  3.40631756E-01  1.93184239E+00  6.20746932E+00
 -5.44667966E-01  1.31765055E-02  6.20746932E+00 -5.44667966E-01  1.31765055E-02
  6.20746932E+00 -5.44667966E-01  1.31765055E-02  6.20746932E+00 -5.44667966E-01
  1.31765055E-02 -5.28770571E+00 -5.77231904E-01 -4.76224383E-01 -5.28770571E+00
 -5.77231904E-01 -4.76224383E-01 -5.28770571E+00 -5.77231904E-01 -4.76224383E-01
 -5.28770571E+00 -5.77231904E-01 -4.76224383E-01  1.20775715E+00  4.83126576E+00
 -2.11922431E-01  1.20775715E+00  4.83126576E+00 -2.11922431E-01  2.56043666E+00
  3.40233955E+00 -2.93513035E+00  2.56043666E+00  3.40233955E+00 -2.93513035E+00
  4.43013666E+00  3.93959802E+00 -1.84890853E-01  4.43013666E+00  3.93959802E+00
 -1.84890853E-01 -1.63352182E+00  1.69063568E+00  4.18899102E+00 -1.63352182E+00
  1.69063568E+00  4.18899102E+00 -6.43474008E+00  5.44964694E-01  3.29564025E+00
 -6.43474008E+00  5.44964694E-01  3.29564025E+00  6.92665220E+00  8.11673452E-01
  1.39768993E+00  6.92665220E+00  8.11673452E-01  1.39768993E+00  6.57363905E+00
  2.11840927E-01 -1.87508293E+00  6.57363905E+00  2.11840927E-01 -1.87508293E+00
  7.20704551E+00 -2.33074147E+00  2.36256558E-01  7.20704551E+00 -2.33074147E+00
  2.36256558E-01 -7.03813503E+00 -1.20842442E+00 -1.32735278E+00 -7.03813503E+00
 -1.20842442E+00 -1.32735278E+00
Constraint Structure                       R   N=          57
 -2.52032067E+00 -7.03768574E-01 -2.16338872E+00  2.63581091E+00 -3.19139048E+00
  9.71622774E-01  1.79826822E+00  9.74831595E-01  1.95176001E-01 -8.16004496E-01
  4.98193495E-01  3.69812973E-01  2.55629532E+00  3.41400575E+00 -8.61502400E-01
  3.42487236E+00 -1.07737820E+00  4.22040818E-01 -2.35871274E+00  9.58855011E-01
  2.41598857E+00 -4.91763144E+00  3.40631756E-01  1.93184239E+00  6.20746932E+00
 -5.44667966E-01  1.31765055E-02 -5.28770571E+00 -5.77231904E-01 -4.76224383E-01
  1.20775715E+00  4.83126576E+00 -2.11922431E-01  2.56043666E+00  3.40233955E+00
 -2.93513035E+00  4.43013666E+00  3.93959802E+00 -1.84890853E-01 -1.63352182E+00
  1.69063568E+00  4.18899102E+00 -6.43474008E+00  5.44964694E-01  3.29564025E+00
  6.92665220E+00  8.11673452E-01  1.39768993E+00  6.57363905E+00  2.11840927E-01
 -1.87508293E+00  7.20704551E+00 -2.33074147E+00  2.36256558E-01 -7.03813503E+00
 -1.20842442E+00 -1.32735278E+00
Num ILSW                                   I              100
ILSW                                       I   N=         100
           0           1           0           0           2           0
           0           0           0           0           0          -1
           0           0           0           0           0           0
           0           0           0           0           1           0
           1           0           0           0           0           0
           0           0      100000           0          -1           0
           0           0           0           0           0           0
           0           0           0           1           1           0
           0           0           1           0           0           0
           0           0           4          40           0           0
           0           0           0           0           0           0
           0           0           0           0           0           0
           0           0           0           0           0           0
           0           0           0           0           0           0
           0           0           0           0           0           0
           0           0           0           0           0           0
           0           0           0           0
Num RLSW                                   I               40
RLSW                                       R   N=          40
  1.00000000E+00  1.00000000E+00  1.00000000E+00  1.00000000E+00  1.00000000E+00
  0.00000000E+00  0.00000000E+00  1.00000000E+00  0.00000000E+00  0.00000000E+00
  0.00000000E+00  0.00000000E+00  1.00000000E+00  0.00000000E+00  0.00000000E+00
  0.00000000E+00  0.00000000E+00  1.00000000E+00  0.00000000E+00  0.00000000E+00
  0.00000000E+00  0.00000000E+00  1.00000000E+00  0.00000000E+00  0.00000000E+00
  0.00000000E+00  0.00000000E+00  1.00000000E+00  0.00000000E+00  0.00000000E+00
  0.00000000E+00  0.00000000E+00  0.00000000E+00  0.00000000E+00  0.00000000E+00
  0.00000000E+00  0.00000000E+00  0.00000000E+00  1.00000000E+00  1.00000000E+00
MxBond                                     I                4
NBond                                      I   N=          19
           2           1           3           3           4           3
           3           3           4           3           1           1
           1           1           1           1           1           1
           1
IBond                                      I   N=          76
           4          10           0           0           6           0
           0           0           4           5           6           0
           1           3           7           0           3          11
          12          13           2           3           9           0
           4           8          14           0           7          10
          15           0           6          16          17          18
           1           8          19           0           5           0
           0           0           5           0           0           0
           5           0           0           0           7           0
           0           0           8           0           0           0
           9           0           0           0           9           0
           0           0           9           0           0           0
          10           0           0           0
RBond                                      R   N=          76
  2.00000000E+00  1.00000000E+00  0.00000000E+00  0.00000000E+00  2.00000000E+00
  0.00000000E+00  0.00000000E+00  0.00000000E+00  1.00000000E+00  1.00000000E+00
  1.00000000E+00  0.00000000E+00  2.00000000E+00  1.00000000E+00  2.00000000E+00
  0.00000000E+00  1.00000000E+00  1.00000000E+00  1.00000000E+00  1.00000000E+00
  2.00000000E+00  1.00000000E+00  1.00000000E+00  0.00000000E+00  2.00000000E+00
  1.50000000E+00  1.00000000E+00  0.00000000E+00  1.50000000E+00  1.50000000E+00
  1.00000000E+00  0.00000000E+00  1.00000000E+00  1.00000000E+00  1.00000000E+00
  1.00000000E+00  1.00000000E+00  1.50000000E+00  1.00000000E+00  0.00000000E+00
  1.00000000E+00  0.00000000E+00  0.00000000E+00  0.00000000E+00  1.00000000E+00
  0.00000000E+00  0.00000000E+00  0.00000000E+00  1.00000000E+00  0.00000000E+00
  0.00000000E+00  0.00000000E+00  1.00000000E+00  0.00000000E+00  0.00000000E+00
  0.00000000E+00  1.00000000E+00  0.00000000E+00  0.00000000E+00  0.00000000E+00
  1.00000000E+00  0.00000000E+00  0.00000000E+00  0.00000000E+00  1.00000000E+00
  0.00000000E+00  0.00000000E+00  0.00000000E+00  1.00000000E+00  0.00000000E+00
  0.00000000E+00  0.00000000E+00  1.00000000E+00  0.00000000E+00  0.00000000E+00
  0.00000000E+00
Virial Ratio                               R      2.001412627780438E+00
SCF Energy                                 R     -7.971184504218675E+02
MP2 Energy                                 R     -7.984874477049029E+02
Total Energy                               R     -7.984874477049029E+02
Post-SCF wavefunction norm                 R      1.721580011445504E+00
RMS Force                                  R      1.823491464385081E-07
RMS Density                                R      1.541586527427608E-09
External E-field                           R   N=          35
  0.00000000E+00  0.00000000E+00  0.00000000E+00  0.00000000E+00  0.00000000E+00
  0.00000000E+00  0.00000000E+00  0.00000000E+00  0.00000000E+00  0.00000000E+00
  0.00000000E+00  0.00000000E+00  0.00000000E+00  0.00000000E+00  0.00000000E+00
  0.00000000E+00  0.00000000E+00  0.00000000E+00  0.00000000E+00  0.00000000E+00
  0.00000000E+00  0.00000000E+00  0.00000000E+00  0.00000000E+00  0.00000000E+00
  0.00000000E+00  0.00000000E+00  0.00000000E+00  0.00000000E+00  0.00000000E+00
  0.00000000E+00  0.00000000E+00  0.00000000E+00  0.00000000E+00  0.00000000E+00
IOpCl                                      I                0
IROHF                                      I                0
Alpha Orbital Energies                     R   N=         172
 -9.19668309E+01 -2.05277986E+01 -1.56043103E+01 -1.13585583E+01 -1.12942862E+01
 -1.12778972E+01 -1.12616868E+01 -1.12416679E+01 -1.12379484E+01 -1.12368767E+01
 -8.97734081E+00 -6.65986225E+00 -6.65897468E+00 -6.65732378E+00 -1.37624860E+00
 -1.25977601E+00 -1.15638951E+00 -1.01974067E+00 -9.84987057E-01 -9.80538870E-01
 -9.39842601E-01 -8.10307444E-01 -7.59388349E-01 -7.11078508E-01 -6.84220299E-01
 -6.76787726E-01 -6.45139043E-01 -6.21681532E-01 -5.89495189E-01 -5.76070684E-01
 -5.64209122E-01 -5.61612084E-01 -5.51668879E-01 -5.43568378E-01 -5.09712745E-01
 -4.99994792E-01 -4.74687914E-01 -4.20231379E-01 -3.80701741E-01 -3.40955945E-01
 -3.15732123E-01  1.27998298E-01  1.73706405E-01  1.95738906E-01  2.23507834E-01
  2.30420286E-01  2.50518709E-01  2.72654773E-01  2.75824108E-01  2.87104078E-01
  2.98606130E-01  3.11918526E-01  3.21383395E-01  3.29639405E-01  3.40927897E-01
  3.67461225E-01  3.88546019E-01  4.10909402E-01  4.53017708E-01  4.64781529E-01
  4.96265813E-01  5.16753067E-01  5.54078424E-01  5.65668085E-01  6.07652637E-01
  6.37372684E-01  6.52302404E-01  7.10831493E-01  7.13853569E-01  7.27462505E-01
  7.71077228E-01  7.79319042E-01  7.85183543E-01  7.98899424E-01  8.12534204E-01
  8.42147517E-01  8.44253574E-01  8.67762973E-01  9.00726740E-01  9.07221906E-01
  9.35982178E-01  9.41023788E-01  9.64490211E-01  9.68410536E-01  1.02553440E+00
  1.04697333E+00  1.06466901E+00  1.08498125E+00  1.10422771E+00  1.10560843E+00
  1.11261104E+00  1.12111335E+00  1.14548372E+00  1.14743229E+00  1.15346126E+00
  1.16347524E+00  1.16985711E+00  1.17567606E+00  1.20124304E+00  1.22616181E+00
  1.25621377E+00  1.26225913E+00  1.27572495E+00  1.28167149E+00  1.29611652E+00
  1.32431167E+00  1.35925115E+00  1.38269463E+00  1.43012925E+00  1.46295088E+00
  1.53783649E+00  1.56549246E+00  1.60349333E+00  1.63370292E+00  1.65671325E+00
  1.69616450E+00  1.71673877E+00  1.73206700E+00  1.74781417E+00  1.83426247E+00
  1.87109298E+00  1.93719051E+00  2.02006934E+00  2.04327271E+00  2.07320642E+00
  2.10574387E+00  2.11025118E+00  2.13747563E+00  2.17458327E+00  2.20384531E+00
  2.22149373E+00  2.24045929E+00  2.28520835E+00  2.29275106E+00  2.31471297E+00
  2.34737827E+00  2.36956402E+00  2.41014549E+00  2.46987821E+00  2.51858544E+00
  2.55670453E+00  2.56373477E+00  2.57121965E+00  2.59287149E+00  2.60701315E+00
  2.63780861E+00  2.67939383E+00  2.70233857E+00  2.75844867E+00  2.77064298E+00
  2.86622286E+00  2.88232806E+00  2.94689454E+00  2.96964370E+00  3.02793292E+00
  3.06070979E+00  3.10182450E+00  3.28173865E+00  3.29862521E+00  3.35567904E+00
  3.45083863E+00  3.53934111E+00  4.36616689E+00  4.42950789E+00  4.49545209E+00
  4.53968856E+00  4.57581368E+00  4.63515823E+00  4.76156869E+00  4.79444278E+00
  4.89251806E+00  4.96775232E+00
Alpha MO coefficients                      R   N=       29584
  9.96254123E-01  1.42591578E-02 -1.28829406E-05  2.90018402E-05  8.33536818E-05
 -2.00153101E-02 -1.35845271E-05 -5.94991604E-05 -1.68597063E-04  2.31914849E-03
  5.93876672E-06  1.55088212E-05  4.77975248E-05  6.89925855E-03  6.91657077E-03
  6.90262940E-03 -2.33808224E-06  1.95038023E-06 -4.71704115E-06  1.64793031E-06
 -7.67548457E-06 -1.84595820E-05  2.07694166E-06 -1.29328235E-05  1.42534180E-04
  4.89596611E-05  6.36673096E-05  1.95971338E-05 -3.17393850E-07  2.15889375E-05
  1.67253061E-05  2.49697400E-06 -1.09840439E-05  5.63699626E-06 -1.25134052E-05