
    -----------------------------------------------------------------------
          Psi4: An Open-Source Ab Initio Electronic Structure Package
                               Psi4 1.3.2 release

                         Git: Rev {HEAD} ecbda83 


    R. M. Parrish, L. A. Burns, D. G. A. Smith, A. C. Simmonett,
    A. E. DePrince III, E. G. Hohenstein, U. Bozkaya, A. Yu. Sokolov,
    R. Di Remigio, R. M. Richard, J. F. Gonthier, A. M. James,
    H. R. McAlexander, A. Kumar, M. Saitow, X. Wang, B. P. Pritchard,
    P. Verma, H. F. Schaefer III, K. Patkowski, R. A. King, E. F. Valeev,
    F. A. Evangelista, J. M. Turney, T. D. Crawford, and C. D. Sherrill,
    J. Chem. Theory Comput. 13(7) pp 3185--3197 (2017).
    (doi: 10.1021/acs.jctc.7b00174)


                         Additional Contributions by
    P. Kraus, H. Kruse, M. H. Lechner, M. C. Schieber, R. A. Shaw,
    A. Alenaizan, R. Galvelis, Z. L. Glick, S. Lehtola, and J. P. Misiewicz

    -----------------------------------------------------------------------


    Psi4 started on: Sunday, 08 November 2020 07:27PM

    Process ID: 104865
    Host:       node59.bme.utexas.edu
    PSIDATADIR: /home/xy3866/psi4conda/share/psi4
    Memory:     500.0 MiB
    Threads:    8
    
  ==> Input File <==

--------------------------------------------------------------------------
#psi4
#
memory 32 gb

molecule  {
0 1
  N       -0.0337150    -0.9783820    -0.0001030
  H       -0.0465630    -1.9952990     0.0000230
  C       -1.2924060    -0.3478390    -0.0002800
  O       -2.3237930    -1.0132930     0.0001830
  C       -1.2062280     1.1067970     0.0000000
  H       -2.1261180     1.6763830     0.0001840
  C        0.0030670     1.7105540     0.0000260
  H        0.1229620     2.7891690     0.0001530
  N        1.1742530     0.9863660    -0.0000120
  H        2.0766210     1.4468080     0.0000740
  C        1.2261252    -0.4021447    -0.1000880
  O        2.2745420    -1.0338450     0.0001200
units angstrom
no_reorient  #important for SAPT in psi4, default
symmetry c1  #important for SAPT in psi4, default
}

set PROPERTIES_ORIGIN ["COM"]
properties('MP2/aug-cc-pvtz', properties = ['dipole'])
--------------------------------------------------------------------------

  Memory set to  29.802 GiB by Python driver.
    SCF Algorithm Type (re)set to DF.

*** tstart() called on node59.bme.utexas.edu
*** at Sun Nov  8 19:27:22 2020

   => Loading Basis Set <=

    Name: AUG-CC-PVTZ
    Role: ORBITAL
    Keyword: BASIS
    atoms 1, 9        entry N          line   281 file /home/xy3866/psi4conda/share/psi4/basis/aug-cc-pvtz.gbs 
    atoms 2, 6, 8, 10 entry H          line    36 file /home/xy3866/psi4conda/share/psi4/basis/aug-cc-pvtz.gbs 
    atoms 3, 5, 7, 11 entry C          line   235 file /home/xy3866/psi4conda/share/psi4/basis/aug-cc-pvtz.gbs 
    atoms 4, 12       entry O          line   327 file /home/xy3866/psi4conda/share/psi4/basis/aug-cc-pvtz.gbs 


         ---------------------------------------------------------
                                   SCF
               by Justin Turney, Rob Parrish, Andy Simmonett
                          and Daniel G. A. Smith
                              RHF Reference
                        8 Threads,  30517 MiB Core
         ---------------------------------------------------------

  ==> Geometry <==

    Molecular point group: c1
    Full point group: C1

    Geometry (in Angstrom), charge = 0, multiplicity = 1:

       Center              X                  Y                   Z               Mass       
    ------------   -----------------  -----------------  -----------------  -----------------
         N           -0.033510437213    -0.943784379279     0.010612519706    14.003074004430
         H           -0.046358437213    -1.960701379279     0.010738519706     1.007825032230
         C           -1.292201437213    -0.313241379279     0.010435519706    12.000000000000
         O           -2.323588437213    -0.978695379279     0.010898519706    15.994914619570
         C           -1.206023437213     1.141394620721     0.010715519706    12.000000000000
         H           -2.125913437213     1.710980620721     0.010899519706     1.007825032230
         C            0.003271562787     1.745151620721     0.010741519706    12.000000000000
         H            0.123166562787     2.823766620721     0.010868519706     1.007825032230
         N            1.174457562787     1.020963620721     0.010703519706    14.003074004430
         H            2.076825562787     1.481405620721     0.010789519706     1.007825032230
         C            1.226329762787    -0.367547079279    -0.089372480294    12.000000000000
         O            2.274746562787    -0.999247379279     0.010835519706    15.994914619570

  Running in c1 symmetry.

  Rotational constants: A =      0.12917  B =      0.06663  C =      0.04398 [cm^-1]
  Rotational constants: A =   3872.32217  B =   1997.41128  C =   1318.38121 [MHz]
  Nuclear repulsion =  355.195506448922117

  Charge       = 0
  Multiplicity = 1
  Electrons    = 58
  Nalpha       = 29
  Nbeta        = 29

  ==> Algorithm <==

  SCF Algorithm Type is DF.
  DIIS enabled.
  MOM disabled.
  Fractional occupation disabled.
  Guess Type is SAD.
  Energy threshold   = 1.00e-10
  Density threshold  = 1.00e-10
  Integral threshold = 0.00e+00

  ==> Primary Basis <==

  Basis Set: AUG-CC-PVTZ
    Blend: AUG-CC-PVTZ
    Number of shells: 148
    Number of basis function: 460
    Number of Cartesian functions: 540
    Spherical Harmonics?: true
    Max angular momentum: 3

   => Loading Basis Set <=

    Name: (AUG-CC-PVTZ AUX)
    Role: JKFIT
    Keyword: DF_BASIS_SCF
    atoms 1, 9        entry N          line   224 file /home/xy3866/psi4conda/share/psi4/basis/aug-cc-pvtz-jkfit.gbs 
    atoms 2, 6, 8, 10 entry H          line    70 file /home/xy3866/psi4conda/share/psi4/basis/aug-cc-pvtz-jkfit.gbs 
    atoms 3, 5, 7, 11 entry C          line   162 file /home/xy3866/psi4conda/share/psi4/basis/aug-cc-pvtz-jkfit.gbs 
    atoms 4, 12       entry O          line   286 file /home/xy3866/psi4conda/share/psi4/basis/aug-cc-pvtz-jkfit.gbs 

  ==> Pre-Iterations <==

   -------------------------------------------------------
    Irrep   Nso     Nmo     Nalpha   Nbeta   Ndocc  Nsocc
   -------------------------------------------------------
     A        460     460       0       0       0       0
   -------------------------------------------------------
    Total     460     460      29      29      29       0
   -------------------------------------------------------

  ==> Integral Setup <==

  DFHelper Memory: AOs need 1.623 GiB; user supplied 22.352 GiB. Using in-core AOs.

  ==> MemDFJK: Density-Fitted J/K Matrices <==

    J tasked:                   Yes
    K tasked:                   Yes
    wK tasked:                   No
    OpenMP threads:               8
    Memory [MiB]:             22888
    Algorithm:                 Core
    Schwarz Cutoff:           1E-12
    Mask sparsity (%):       2.5917
    Fitting Condition:        1E-10

   => Auxiliary Basis Set <=

  Basis Set: (AUG-CC-PVTZ AUX)
    Blend: AUG-CC-PVTZ-JKFIT
    Number of shells: 296
    Number of basis function: 1016
    Number of Cartesian functions: 1268
    Spherical Harmonics?: true
    Max angular momentum: 4

  Minimum eigenvalue in the overlap matrix is 4.3494607399E-06.
  Using Symmetric Orthogonalization.

  SCF Guess: Superposition of Atomic Densities via on-the-fly atomic UHF.

  ==> Iterations <==

                           Total Energy        Delta E     RMS |[F,P]|

   @DF-RHF iter SAD:  -411.83800035583380   -4.11838e+02   0.00000e+00 
   @DF-RHF iter   1:  -412.36716769309925   -5.29167e-01   1.62562e-03 DIIS
   @DF-RHF iter   2:  -412.52817592856320   -1.61008e-01   1.09622e-03 DIIS
   @DF-RHF iter   3:  -412.61055620137722   -8.23803e-02   1.95582e-04 DIIS
   @DF-RHF iter   4:  -412.61488624439068   -4.33004e-03   8.12389e-05 DIIS
   @DF-RHF iter   5:  -412.61580931034661   -9.23066e-04   1.67664e-05 DIIS
   @DF-RHF iter   6:  -412.61592086065798   -1.11550e-04   8.57688e-06 DIIS
   @DF-RHF iter   7:  -412.61594189266839   -2.10320e-05   3.43571e-06 DIIS
   @DF-RHF iter   8:  -412.61594556278789   -3.67012e-06   1.17994e-06 DIIS
   @DF-RHF iter   9:  -412.61594584066347   -2.77876e-07   4.98846e-07 DIIS
   @DF-RHF iter  10:  -412.61594590792072   -6.72572e-08   1.64479e-07 DIIS
   @DF-RHF iter  11:  -412.61594591625766   -8.33694e-09   5.54880e-08 DIIS
   @DF-RHF iter  12:  -412.61594591696007   -7.02414e-10   1.69183e-08 DIIS
   @DF-RHF iter  13:  -412.61594591703511   -7.50333e-11   6.20371e-09 DIIS
   @DF-RHF iter  14:  -412.61594591704682   -1.17097e-11   3.20672e-09 DIIS
   @DF-RHF iter  15:  -412.61594591704943   -2.61480e-12   8.48424e-10 DIIS
   @DF-RHF iter  16:  -412.61594591705000   -5.68434e-13   3.75078e-10 DIIS
   @DF-RHF iter  17:  -412.61594591704949    5.11591e-13   1.40588e-10 DIIS
   @DF-RHF iter  18:  -412.61594591705034   -8.52651e-13   5.34107e-11 DIIS
  Energy and wave function converged.


  ==> Post-Iterations <==

    Orbital Energies [Eh]
    ---------------------

    Doubly Occupied:                                                      

       1A    -20.550389     2A    -20.544093     3A    -15.647439  
       4A    -15.630979     5A    -11.424640     6A    -11.385093  
       7A    -11.344353     8A    -11.259742     9A     -1.430198  
      10A     -1.393697    11A     -1.309348    12A     -1.242768  
      13A     -1.088013    14A     -0.931519    15A     -0.900317  
      16A     -0.804591    17A     -0.762012    18A     -0.713270  
      19A     -0.676728    20A     -0.665531    21A     -0.651721  
      22A     -0.614511    23A     -0.600631    24A     -0.568382  
      25A     -0.524200    26A     -0.483842    27A     -0.450811  
      28A     -0.436627    29A     -0.370317  

    Virtual:                                                              

      30A      0.014145    31A      0.033667    32A      0.040811  
      33A      0.050779    34A      0.056818    35A      0.075413  
      36A      0.080000    37A      0.086714    38A      0.093133  
      39A      0.098585    40A      0.105206    41A      0.107904  
      42A      0.115928    43A      0.122494    44A      0.123596  
      45A      0.133652    46A      0.138805    47A      0.145059  
      48A      0.151667    49A      0.156095    50A      0.161456  
      51A      0.167365    52A      0.176051    53A      0.199692  
      54A      0.210453    55A      0.213214    56A      0.220886  
      57A      0.229477    58A      0.240433    59A      0.249110  
      60A      0.260600    61A      0.261601    62A      0.267500  
      63A      0.269782    64A      0.272691    65A      0.276914  
      66A      0.284067    67A      0.292257    68A      0.295926  
      69A      0.309568    70A      0.313141    71A      0.324320  
      72A      0.334116    73A      0.342595    74A      0.348999  
      75A      0.352246    76A      0.357386    77A      0.363918  
      78A      0.370832    79A      0.374532    80A      0.393029  
      81A      0.401055    82A      0.410305    83A      0.418242  
      84A      0.420275    85A      0.431761    86A      0.434994  
      87A      0.448760    88A      0.452344    89A      0.456674  
      90A      0.460589    91A      0.466281    92A      0.468893  
      93A      0.480124    94A      0.494619    95A      0.499229  
      96A      0.511203    97A      0.517654    98A      0.522519  
      99A      0.526219   100A      0.541010   101A      0.560210  
     102A      0.571905   103A      0.589422   104A      0.596573  
     105A      0.601649   106A      0.609001   107A      0.617702  
     108A      0.626217   109A      0.630411   110A      0.641918  
     111A      0.657443   112A      0.662267   113A      0.676979  
     114A      0.686571   115A      0.691892   116A      0.704486  
     117A      0.713301   118A      0.728323   119A      0.734067  
     120A      0.744052   121A      0.751717   122A      0.755831  
     123A      0.770049   124A      0.777047   125A      0.801310  
     126A      0.808420   127A      0.819227   128A      0.834432  
     129A      0.844884   130A      0.849872   131A      0.860219  
     132A      0.874902   133A      0.882241   134A      0.886648  
     135A      0.897282   136A      0.914109   137A      0.917440  
     138A      0.919418   139A      0.929861   140A      0.933866  
     141A      0.940364   142A      0.949434   143A      0.954105  
     144A      0.957227   145A      0.968474   146A      0.979484  
     147A      0.986722   148A      0.999502   149A      1.006188  
     150A      1.014047   151A      1.032067   152A      1.050127  
     153A      1.055474   154A      1.068302   155A      1.081314  
     156A      1.096003   157A      1.099203   158A      1.106340  
     159A      1.116331   160A      1.123819   161A      1.132475  
     162A      1.136404   163A      1.143606   164A      1.152528  
     165A      1.165188   166A      1.173288   167A      1.175840  
     168A      1.186703   169A      1.192434   170A      1.202899  
     171A      1.220094   172A      1.225319   173A      1.232948  
     174A      1.243567   175A      1.254929   176A      1.277157  
     177A      1.292730   178A      1.299219   179A      1.325312  
     180A      1.331102   181A      1.343207   182A      1.362795  
     183A      1.368534   184A      1.371918   185A      1.390643  
     186A      1.399221   187A      1.411526   188A      1.414336  
     189A      1.434282   190A      1.435672   191A      1.447501  
     192A      1.466539   193A      1.478033   194A      1.486248  
     195A      1.496048   196A      1.506794   197A      1.508470  
     198A      1.527438   199A      1.547825   200A      1.553109  
     201A      1.567756   202A      1.578092   203A      1.587279  
     204A      1.611811   205A      1.626227   206A      1.636996  
     207A      1.650198   208A      1.660446   209A      1.678450  
     210A      1.700162   211A      1.702258   212A      1.718808  
     213A      1.731237   214A      1.760563   215A      1.788909  
     216A      1.822496   217A      1.832475   218A      1.856949  
     219A      1.864607   220A      1.871902   221A      1.889644  
     222A      1.908125   223A      1.922988   224A      1.927863  
     225A      1.936446   226A      1.979514   227A      1.997292  
     228A      2.007024   229A      2.016465   230A      2.088546  
     231A      2.092782   232A      2.101979   233A      2.107063  
     234A      2.134212   235A      2.140528   236A      2.153967  
     237A      2.160358   238A      2.186584   239A      2.191863  
     240A      2.205614   241A      2.215627   242A      2.251353  
     243A      2.254580   244A      2.282580   245A      2.294450  
     246A      2.319221   247A      2.343993   248A      2.358107  
     249A      2.382940   250A      2.399184   251A      2.407995  
     252A      2.429086   253A      2.448859   254A      2.465181  
     255A      2.476559   256A      2.485253   257A      2.492289  
     258A      2.505521   259A      2.518446   260A      2.531505  
     261A      2.555969   262A      2.571780   263A      2.576294  
     264A      2.580695   265A      2.592141   266A      2.603761  
     267A      2.637513   268A      2.657564   269A      2.680836  
     270A      2.690550   271A      2.696171   272A      2.742066  
     273A      2.760990   274A      2.764267   275A      2.776636  
     276A      2.807362   277A      2.828297   278A      2.860252  
     279A      2.867008   280A      2.897259   281A      2.923229  
     282A      2.944972   283A      2.975329   284A      2.992549  
     285A      3.007809   286A      3.010757   287A      3.037448  
     288A      3.114769   289A      3.118879   290A      3.141511  
     291A      3.168660   292A      3.198278   293A      3.230574  
     294A      3.245631   295A      3.260109   296A      3.277343  
     297A      3.296007   298A      3.333495   299A      3.361739  
     300A      3.395272   301A      3.418021   302A      3.431479  
     303A      3.448629   304A      3.482857   305A      3.501611  
     306A      3.521928   307A      3.539987   308A      3.561126  
     309A      3.604441   310A      3.611415   311A      3.633801  
     312A      3.656640   313A      3.672873   314A      3.702682  
     315A      3.707857   316A      3.728594   317A      3.752031  
     318A      3.761986   319A      3.776097   320A      3.801045  
     321A      3.828209   322A      3.845805   323A      3.881086  
     324A      3.890371   325A      3.910656   326A      3.931694  
     327A      3.953485   328A      3.974848   329A      3.986992  
     330A      4.036673   331A      4.054212   332A      4.063784  
     333A      4.092678   334A      4.118582   335A      4.143007  
     336A      4.162295   337A      4.178614   338A      4.185837  
     339A      4.201528   340A      4.237884   341A      4.242293  
     342A      4.266771   343A      4.284648   344A      4.294539  
     345A      4.323087   346A      4.344192   347A      4.355622  
     348A      4.368532   349A      4.397442   350A      4.414580  
     351A      4.418463   352A      4.430926   353A      4.452238  
     354A      4.486276   355A      4.542919   356A      4.592076  
     357A      4.600512   358A      4.616961   359A      4.658558  
     360A      4.660720   361A      4.685865   362A      4.726336  
     363A      4.740297   364A      4.752222   365A      4.800687  
     366A      4.833345   367A      4.860282   368A      4.874937  
     369A      4.905850   370A      4.910158   371A      4.937475  
     372A      4.971570   373A      4.994610   374A      5.003476  
     375A      5.039937   376A      5.076139   377A      5.096578  
     378A      5.100816   379A      5.115681   380A      5.138192  
     381A      5.177634   382A      5.229625   383A      5.258506  
     384A      5.303925   385A      5.339660   386A      5.392460  
     387A      5.394640   388A      5.451795   389A      5.465509  
     390A      5.485373   391A      5.492705   392A      5.512646  
     393A      5.544884   394A      5.580093   395A      5.604248  
     396A      5.633245   397A      5.694902   398A      5.724206  
     399A      5.741202   400A      5.773234   401A      5.790116  
     402A      5.815847   403A      5.856869   404A      5.897815  
     405A      5.938649   406A      5.983417   407A      6.001052  
     408A      6.028979   409A      6.066862   410A      6.085889  
     411A      6.132665   412A      6.181866   413A      6.233709  
     414A      6.260923   415A      6.455929   416A      6.524889  
     417A      6.560766   418A      6.602415   419A      6.660702  
     420A      6.664710   421A      6.687564   422A      6.712017  
     423A      6.730357   424A      6.776535   425A      6.793427  
     426A      6.820486   427A      6.837953   428A      6.876939  
     429A      6.940789   430A      6.961622   431A      7.030963  
     432A      7.062813   433A      7.155309   434A      7.166844  
     435A      7.246649   436A      7.305239   437A      7.351573  
     438A      7.370473   439A      7.384892   440A      7.391302  
     441A      7.450130   442A      7.609600   443A      7.659300  
     444A      7.677533   445A      7.696673   446A      7.788017  
     447A      7.795979   448A      7.871694   449A      7.915567  
     450A      7.955192   451A      7.997531   452A      8.023135  
     453A     15.786600   454A     15.896302   455A     16.130197  
     456A     16.714795   457A     17.974583   458A     19.135361  
     459A     19.521213   460A     19.866033  

    Final Occupation by Irrep:
              A 
    DOCC [    29 ]

  @DF-RHF Final Energy:  -412.61594591705034

   => Energetics <=

    Nuclear Repulsion Energy =            355.1955064489221172
    One-Electron Energy =               -1266.8113804906167843
    Two-Electron Energy =                 498.9999281246443843
    Total Energy =                       -412.6159459170503396

Computation Completed

*** tstop() called on node59.bme.utexas.edu at Sun Nov  8 19:27:34 2020
Module time:
	user time   =      84.10 seconds =       1.40 minutes
	system time =       3.04 seconds =       0.05 minutes
	total time  =         12 seconds =       0.20 minutes
Total time:
	user time   =      84.10 seconds =       1.40 minutes
	system time =       3.04 seconds =       0.05 minutes
	total time  =         12 seconds =       0.20 minutes
   => Loading Basis Set <=

    Name: (AUG-CC-PVTZ AUX)
    Role: RIFIT
    Keyword: DF_BASIS_MP2
    atoms 1, 9        entry N          line   206 file /home/xy3866/psi4conda/share/psi4/basis/aug-cc-pvtz-ri.gbs 
    atoms 2, 6, 8, 10 entry H          line    30 file /home/xy3866/psi4conda/share/psi4/basis/aug-cc-pvtz-ri.gbs 
    atoms 3, 5, 7, 11 entry C          line   148 file /home/xy3866/psi4conda/share/psi4/basis/aug-cc-pvtz-ri.gbs 
    atoms 4, 12       entry O          line   264 file /home/xy3866/psi4conda/share/psi4/basis/aug-cc-pvtz-ri.gbs 


*** tstart() called on node59.bme.utexas.edu
*** at Sun Nov  8 19:27:34 2020


  //>>>>>>>>>>>>>>>>>>>>>>>>>>>>>>>>>>>//
  //               DFMP2               //
  //<<<<<<<<<<<<<<<<<<<<<<<<<<<<<<<<<<<//

	 --------------------------------------------------------
	                          DF-MP2                         
	      2nd-Order Density-Fitted Moller-Plesset Theory     
	              RMP2 Wavefunction,   8 Threads             
	                                                         
	        Rob Parrish, Justin Turney, Andy Simmonett,      
	           Ed Hohenstein, and C. David Sherrill          
	 --------------------------------------------------------

   => Auxiliary Basis Set <=

  Basis Set: (AUG-CC-PVTZ AUX)
    Blend: AUG-CC-PVTZ-RI
    Number of shells: 280
    Number of basis function: 1032
    Number of Cartesian functions: 1308
    Spherical Harmonics?: true
    Max angular momentum: 4

	 --------------------------------------------------------
	                 NBF =   460, NAUX =  1032
	 --------------------------------------------------------
	   CLASS    FOCC     OCC    AOCC    AVIR     VIR    FVIR
	   PAIRS       0      29      29     431     431       0
	 --------------------------------------------------------

  DFHelper Memory: AOs need 1.623 GiB; user supplied 22.352 GiB. Using in-core AOs.


         ------------------------------------------------------------
                                     CPHF                           
                                  Rob Parrish                       
         ------------------------------------------------------------

  ==> Geometry <==

    Molecular point group: c1
    Full point group: C1

    Geometry (in Angstrom), charge = 0, multiplicity = 1:

       Center              X                  Y                   Z               Mass       
    ------------   -----------------  -----------------  -----------------  -----------------
         N           -0.033510437213    -0.943784379279     0.010612519706    14.003074004430
         H           -0.046358437213    -1.960701379279     0.010738519706     1.007825032230
         C           -1.292201437213    -0.313241379279     0.010435519706    12.000000000000
         O           -2.323588437213    -0.978695379279     0.010898519706    15.994914619570
         C           -1.206023437213     1.141394620721     0.010715519706    12.000000000000
         H           -2.125913437213     1.710980620721     0.010899519706     1.007825032230
         C            0.003271562787     1.745151620721     0.010741519706    12.000000000000
         H            0.123166562787     2.823766620721     0.010868519706     1.007825032230
         N            1.174457562787     1.020963620721     0.010703519706    14.003074004430
         H            2.076825562787     1.481405620721     0.010789519706     1.007825032230
         C            1.226329762787    -0.367547079279    -0.089372480294    12.000000000000
         O            2.274746562787    -0.999247379279     0.010835519706    15.994914619570

  Nuclear repulsion =  355.195506448922117
  Reference energy  = -412.615945917050340

  ==> Basis Set <==

  Basis Set: AUG-CC-PVTZ
    Blend: AUG-CC-PVTZ
    Number of shells: 148
    Number of basis function: 460
    Number of Cartesian functions: 540
    Spherical Harmonics?: true
    Max angular momentum: 3

  ==> CGRSolver (by Rob Parrish) <==

   Number of roots    =         1
   Preconditioning    =    JACOBI
   Convergence cutoff =     1E-06
   Maximum iterations =       100

  ==> CPHFRHamiltonian (by Rob Parrish) <== 

  ==> MemDFJK: Density-Fitted J/K Matrices <==

    J tasked:                   Yes
    K tasked:                   Yes
    wK tasked:                   No
    OpenMP threads:               8
    Memory [MiB]:             22888
    Algorithm:                 Core
    Schwarz Cutoff:           1E-12
    Mask sparsity (%):       2.5917
    Fitting Condition:        1E-10

   => Auxiliary Basis Set <=

  Basis Set: (AUG-CC-PVTZ AUX)
    Blend: AUG-CC-PVTZ-JKFIT
    Number of shells: 296
    Number of basis function: 1016
    Number of Cartesian functions: 1268
    Spherical Harmonics?: true
    Max angular momentum: 4

  ==> CPHF Iterations <==

  => Iterations <=

             Iter  Converged  Remaining    Residual
  CGR           1          0          1   1.409E-01
  CGR           2          0          1   4.398E-02
  CGR           3          0          1   1.686E-02
  CGR           4          0          1   4.003E-03
  CGR           5          0          1   1.316E-03
  CGR           6          0          1   5.908E-04
  CGR           7          0          1   2.248E-04
  CGR           8          0          1   8.965E-05
  CGR           9          0          1   3.393E-05
  CGR          10          0          1   1.066E-05
  CGR          11          0          1   3.635E-06
  CGR          12          0          1   1.255E-06
  CGR          13          1          0   4.755E-07

    CGRSolver converged.

	-----------------------------------------------------------
	 ==================> DF-MP2 Energies <==================== 
	-----------------------------------------------------------
	 Reference Energy          =    -412.6159459170503396 [Eh]
	 Singles Energy            =      -0.0000000000000000 [Eh]
	 Same-Spin Energy          =      -0.4150375728951593 [Eh]
	 Opposite-Spin Energy      =      -1.2290816089998096 [Eh]
	 Correlation Energy        =      -1.6441191818949688 [Eh]
	 Total Energy              =    -414.2600650989452902 [Eh]
	-----------------------------------------------------------
	 ================> DF-SCS-MP2 Energies <================== 
	-----------------------------------------------------------
	 SCS Same-Spin Scale       =       0.3333333333333333 [-]
	 SCS Opposite-Spin Scale   =       1.2000000000000000 [-]
	 SCS Same-Spin Energy      =      -0.1383458576317197 [Eh]
	 SCS Opposite-Spin Energy  =      -1.4748979307997714 [Eh]
	 SCS Correlation Energy    =      -1.6132437884314912 [Eh]
	 SCS Total Energy          =    -414.2291897054818151 [Eh]
	-----------------------------------------------------------



Properties will be evaluated at   0.000000,  -0.000000,  -0.000000 [a0]

Properties computed using the MP2 density matrix

  Nuclear Dipole Moment: [e a0]
     X:     0.0224      Y:     3.7921      Z:     0.0406

  Electronic Dipole Moment: [e a0]
     X:     0.4409      Y:    -2.1452      Z:    -0.1004

  Dipole Moment: [e a0]
     X:     0.4633      Y:     1.6470      Z:    -0.0598     Total:     1.7119

  Dipole Moment: [D]
     X:     1.1777      Y:     4.1861      Z:    -0.1520     Total:     4.3513


*** tstop() called on node59.bme.utexas.edu at Sun Nov  8 19:28:15 2020
Module time:
	user time   =     270.25 seconds =       4.50 minutes
	system time =       7.02 seconds =       0.12 minutes
	total time  =         41 seconds =       0.68 minutes
Total time:
	user time   =     355.38 seconds =       5.92 minutes
	system time =      10.12 seconds =       0.17 minutes
	total time  =         53 seconds =       0.88 minutes

    Psi4 stopped on: Sunday, 08 November 2020 07:28PM
    Psi4 wall time for execution: 0:00:53.17

*** Psi4 exiting successfully. Buy a developer a beer!
