
    -----------------------------------------------------------------------
          Psi4: An Open-Source Ab Initio Electronic Structure Package
                               Psi4 1.3.2 release

                         Git: Rev {HEAD} ecbda83 


    R. M. Parrish, L. A. Burns, D. G. A. Smith, A. C. Simmonett,
    A. E. DePrince III, E. G. Hohenstein, U. Bozkaya, A. Yu. Sokolov,
    R. Di Remigio, R. M. Richard, J. F. Gonthier, A. M. James,
    H. R. McAlexander, A. Kumar, M. Saitow, X. Wang, B. P. Pritchard,
    P. Verma, H. F. Schaefer III, K. Patkowski, R. A. King, E. F. Valeev,
    F. A. Evangelista, J. M. Turney, T. D. Crawford, and C. D. Sherrill,
    J. Chem. Theory Comput. 13(7) pp 3185--3197 (2017).
    (doi: 10.1021/acs.jctc.7b00174)


                         Additional Contributions by
    P. Kraus, H. Kruse, M. H. Lechner, M. C. Schieber, R. A. Shaw,
    A. Alenaizan, R. Galvelis, Z. L. Glick, S. Lehtola, and J. P. Misiewicz

    -----------------------------------------------------------------------


    Psi4 started on: Thursday, 04 February 2021 12:52PM

    Process ID: 2450410
    Host:       node58.bme.utexas.edu
    PSIDATADIR: /home/xy3866/psi4conda/share/psi4
    Memory:     500.0 MiB
    Threads:    8
    
  ==> Input File <==

--------------------------------------------------------------------------
#psi4
#
memory 32 gb

molecule  {
0 1
  O       -2.5416370     0.0659770    -0.3927070
  N       -0.7122740    -1.2241950    -0.0249760
  C        1.8380290     0.7314390    -0.0343340
  C        1.7187040    -0.7521010    -0.3806110
  C        0.5749500     1.5632640    -0.2598230
  C        0.6466580    -1.4925250     0.4187290
  C       -0.6257670     1.1444980     0.6024810
  C       -1.3868420    -0.0349600     0.0307530
  H        2.6566510     1.1652070    -0.6217190
  H        2.1344690     0.8237010     1.0199600
  H        1.5025340    -0.8781880    -1.4483810
  H        2.6863370    -1.2343500    -0.1898600
  H        0.2863390     1.5300770    -1.3181450
  H        0.8108260     2.6104720    -0.0371320
  H        0.7923570    -2.5718330     0.3164690
  H        0.7525260    -1.2638240     1.4882170
  H       -1.4898591     2.1030299     0.6719872
  H       -0.2921570     0.9237120     1.6255030
  H       -1.2491170    -1.9758090    -0.4428220
units angstrom
no_reorient  #important for SAPT in psi4, default
symmetry c1  #important for SAPT in psi4, default
}

set PROPERTIES_ORIGIN ["COM"]
properties('MP2/aug-cc-pvtz', properties = ['dipole'])
--------------------------------------------------------------------------

  Memory set to  29.802 GiB by Python driver.
    SCF Algorithm Type (re)set to DF.

*** tstart() called on node58.bme.utexas.edu
*** at Thu Feb  4 12:52:30 2021

   => Loading Basis Set <=

    Name: AUG-CC-PVTZ
    Role: ORBITAL
    Keyword: BASIS
    atoms 1    entry O          line   327 file /home/xy3866/psi4conda/share/psi4/basis/aug-cc-pvtz.gbs 
    atoms 2    entry N          line   281 file /home/xy3866/psi4conda/share/psi4/basis/aug-cc-pvtz.gbs 
    atoms 3-8  entry C          line   235 file /home/xy3866/psi4conda/share/psi4/basis/aug-cc-pvtz.gbs 
    atoms 9-19 entry H          line    36 file /home/xy3866/psi4conda/share/psi4/basis/aug-cc-pvtz.gbs 


         ---------------------------------------------------------
                                   SCF
               by Justin Turney, Rob Parrish, Andy Simmonett
                          and Daniel G. A. Smith
                              RHF Reference
                        8 Threads,  30517 MiB Core
         ---------------------------------------------------------

  ==> Geometry <==

    Molecular point group: c1
    Full point group: C1

    Geometry (in Angstrom), charge = 0, multiplicity = 1:

       Center              X                  Y                   Z               Mass       
    ------------   -----------------  -----------------  -----------------  -----------------
         O           -2.463992299077     0.074200792120    -0.383578286040    15.994914619570
         N           -0.634629299077    -1.215971207880    -0.015847286040    14.003074004430
         C            1.915673700923     0.739662792120    -0.025205286040    12.000000000000
         C            1.796348700923    -0.743877207880    -0.371482286040    12.000000000000
         C            0.652594700923     1.571487792120    -0.250694286040    12.000000000000
         C            0.724302700923    -1.484301207880     0.427857713960    12.000000000000
         C           -0.548122299077     1.152721792120     0.611609713960    12.000000000000
         C           -1.309197299077    -0.026736207880     0.039881713960    12.000000000000
         H            2.734295700923     1.173430792120    -0.612590286040     1.007825032230
         H            2.212113700923     0.831924792120     1.029088713960     1.007825032230
         H            1.580178700923    -0.869964207880    -1.439252286040     1.007825032230
         H            2.763981700923    -1.226126207880    -0.180731286040     1.007825032230
         H            0.363983700923     1.538300792120    -1.309016286040     1.007825032230
         H            0.888470700923     2.618695792120    -0.028003286040     1.007825032230
         H            0.870001700923    -2.563609207880     0.325597713960     1.007825032230
         H            0.830170700923    -1.255600207880     1.497345713960     1.007825032230
         H           -1.412214399077     2.111253692120     0.681115913960     1.007825032230
         H           -0.214512299077     0.931935792120     1.634631713960     1.007825032230
         H           -1.171472299077    -1.967585207880    -0.433693286040     1.007825032230

  Running in c1 symmetry.

  Rotational constants: A =      0.10560  B =      0.06196  C =      0.04358 [cm^-1]
  Rotational constants: A =   3165.72788  B =   1857.42920  C =   1306.63871 [MHz]
  Nuclear repulsion =  393.152998407998894

  Charge       = 0
  Multiplicity = 1
  Electrons    = 62
  Nalpha       = 31
  Nbeta        = 31

  ==> Algorithm <==

  SCF Algorithm Type is DF.
  DIIS enabled.
  MOM disabled.
  Fractional occupation disabled.
  Guess Type is SAD.
  Energy threshold   = 1.00e-10
  Density threshold  = 1.00e-10
  Integral threshold = 0.00e+00

  ==> Primary Basis <==

  Basis Set: AUG-CC-PVTZ
    Blend: AUG-CC-PVTZ
    Number of shells: 211
    Number of basis function: 621
    Number of Cartesian functions: 715
    Spherical Harmonics?: true
    Max angular momentum: 3

   => Loading Basis Set <=

    Name: (AUG-CC-PVTZ AUX)
    Role: JKFIT
    Keyword: DF_BASIS_SCF
    atoms 1    entry O          line   286 file /home/xy3866/psi4conda/share/psi4/basis/aug-cc-pvtz-jkfit.gbs 
    atoms 2    entry N          line   224 file /home/xy3866/psi4conda/share/psi4/basis/aug-cc-pvtz-jkfit.gbs 
    atoms 3-8  entry C          line   162 file /home/xy3866/psi4conda/share/psi4/basis/aug-cc-pvtz-jkfit.gbs 
    atoms 9-19 entry H          line    70 file /home/xy3866/psi4conda/share/psi4/basis/aug-cc-pvtz-jkfit.gbs 

  ==> Pre-Iterations <==

   -------------------------------------------------------
    Irrep   Nso     Nmo     Nalpha   Nbeta   Ndocc  Nsocc
   -------------------------------------------------------
     A        621     621       0       0       0       0
   -------------------------------------------------------
    Total     621     621      31      31      31       0
   -------------------------------------------------------

  ==> Integral Setup <==

  DFHelper Memory: AOs need 3.863 GiB; user supplied 22.352 GiB. Using in-core AOs.

  ==> MemDFJK: Density-Fitted J/K Matrices <==

    J tasked:                   Yes
    K tasked:                   Yes
    wK tasked:                   No
    OpenMP threads:               8
    Memory [MiB]:             22888
    Algorithm:                 Disk
    Schwarz Cutoff:           1E-12
    Mask sparsity (%):       2.4748
    Fitting Condition:        1E-10

   => Auxiliary Basis Set <=

  Basis Set: (AUG-CC-PVTZ AUX)
    Blend: AUG-CC-PVTZ-JKFIT
    Number of shells: 394
    Number of basis function: 1338
    Number of Cartesian functions: 1653
    Spherical Harmonics?: true
    Max angular momentum: 4

  Minimum eigenvalue in the overlap matrix is 3.3630655314E-06.
  Using Symmetric Orthogonalization.

  SCF Guess: Superposition of Atomic Densities via on-the-fly atomic UHF.

  ==> Iterations <==

                           Total Energy        Delta E     RMS |[F,P]|

   @DF-RHF iter SAD:  -362.69772964054187   -3.62698e+02   0.00000e+00 
   @DF-RHF iter   1:  -362.73248837572510   -3.47587e-02   1.21155e-03 DIIS
   @DF-RHF iter   2:  -362.97668032549279   -2.44192e-01   6.81046e-04 DIIS
   @DF-RHF iter   3:  -363.04990929053793   -7.32290e-02   1.13199e-04 DIIS
   @DF-RHF iter   4:  -363.05407043796498   -4.16115e-03   4.63220e-05 DIIS
   @DF-RHF iter   5:  -363.05450668943774   -4.36251e-04   1.42398e-05 DIIS
   @DF-RHF iter   6:  -363.05457091068473   -6.42212e-05   4.36669e-06 DIIS
   @DF-RHF iter   7:  -363.05458073177613   -9.82109e-06   1.63482e-06 DIIS
   @DF-RHF iter   8:  -363.05458238276145   -1.65099e-06   6.74687e-07 DIIS
   @DF-RHF iter   9:  -363.05458265656910   -2.73808e-07   1.91379e-07 DIIS
   @DF-RHF iter  10:  -363.05458267476416   -1.81951e-08   6.02797e-08 DIIS
   @DF-RHF iter  11:  -363.05458267629808   -1.53392e-09   2.24409e-08 DIIS
   @DF-RHF iter  12:  -363.05458267647077   -1.72690e-10   6.03584e-09 DIIS
   @DF-RHF iter  13:  -363.05458267649226   -2.14868e-11   1.94220e-09 DIIS
   @DF-RHF iter  14:  -363.05458267649652   -4.26326e-12   8.84394e-10 DIIS
   @DF-RHF iter  15:  -363.05458267649817   -1.64846e-12   3.47532e-10 DIIS
   @DF-RHF iter  16:  -363.05458267649493    3.24007e-12   1.16560e-10 DIIS
   @DF-RHF iter  17:  -363.05458267649590   -9.66338e-13   3.63647e-11 DIIS
  Energy and wave function converged.


  ==> Post-Iterations <==

    Orbital Energies [Eh]
    ---------------------

    Doubly Occupied:                                                      

       1A    -20.508906     2A    -15.580229     3A    -11.344679  
       4A    -11.278439     5A    -11.257303     6A    -11.237915  
       7A    -11.235347     8A    -11.234334     9A     -1.363456  
      10A     -1.229497    11A     -1.093693    12A     -1.039373  
      13A     -0.940769    14A     -0.889402    15A     -0.796496  
      16A     -0.755887    17A     -0.688890    18A     -0.677184  
      19A     -0.626335    20A     -0.612623    21A     -0.600780  
      22A     -0.591229    23A     -0.556260    24A     -0.543674  
      25A     -0.516849    26A     -0.512834    27A     -0.481678  
      28A     -0.470939    29A     -0.457096    30A     -0.411159  
      31A     -0.383455  

    Virtual:                                                              

      32A      0.023220    33A      0.030145    34A      0.033611  
      35A      0.037587    36A      0.050174    37A      0.051620  
      38A      0.053750    39A      0.059553    40A      0.060971  
      41A      0.074008    42A      0.076616    43A      0.096941  
      44A      0.106719    45A      0.108872    46A      0.112018  
      47A      0.114077    48A      0.117110    49A      0.121682  
      50A      0.123587    51A      0.125597    52A      0.133616  
      53A      0.141731    54A      0.143067    55A      0.146011  
      56A      0.149851    57A      0.157108    58A      0.161265  
      59A      0.163110    60A      0.166736    61A      0.174722  
      62A      0.181346    63A      0.186825    64A      0.198945  
      65A      0.205494    66A      0.215391    67A      0.222217  
      68A      0.224783    69A      0.233285    70A      0.243382  
      71A      0.253487    72A      0.262908    73A      0.266362  
      74A      0.278098    75A      0.282853    76A      0.284537  
      77A      0.288854    78A      0.295402    79A      0.302544  
      80A      0.303637    81A      0.305048    82A      0.312074  
      83A      0.317523    84A      0.320200    85A      0.331186  
      86A      0.337710    87A      0.340177    88A      0.345756  
      89A      0.349362    90A      0.355493    91A      0.359463  
      92A      0.363766    93A      0.367223    94A      0.370976  
      95A      0.373805    96A      0.378778    97A      0.379957  
      98A      0.391006    99A      0.394760   100A      0.404369  
     101A      0.409754   102A      0.414590   103A      0.423176  
     104A      0.430714   105A      0.434146   106A      0.441735  
     107A      0.446831   108A      0.449216   109A      0.450813  
     110A      0.459581   111A      0.464012   112A      0.468170  
     113A      0.470435   114A      0.477153   115A      0.481795  
     116A      0.491809   117A      0.492535   118A      0.494068  
     119A      0.499734   120A      0.505054   121A      0.513334  
     122A      0.515114   123A      0.525572   124A      0.526717  
     125A      0.530785   126A      0.535867   127A      0.548320  
     128A      0.550810   129A      0.559976   130A      0.566230  
     131A      0.570133   132A      0.575980   133A      0.577122  
     134A      0.584876   135A      0.593640   136A      0.599568  
     137A      0.607404   138A      0.616860   139A      0.620508  
     140A      0.625147   141A      0.625985   142A      0.640391  
     143A      0.641288   144A      0.645939   145A      0.658466  
     146A      0.667147   147A      0.671117   148A      0.680931  
     149A      0.684761   150A      0.686062   151A      0.697395  
     152A      0.700271   153A      0.704319   154A      0.708259  
     155A      0.721356   156A      0.739086   157A      0.747087  
     158A      0.750193   159A      0.754502   160A      0.775597  
     161A      0.785513   162A      0.791950   163A      0.809235  
     164A      0.813843   165A      0.821812   166A      0.826659  
     167A      0.834428   168A      0.841534   169A      0.850677  
     170A      0.855030   171A      0.864515   172A      0.874282  
     173A      0.875944   174A      0.884973   175A      0.885222  
     176A      0.906539   177A      0.909695   178A      0.919487  
     179A      0.923487   180A      0.926837   181A      0.932785  
     182A      0.940530   183A      0.947500   184A      0.953067  
     185A      0.953660   186A      0.966329   187A      0.971134  
     188A      0.978814   189A      0.984926   190A      0.991662  
     191A      0.999040   192A      1.010784   193A      1.014997  
     194A      1.032993   195A      1.038086   196A      1.041096  
     197A      1.045086   198A      1.047458   199A      1.060785  
     200A      1.067702   201A      1.074485   202A      1.078976  
     203A      1.085174   204A      1.087290   205A      1.095642  
     206A      1.104410   207A      1.108012   208A      1.122942  
     209A      1.128292   210A      1.132828   211A      1.134538  
     212A      1.138831   213A      1.145500   214A      1.159746  
     215A      1.163589   216A      1.174709   217A      1.185414  
     218A      1.187835   219A      1.194694   220A      1.202945  
     221A      1.207408   222A      1.210992   223A      1.232543  
     224A      1.234080   225A      1.240336   226A      1.252471  
     227A      1.257544   228A      1.263002   229A      1.269471  
     230A      1.274476   231A      1.276409   232A      1.284308  
     233A      1.302786   234A      1.311216   235A      1.316133  
     236A      1.324342   237A      1.328709   238A      1.332030  
     239A      1.339621   240A      1.360640   241A      1.361618  
     242A      1.375183   243A      1.379976   244A      1.387621  
     245A      1.393220   246A      1.402713   247A      1.418922  
     248A      1.427102   249A      1.434616   250A      1.441997  
     251A      1.456242   252A      1.466085   253A      1.471794  
     254A      1.472232   255A      1.485322   256A      1.492095  
     257A      1.498141   258A      1.504083   259A      1.515416  
     260A      1.523279   261A      1.535724   262A      1.545600  
     263A      1.556942   264A      1.563495   265A      1.573446  
     266A      1.576346   267A      1.592369   268A      1.601807  
     269A      1.604301   270A      1.610818   271A      1.618783  
     272A      1.630748   273A      1.641015   274A      1.654258  
     275A      1.659686   276A      1.663032   277A      1.664549  
     278A      1.679027   279A      1.703792   280A      1.707641  
     281A      1.714098   282A      1.717499   283A      1.729648  
     284A      1.735232   285A      1.738811   286A      1.747419  
     287A      1.763095   288A      1.769445   289A      1.777958  
     290A      1.781321   291A      1.793703   292A      1.804100  
     293A      1.815905   294A      1.819890   295A      1.835161  
     296A      1.836949   297A      1.847791   298A      1.852397  
     299A      1.856404   300A      1.868452   301A      1.881044  
     302A      1.896121   303A      1.905724   304A      1.913861  
     305A      1.919544   306A      1.925753   307A      1.941700  
     308A      1.947441   309A      1.952746   310A      1.964284  
     311A      1.969274   312A      1.976656   313A      1.985079  
     314A      1.989521   315A      2.004448   316A      2.013265  
     317A      2.022515   318A      2.030994   319A      2.039968  
     320A      2.046483   321A      2.066497   322A      2.071412  
     323A      2.077028   324A      2.094974   325A      2.108653  
     326A      2.120205   327A      2.124670   328A      2.143568  
     329A      2.153790   330A      2.187133   331A      2.195533  
     332A      2.199617   333A      2.215139   334A      2.228434  
     335A      2.239891   336A      2.254149   337A      2.258344  
     338A      2.286957   339A      2.293398   340A      2.303710  
     341A      2.311677   342A      2.326015   343A      2.330904  
     344A      2.335324   345A      2.341793   346A      2.353050  
     347A      2.370859   348A      2.389262   349A      2.397367  
     350A      2.402926   351A      2.433570   352A      2.440227  
     353A      2.451999   354A      2.468634   355A      2.474149  
     356A      2.490673   357A      2.507541   358A      2.530342  
     359A      2.540644   360A      2.558945   361A      2.583104  
     362A      2.594770   363A      2.601579   364A      2.606375  
     365A      2.610713   366A      2.618158   367A      2.638377  
     368A      2.639880   369A      2.669723   370A      2.676619  
     371A      2.711018   372A      2.724084   373A      2.728295  
     374A      2.760595   375A      2.779099   376A      2.810506  
     377A      2.821084   378A      2.823314   379A      2.838898  
     380A      2.871366   381A      2.882627   382A      2.901752  
     383A      2.968254   384A      2.984281   385A      3.036872  
     386A      3.093969   387A      3.096870   388A      3.119436  
     389A      3.128122   390A      3.161909   391A      3.190965  
     392A      3.262278   393A      3.271439   394A      3.363161  
     395A      3.379027   396A      3.408388   397A      3.420271  
     398A      3.457990   399A      3.468029   400A      3.482123  
     401A      3.497546   402A      3.512501   403A      3.536099  
     404A      3.547879   405A      3.565928   406A      3.582429  
     407A      3.590687   408A      3.611094   409A      3.626044  
     410A      3.637743   411A      3.669431   412A      3.691882  
     413A      3.700471   414A      3.708031   415A      3.722185  
     416A      3.736826   417A      3.752995   418A      3.754865  
     419A      3.769003   420A      3.780737   421A      3.783040  
     422A      3.797766   423A      3.804519   424A      3.820967  
     425A      3.822319   426A      3.834101   427A      3.856167  
     428A      3.869400   429A      3.872962   430A      3.881200  
     431A      3.897223   432A      3.898352   433A      3.915801  
     434A      3.928919   435A      3.935292   436A      3.948535  
     437A      3.954665   438A      3.961088   439A      3.969300  
     440A      3.996248   441A      4.005835   442A      4.016612  
     443A      4.020732   444A      4.032056   445A      4.048033  
     446A      4.064776   447A      4.084319   448A      4.098399  
     449A      4.114217   450A      4.123684   451A      4.128345  
     452A      4.143408   453A      4.150140   454A      4.163774  
     455A      4.168797   456A      4.178353   457A      4.192843  
     458A      4.205914   459A      4.214030   460A      4.222308  
     461A      4.240398   462A      4.251037   463A      4.267280  
     464A      4.273657   465A      4.284641   466A      4.291971  
     467A      4.302299   468A      4.320885   469A      4.333249  
     470A      4.343463   471A      4.365272   472A      4.369096  
     473A      4.385938   474A      4.410850   475A      4.445413  
     476A      4.450962   477A      4.459181   478A      4.471672  
     479A      4.494961   480A      4.506372   481A      4.528255  
     482A      4.542775   483A      4.550444   484A      4.561208  
     485A      4.585113   486A      4.596758   487A      4.612648  
     488A      4.618499   489A      4.640260   490A      4.653391  
     491A      4.669387   492A      4.680490   493A      4.715013  
     494A      4.730226   495A      4.738781   496A      4.746023  
     497A      4.770164   498A      4.778541   499A      4.791701  
     500A      4.803067   501A      4.818613   502A      4.829502  
     503A      4.838248   504A      4.856917   505A      4.872459  
     506A      4.894721   507A      4.905116   508A      4.911411  
     509A      4.935072   510A      4.944455   511A      4.967738  
     512A      4.974073   513A      5.011215   514A      5.013817  
     515A      5.030887   516A      5.041586   517A      5.072411  
     518A      5.080210   519A      5.087983   520A      5.099716  
     521A      5.118534   522A      5.142980   523A      5.155751  
     524A      5.171498   525A      5.184831   526A      5.199179  
     527A      5.211928   528A      5.227852   529A      5.238243  
     530A      5.262021   531A      5.263604   532A      5.289867  
     533A      5.300321   534A      5.314758   535A      5.331214  
     536A      5.353051   537A      5.356510   538A      5.384097  
     539A      5.390955   540A      5.404902   541A      5.413089  
     542A      5.439626   543A      5.453770   544A      5.480866  
     545A      5.500671   546A      5.511791   547A      5.521596  
     548A      5.541270   549A      5.560426   550A      5.591313  
     551A      5.595513   552A      5.612235   553A      5.634610  
     554A      5.645537   555A      5.654965   556A      5.670066  
     557A      5.678447   558A      5.702369   559A      5.710327  
     560A      5.735104   561A      5.737104   562A      5.759011  
     563A      5.796304   564A      5.818356   565A      5.841809  
     566A      5.860864   567A      5.875657   568A      5.907426  
     569A      5.935007   570A      5.947137   571A      5.963063  
     572A      6.017901   573A      6.051989   574A      6.063726  
     575A      6.107672   576A      6.148595   577A      6.175406  
     578A      6.194407   579A      6.221582   580A      6.235030  
     581A      6.262059   582A      6.298058   583A      6.319893  
     584A      6.343082   585A      6.396311   586A      6.437394  
     587A      6.503631   588A      6.560407   589A      6.604400  
     590A      6.634917   591A      6.693823   592A      6.715830  
     593A      6.747591   594A      6.755222   595A      6.808332  
     596A      6.841882   597A      6.880150   598A      6.935460  
     599A      6.955024   600A      7.013350   601A      7.036866  
     602A      7.066368   603A      7.085085   604A      7.257210  
     605A      7.282352   606A      7.458559   607A      7.496811  
     608A      7.577618   609A      7.677487   610A      7.789821  
     611A      7.856856   612A      7.989418   613A      8.047344  
     614A     15.818607   615A     17.279675   616A     17.573221  
     617A     17.887781   618A     18.381563   619A     19.024159  
     620A     19.367876   621A     20.772169  

    Final Occupation by Irrep:
              A 
    DOCC [    31 ]

  @DF-RHF Final Energy:  -363.05458267649590

   => Energetics <=

    Nuclear Repulsion Energy =            393.1529984079988935
    One-Electron Energy =               -1272.5817375672702383
    Two-Electron Energy =                 516.3741564827754473
    Total Energy =                       -363.0545826764958974

Computation Completed

*** tstop() called on node58.bme.utexas.edu at Thu Feb  4 12:53:26 2021
Module time:
	user time   =     244.44 seconds =       4.07 minutes
	system time =      33.00 seconds =       0.55 minutes
	total time  =         56 seconds =       0.93 minutes
Total time:
	user time   =     244.44 seconds =       4.07 minutes
	system time =      33.00 seconds =       0.55 minutes
	total time  =         56 seconds =       0.93 minutes
   => Loading Basis Set <=

    Name: (AUG-CC-PVTZ AUX)
    Role: RIFIT
    Keyword: DF_BASIS_MP2
    atoms 1    entry O          line   264 file /home/xy3866/psi4conda/share/psi4/basis/aug-cc-pvtz-ri.gbs 
    atoms 2    entry N          line   206 file /home/xy3866/psi4conda/share/psi4/basis/aug-cc-pvtz-ri.gbs 
    atoms 3-8  entry C          line   148 file /home/xy3866/psi4conda/share/psi4/basis/aug-cc-pvtz-ri.gbs 
    atoms 9-19 entry H          line    30 file /home/xy3866/psi4conda/share/psi4/basis/aug-cc-pvtz-ri.gbs 


*** tstart() called on node58.bme.utexas.edu
*** at Thu Feb  4 12:53:27 2021


  //>>>>>>>>>>>>>>>>>>>>>>>>>>>>>>>>>>>//
  //               DFMP2               //
  //<<<<<<<<<<<<<<<<<<<<<<<<<<<<<<<<<<<//

	 --------------------------------------------------------
	                          DF-MP2                         
	      2nd-Order Density-Fitted Moller-Plesset Theory     
	              RMP2 Wavefunction,   8 Threads             
	                                                         
	        Rob Parrish, Justin Turney, Andy Simmonett,      
	           Ed Hohenstein, and C. David Sherrill          
	 --------------------------------------------------------

   => Auxiliary Basis Set <=

  Basis Set: (AUG-CC-PVTZ AUX)
    Blend: AUG-CC-PVTZ-RI
    Number of shells: 378
    Number of basis function: 1354
    Number of Cartesian functions: 1693
    Spherical Harmonics?: true
    Max angular momentum: 4

	 --------------------------------------------------------
	                 NBF =   621, NAUX =  1354
	 --------------------------------------------------------
	   CLASS    FOCC     OCC    AOCC    AVIR     VIR    FVIR
	   PAIRS       0      31      31     590     590       0
	 --------------------------------------------------------

  DFHelper Memory: AOs need 3.863 GiB; user supplied 22.352 GiB. Using in-core AOs.


         ------------------------------------------------------------
                                     CPHF                           
                                  Rob Parrish                       
         ------------------------------------------------------------

  ==> Geometry <==

    Molecular point group: c1
    Full point group: C1

    Geometry (in Angstrom), charge = 0, multiplicity = 1:

       Center              X                  Y                   Z               Mass       
    ------------   -----------------  -----------------  -----------------  -----------------
         O           -2.463992299077     0.074200792120    -0.383578286040    15.994914619570
         N           -0.634629299077    -1.215971207880    -0.015847286040    14.003074004430
         C            1.915673700923     0.739662792120    -0.025205286040    12.000000000000
         C            1.796348700923    -0.743877207880    -0.371482286040    12.000000000000
         C            0.652594700923     1.571487792120    -0.250694286040    12.000000000000
         C            0.724302700923    -1.484301207880     0.427857713960    12.000000000000
         C           -0.548122299077     1.152721792120     0.611609713960    12.000000000000
         C           -1.309197299077    -0.026736207880     0.039881713960    12.000000000000
         H            2.734295700923     1.173430792120    -0.612590286040     1.007825032230
         H            2.212113700923     0.831924792120     1.029088713960     1.007825032230
         H            1.580178700923    -0.869964207880    -1.439252286040     1.007825032230
         H            2.763981700923    -1.226126207880    -0.180731286040     1.007825032230
         H            0.363983700923     1.538300792120    -1.309016286040     1.007825032230
         H            0.888470700923     2.618695792120    -0.028003286040     1.007825032230
         H            0.870001700923    -2.563609207880     0.325597713960     1.007825032230
         H            0.830170700923    -1.255600207880     1.497345713960     1.007825032230
         H           -1.412214399077     2.111253692120     0.681115913960     1.007825032230
         H           -0.214512299077     0.931935792120     1.634631713960     1.007825032230
         H           -1.171472299077    -1.967585207880    -0.433693286040     1.007825032230

  Nuclear repulsion =  393.152998407998894
  Reference energy  = -363.054582676495897

  ==> Basis Set <==

  Basis Set: AUG-CC-PVTZ
    Blend: AUG-CC-PVTZ
    Number of shells: 211
    Number of basis function: 621
    Number of Cartesian functions: 715
    Spherical Harmonics?: true
    Max angular momentum: 3

  ==> CGRSolver (by Rob Parrish) <==

   Number of roots    =         1
   Preconditioning    =    JACOBI
   Convergence cutoff =     1E-06
   Maximum iterations =       100

  ==> CPHFRHamiltonian (by Rob Parrish) <== 

  ==> MemDFJK: Density-Fitted J/K Matrices <==

    J tasked:                   Yes
    K tasked:                   Yes
    wK tasked:                   No
    OpenMP threads:               8
    Memory [MiB]:             22888
    Algorithm:                 Disk
    Schwarz Cutoff:           1E-12
    Mask sparsity (%):       2.4748
    Fitting Condition:        1E-10

   => Auxiliary Basis Set <=

  Basis Set: (AUG-CC-PVTZ AUX)
    Blend: AUG-CC-PVTZ-JKFIT
    Number of shells: 394
    Number of basis function: 1338
    Number of Cartesian functions: 1653
    Spherical Harmonics?: true
    Max angular momentum: 4

  ==> CPHF Iterations <==

  => Iterations <=

             Iter  Converged  Remaining    Residual
  CGR           1          0          1   1.196E-01
  CGR           2          0          1   3.295E-02
  CGR           3          0          1   1.348E-02
  CGR           4          0          1   3.671E-03
  CGR           5          0          1   1.113E-03
  CGR           6          0          1   3.340E-04
  CGR           7          0          1   1.091E-04
  CGR           8          0          1   3.139E-05
  CGR           9          0          1   1.219E-05
  CGR          10          0          1   4.388E-06
  CGR          11          0          1   1.367E-06
  CGR          12          1          0   4.440E-07

    CGRSolver converged.

	-----------------------------------------------------------
	 ==================> DF-MP2 Energies <==================== 
	-----------------------------------------------------------
	 Reference Energy          =    -363.0545826764958974 [Eh]
	 Singles Energy            =      -0.0000000000000000 [Eh]
	 Same-Spin Energy          =      -0.3779959050482884 [Eh]
	 Opposite-Spin Energy      =      -1.2496915250872458 [Eh]
	 Correlation Energy        =      -1.6276874301355342 [Eh]
	 Total Energy              =    -364.6822701066314494 [Eh]
	-----------------------------------------------------------
	 ================> DF-SCS-MP2 Energies <================== 
	-----------------------------------------------------------
	 SCS Same-Spin Scale       =       0.3333333333333333 [-]
	 SCS Opposite-Spin Scale   =       1.2000000000000000 [-]
	 SCS Same-Spin Energy      =      -0.1259986350160961 [Eh]
	 SCS Opposite-Spin Energy  =      -1.4996298301046949 [Eh]
	 SCS Correlation Energy    =      -1.6256284651207911 [Eh]
	 SCS Total Energy          =    -364.6802111416166667 [Eh]
	-----------------------------------------------------------



Properties will be evaluated at  -0.000000,   0.000000,  -0.000000 [a0]

Properties computed using the MP2 density matrix

  Nuclear Dipole Moment: [e a0]
     X:     8.8444      Y:     1.2438      Z:     1.0899

  Electronic Dipole Moment: [e a0]
     X:    -7.2194      Y:    -1.6800      Z:    -0.7523

  Dipole Moment: [e a0]
     X:     1.6250      Y:    -0.4361      Z:     0.3376     Total:     1.7160

  Dipole Moment: [D]
     X:     4.1303      Y:    -1.1085      Z:     0.8580     Total:     4.3617


*** tstop() called on node58.bme.utexas.edu at Thu Feb  4 12:55:25 2021
Module time:
	user time   =     695.70 seconds =      11.60 minutes
	system time =      35.03 seconds =       0.58 minutes
	total time  =        118 seconds =       1.97 minutes
Total time:
	user time   =     940.30 seconds =      15.67 minutes
	system time =      68.03 seconds =       1.13 minutes
	total time  =        175 seconds =       2.92 minutes

    Psi4 stopped on: Thursday, 04 February 2021 12:55PM
    Psi4 wall time for execution: 0:02:54.93

*** Psi4 exiting successfully. Buy a developer a beer!
