
    -----------------------------------------------------------------------
          Psi4: An Open-Source Ab Initio Electronic Structure Package
                               Psi4 1.3.2 release

                         Git: Rev {HEAD} ecbda83 


    R. M. Parrish, L. A. Burns, D. G. A. Smith, A. C. Simmonett,
    A. E. DePrince III, E. G. Hohenstein, U. Bozkaya, A. Yu. Sokolov,
    R. Di Remigio, R. M. Richard, J. F. Gonthier, A. M. James,
    H. R. McAlexander, A. Kumar, M. Saitow, X. Wang, B. P. Pritchard,
    P. Verma, H. F. Schaefer III, K. Patkowski, R. A. King, E. F. Valeev,
    F. A. Evangelista, J. M. Turney, T. D. Crawford, and C. D. Sherrill,
    J. Chem. Theory Comput. 13(7) pp 3185--3197 (2017).
    (doi: 10.1021/acs.jctc.7b00174)


                         Additional Contributions by
    P. Kraus, H. Kruse, M. H. Lechner, M. C. Schieber, R. A. Shaw,
    A. Alenaizan, R. Galvelis, Z. L. Glick, S. Lehtola, and J. P. Misiewicz

    -----------------------------------------------------------------------


    Psi4 started on: Thursday, 04 February 2021 01:09PM

    Process ID: 2454072
    Host:       node58.bme.utexas.edu
    PSIDATADIR: /home/xy3866/psi4conda/share/psi4
    Memory:     500.0 MiB
    Threads:    8
    
  ==> Input File <==

--------------------------------------------------------------------------
#psi4
#
memory 32 gb

molecule  {
0 1
  O       -2.5416370     0.0659770    -0.3927070
  N       -0.7122740    -1.2241950    -0.0249760
  C        1.8380290     0.7314390    -0.0343340
  C        1.7187040    -0.7521010    -0.3806110
  C        0.5749500     1.5632640    -0.2598230
  C        0.6466580    -1.4925250     0.4187290
  C       -0.6233062     1.0956373     0.5805113
  C       -1.3868420    -0.0349600     0.0307530
  H        2.6566510     1.1652070    -0.6217190
  H        2.1344690     0.8237010     1.0199600
  H        1.5025340    -0.8781880    -1.4483810
  H        2.6863370    -1.2343500    -0.1898600
  H        0.2863390     1.5300770    -1.3181450
  H        0.8108260     2.6104720    -0.0371320
  H        0.7923570    -2.5718330     0.3164690
  H        0.7525260    -1.2638240     1.4882170
  H       -1.3561390     1.9546950     0.6612310
  H       -0.2921570     0.9237120     1.6255030
  H       -1.2491170    -1.9758090    -0.4428220
units angstrom
no_reorient  #important for SAPT in psi4, default
symmetry c1  #important for SAPT in psi4, default
}

set PROPERTIES_ORIGIN ["COM"]
properties('MP2/aug-cc-pvtz', properties = ['dipole'])
--------------------------------------------------------------------------

  Memory set to  29.802 GiB by Python driver.
    SCF Algorithm Type (re)set to DF.

*** tstart() called on node58.bme.utexas.edu
*** at Thu Feb  4 13:09:58 2021

   => Loading Basis Set <=

    Name: AUG-CC-PVTZ
    Role: ORBITAL
    Keyword: BASIS
    atoms 1    entry O          line   327 file /home/xy3866/psi4conda/share/psi4/basis/aug-cc-pvtz.gbs 
    atoms 2    entry N          line   281 file /home/xy3866/psi4conda/share/psi4/basis/aug-cc-pvtz.gbs 
    atoms 3-8  entry C          line   235 file /home/xy3866/psi4conda/share/psi4/basis/aug-cc-pvtz.gbs 
    atoms 9-19 entry H          line    36 file /home/xy3866/psi4conda/share/psi4/basis/aug-cc-pvtz.gbs 


         ---------------------------------------------------------
                                   SCF
               by Justin Turney, Rob Parrish, Andy Simmonett
                          and Daniel G. A. Smith
                              RHF Reference
                        8 Threads,  30517 MiB Core
         ---------------------------------------------------------

  ==> Geometry <==

    Molecular point group: c1
    Full point group: C1

    Geometry (in Angstrom), charge = 0, multiplicity = 1:

       Center              X                  Y                   Z               Mass       
    ------------   -----------------  -----------------  -----------------  -----------------
         O           -2.465445165717     0.080707668504    -0.381151093756    15.994914619570
         N           -0.636082165717    -1.209464331496    -0.013420093756    14.003074004430
         C            1.914220834283     0.746169668504    -0.022778093756    12.000000000000
         C            1.794895834283    -0.737370331496    -0.369055093756    12.000000000000
         C            0.651141834283     1.577994668504    -0.248267093756    12.000000000000
         C            0.722849834283    -1.477794331496     0.430284906244    12.000000000000
         C           -0.547114365717     1.110367968504     0.592067206244    12.000000000000
         C           -1.310650165717    -0.020229331496     0.042308906244    12.000000000000
         H            2.732842834283     1.179937668504    -0.610163093756     1.007825032230
         H            2.210660834283     0.838431668504     1.031515906244     1.007825032230
         H            1.578725834283    -0.863457331496    -1.436825093756     1.007825032230
         H            2.762528834283    -1.219619331496    -0.178304093756     1.007825032230
         H            0.362530834283     1.544807668504    -1.306589093756     1.007825032230
         H            0.887017834283     2.625202668504    -0.025576093756     1.007825032230
         H            0.868548834283    -2.557102331496     0.328024906244     1.007825032230
         H            0.828717834283    -1.249093331496     1.499772906244     1.007825032230
         H           -1.279947165717     1.969425668504     0.672786906244     1.007825032230
         H           -0.215965165717     0.938442668504     1.637058906244     1.007825032230
         H           -1.172925165717    -1.961078331496    -0.431266093756     1.007825032230

  Running in c1 symmetry.

  Rotational constants: A =      0.10713  B =      0.06212  C =      0.04385 [cm^-1]
  Rotational constants: A =   3211.61706  B =   1862.42735  C =   1314.51342 [MHz]
  Nuclear repulsion =  394.932089781527907

  Charge       = 0
  Multiplicity = 1
  Electrons    = 62
  Nalpha       = 31
  Nbeta        = 31

  ==> Algorithm <==

  SCF Algorithm Type is DF.
  DIIS enabled.
  MOM disabled.
  Fractional occupation disabled.
  Guess Type is SAD.
  Energy threshold   = 1.00e-10
  Density threshold  = 1.00e-10
  Integral threshold = 0.00e+00

  ==> Primary Basis <==

  Basis Set: AUG-CC-PVTZ
    Blend: AUG-CC-PVTZ
    Number of shells: 211
    Number of basis function: 621
    Number of Cartesian functions: 715
    Spherical Harmonics?: true
    Max angular momentum: 3

   => Loading Basis Set <=

    Name: (AUG-CC-PVTZ AUX)
    Role: JKFIT
    Keyword: DF_BASIS_SCF
    atoms 1    entry O          line   286 file /home/xy3866/psi4conda/share/psi4/basis/aug-cc-pvtz-jkfit.gbs 
    atoms 2    entry N          line   224 file /home/xy3866/psi4conda/share/psi4/basis/aug-cc-pvtz-jkfit.gbs 
    atoms 3-8  entry C          line   162 file /home/xy3866/psi4conda/share/psi4/basis/aug-cc-pvtz-jkfit.gbs 
    atoms 9-19 entry H          line    70 file /home/xy3866/psi4conda/share/psi4/basis/aug-cc-pvtz-jkfit.gbs 

  ==> Pre-Iterations <==

   -------------------------------------------------------
    Irrep   Nso     Nmo     Nalpha   Nbeta   Ndocc  Nsocc
   -------------------------------------------------------
     A        621     621       0       0       0       0
   -------------------------------------------------------
    Total     621     621      31      31      31       0
   -------------------------------------------------------

  ==> Integral Setup <==

  DFHelper Memory: AOs need 3.866 GiB; user supplied 22.352 GiB. Using in-core AOs.

  ==> MemDFJK: Density-Fitted J/K Matrices <==

    J tasked:                   Yes
    K tasked:                   Yes
    wK tasked:                   No
    OpenMP threads:               8
    Memory [MiB]:             22888
    Algorithm:                 Disk
    Schwarz Cutoff:           1E-12
    Mask sparsity (%):       2.3908
    Fitting Condition:        1E-10

   => Auxiliary Basis Set <=

  Basis Set: (AUG-CC-PVTZ AUX)
    Blend: AUG-CC-PVTZ-JKFIT
    Number of shells: 394
    Number of basis function: 1338
    Number of Cartesian functions: 1653
    Spherical Harmonics?: true
    Max angular momentum: 4

  Minimum eigenvalue in the overlap matrix is 2.9767483425E-06.
  Using Symmetric Orthogonalization.

  SCF Guess: Superposition of Atomic Densities via on-the-fly atomic UHF.

  ==> Iterations <==

                           Total Energy        Delta E     RMS |[F,P]|

   @DF-RHF iter SAD:  -362.85035553157473   -3.62850e+02   0.00000e+00 
   @DF-RHF iter   1:  -362.75208743557874    9.82681e-02   1.20961e-03 DIIS
   @DF-RHF iter   2:  -362.99636401884680   -2.44277e-01   6.68973e-04 DIIS
   @DF-RHF iter   3:  -363.06689786680533   -7.05338e-02   1.14092e-04 DIIS
   @DF-RHF iter   4:  -363.07100785934074   -4.10999e-03   4.63774e-05 DIIS
   @DF-RHF iter   5:  -363.07144552378367   -4.37664e-04   1.42594e-05 DIIS
   @DF-RHF iter   6:  -363.07150818988777   -6.26661e-05   4.39779e-06 DIIS
   @DF-RHF iter   7:  -363.07151767877127   -9.48888e-06   1.63446e-06 DIIS
   @DF-RHF iter   8:  -363.07151929931564   -1.62054e-06   7.11764e-07 DIIS
   @DF-RHF iter   9:  -363.07151960103118   -3.01716e-07   1.99254e-07 DIIS
   @DF-RHF iter  10:  -363.07151962091132   -1.98801e-08   6.43380e-08 DIIS
   @DF-RHF iter  11:  -363.07151962269120   -1.77988e-09   2.23651e-08 DIIS
   @DF-RHF iter  12:  -363.07151962287378   -1.82581e-10   6.12519e-09 DIIS
   @DF-RHF iter  13:  -363.07151962289640   -2.26237e-11   2.06640e-09 DIIS
   @DF-RHF iter  14:  -363.07151962289731   -9.09495e-13   9.14940e-10 DIIS
   @DF-RHF iter  15:  -363.07151962289930   -1.98952e-12   3.49570e-10 DIIS
   @DF-RHF iter  16:  -363.07151962289748    1.81899e-12   1.15990e-10 DIIS
   @DF-RHF iter  17:  -363.07151962289913   -1.64846e-12   3.72866e-11 DIIS
  Energy and wave function converged.


  ==> Post-Iterations <==

    Orbital Energies [Eh]
    ---------------------

    Doubly Occupied:                                                      

       1A    -20.509423     2A    -15.578017     3A    -11.341848  
       4A    -11.277251     5A    -11.237939     6A    -11.237255  
       7A    -11.234400     8A    -11.232688     9A     -1.364809  
      10A     -1.229144    11A     -1.094642    12A     -1.044861  
      13A     -0.946498    14A     -0.891929    15A     -0.796373  
      16A     -0.761373    17A     -0.689319    18A     -0.680095  
      19A     -0.627282    20A     -0.611903    21A     -0.600337  
      22A     -0.594051    23A     -0.566749    24A     -0.546415  
      25A     -0.517720    26A     -0.513574    27A     -0.480749  
      28A     -0.470047    29A     -0.465102    30A     -0.415013  
      31A     -0.382673  

    Virtual:                                                              

      32A      0.023536    33A      0.030114    34A      0.033589  
      35A      0.037660    36A      0.050152    37A      0.051455  
      38A      0.053822    39A      0.059597    40A      0.060993  
      41A      0.073938    42A      0.076872    43A      0.096955  
      44A      0.106919    45A      0.108996    46A      0.112170  
      47A      0.114038    48A      0.117271    49A      0.121548  
      50A      0.123557    51A      0.125491    52A      0.133771  
      53A      0.141861    54A      0.142983    55A      0.146617  
      56A      0.150108    57A      0.157315    58A      0.161749  
      59A      0.163382    60A      0.167081    61A      0.174171  
      62A      0.180348    63A      0.187815    64A      0.201149  
      65A      0.205770    66A      0.216900    67A      0.222913  
      68A      0.225240    69A      0.234376    70A      0.244715  
      71A      0.254581    72A      0.263504    73A      0.265146  
      74A      0.278885    75A      0.283155    76A      0.284367  
      77A      0.291889    78A      0.297455    79A      0.303030  
      80A      0.303954    81A      0.306668    82A      0.312107  
      83A      0.319367    84A      0.324929    85A      0.334772  
      86A      0.338856    87A      0.341553    88A      0.348582  
      89A      0.350014    90A      0.357865    91A      0.361266  
      92A      0.363741    93A      0.367591    94A      0.371691  
      95A      0.375150    96A      0.379652    97A      0.381016  
      98A      0.392486    99A      0.396012   100A      0.405729  
     101A      0.412835   102A      0.415602   103A      0.423911  
     104A      0.430879   105A      0.434890   106A      0.443293  
     107A      0.447725   108A      0.451048   109A      0.452808  
     110A      0.464634   111A      0.466208   112A      0.470423  
     113A      0.473877   114A      0.478895   115A      0.482146  
     116A      0.493194   117A      0.495203   118A      0.499941  
     119A      0.504778   120A      0.506666   121A      0.513497  
     122A      0.516514   123A      0.524943   124A      0.528214  
     125A      0.531655   126A      0.536695   127A      0.548937  
     128A      0.554932   129A      0.561138   130A      0.566952  
     131A      0.573417   132A      0.576958   133A      0.578230  
     134A      0.584551   135A      0.596434   136A      0.600970  
     137A      0.607916   138A      0.616609   139A      0.623801  
     140A      0.626828   141A      0.628051   142A      0.639470  
     143A      0.643265   144A      0.648621   145A      0.660896  
     146A      0.666074   147A      0.676455   148A      0.683648  
     149A      0.685124   150A      0.686479   151A      0.698300  
     152A      0.700053   153A      0.705706   154A      0.710010  
     155A      0.722930   156A      0.743753   157A      0.748377  
     158A      0.752791   159A      0.764389   160A      0.780615  
     161A      0.788680   162A      0.793081   163A      0.810790  
     164A      0.816447   165A      0.825185   166A      0.830381  
     167A      0.839151   168A      0.842708   169A      0.854490  
     170A      0.860337   171A      0.869869   172A      0.878596  
     173A      0.883116   174A      0.884605   175A      0.886706  
     176A      0.905464   177A      0.909947   178A      0.918860  
     179A      0.925017   180A      0.930529   181A      0.933341  
     182A      0.941377   183A      0.950524   184A      0.952986  
     185A      0.955855   186A      0.969154   187A      0.974895  
     188A      0.978917   189A      0.988112   190A      0.990067  
     191A      1.006954   192A      1.010160   193A      1.012863  
     194A      1.037848   195A      1.039002   196A      1.041325  
     197A      1.045695   198A      1.050612   199A      1.060549  
     200A      1.070678   201A      1.074492   202A      1.075202  
     203A      1.087736   204A      1.092042   205A      1.098460  
     206A      1.104555   207A      1.112058   208A      1.129480  
     209A      1.129830   210A      1.133386   211A      1.138524  
     212A      1.141579   213A      1.150615   214A      1.157180  
     215A      1.167977   216A      1.173362   217A      1.186398  
     218A      1.193189   219A      1.195409   220A      1.202889  
     221A      1.215021   222A      1.219002   223A      1.237980  
     224A      1.241994   225A      1.247123   226A      1.251153  
     227A      1.258923   228A      1.269765   229A      1.271761  
     230A      1.277069   231A      1.281398   232A      1.293309  
     233A      1.305628   234A      1.312092   235A      1.319367  
     236A      1.327074   237A      1.334295   238A      1.340818  
     239A      1.343848   240A      1.362997   241A      1.364745  
     242A      1.381435   243A      1.388301   244A      1.390114  
     245A      1.396322   246A      1.406326   247A      1.421513  
     248A      1.428300   249A      1.441023   250A      1.446583  
     251A      1.460307   252A      1.470034   253A      1.474640  
     254A      1.482236   255A      1.489074   256A      1.497910  
     257A      1.500346   258A      1.504041   259A      1.521691  
     260A      1.532731   261A      1.541305   262A      1.551380  
     263A      1.561714   264A      1.566888   265A      1.577906  
     266A      1.590084   267A      1.598419   268A      1.603683  
     269A      1.606193   270A      1.619830   271A      1.624967  
     272A      1.630931   273A      1.642060   274A      1.661353  
     275A      1.665892   276A      1.668497   277A      1.670642  
     278A      1.696871   279A      1.708964   280A      1.710545  
     281A      1.715705   282A      1.724858   283A      1.733928  
     284A      1.738230   285A      1.741149   286A      1.752026  
     287A      1.767776   288A      1.775558   289A      1.785093  
     290A      1.790742   291A      1.793801   292A      1.809075  
     293A      1.823469   294A      1.830097   295A      1.838323  
     296A      1.845155   297A      1.850704   298A      1.862551  
     299A      1.874548   300A      1.881163   301A      1.888684  
     302A      1.894132   303A      1.913479   304A      1.919810  
     305A      1.928049   306A      1.931614   307A      1.945319  
     308A      1.953345   309A      1.958525   310A      1.971255  
     311A      1.974340   312A      1.988374   313A      1.993915  
     314A      1.999862   315A      2.008695   316A      2.023460  
     317A      2.037594   318A      2.041030   319A      2.045542  
     320A      2.053631   321A      2.070466   322A      2.082310  
     323A      2.090330   324A      2.106546   325A      2.112409  
     326A      2.114118   327A      2.135338   328A      2.146833  
     329A      2.159479   330A      2.192260   331A      2.205543  
     332A      2.212827   333A      2.224916   334A      2.231169  
     335A      2.247342   336A      2.258124   337A      2.264291  
     338A      2.289221   339A      2.304165   340A      2.309933  
     341A      2.318575   342A      2.330374   343A      2.346463  
     344A      2.353697   345A      2.356810   346A      2.371308  
     347A      2.376836   348A      2.383932   349A      2.411110  
     350A      2.420227   351A      2.438770   352A      2.449381  
     353A      2.465613   354A      2.470762   355A      2.481821  
     356A      2.502412   357A      2.512003   358A      2.536520  
     359A      2.542341   360A      2.559503   361A      2.585070  
     362A      2.595490   363A      2.606062   364A      2.612067  
     365A      2.623407   366A      2.631813   367A      2.647100  
     368A      2.661158   369A      2.680532   370A      2.683270  
     371A      2.724252   372A      2.731917   373A      2.735611  
     374A      2.770377   375A      2.788531   376A      2.811964  
     377A      2.822733   378A      2.829522   379A      2.849484  
     380A      2.877064   381A      2.887873   382A      2.940583  
     383A      2.972143   384A      2.991141   385A      3.039733  
     386A      3.105234   387A      3.109026   388A      3.128643  
     389A      3.133570   390A      3.165203   391A      3.206808  
     392A      3.264127   393A      3.291000   394A      3.358473  
     395A      3.389413   396A      3.420929   397A      3.422549  
     398A      3.446125   399A      3.472059   400A      3.496583  
     401A      3.510529   402A      3.515752   403A      3.534799  
     404A      3.548233   405A      3.580510   406A      3.582736  
     407A      3.597037   408A      3.625165   409A      3.643899  
     410A      3.644811   411A      3.667619   412A      3.690517  
     413A      3.701674   414A      3.716529   415A      3.730109  
     416A      3.742100   417A      3.745731   418A      3.758271  
     419A      3.769657   420A      3.786680   421A      3.796693  
     422A      3.804648   423A      3.810998   424A      3.826524  
     425A      3.841739   426A      3.851764   427A      3.861193  
     428A      3.876382   429A      3.885046   430A      3.889758  
     431A      3.903675   432A      3.916011   433A      3.932001  
     434A      3.937308   435A      3.950405   436A      3.957680  
     437A      3.965960   438A      3.977265   439A      3.985147  
     440A      4.007672   441A      4.014691   442A      4.024952  
     443A      4.034626   444A      4.038603   445A      4.051171  
     446A      4.063791   447A      4.089352   448A      4.109946  
     449A      4.120011   450A      4.123045   451A      4.135200  
     452A      4.149023   453A      4.166320   454A      4.173190  
     455A      4.177910   456A      4.190949   457A      4.211615  
     458A      4.215469   459A      4.224558   460A      4.235886  
     461A      4.253515   462A      4.262262   463A      4.279725  
     464A      4.284400   465A      4.300272   466A      4.304983  
     467A      4.313821   468A      4.328096   469A      4.340988  
     470A      4.362233   471A      4.372774   472A      4.393116  
     473A      4.403598   474A      4.418825   475A      4.453350  
     476A      4.473874   477A      4.482222   478A      4.501772  
     479A      4.514280   480A      4.539627   481A      4.551813  
     482A      4.561864   483A      4.577123   484A      4.589770  
     485A      4.606938   486A      4.616379   487A      4.642790  
     488A      4.659597   489A      4.662755   490A      4.684092  
     491A      4.691024   492A      4.717398   493A      4.731349  
     494A      4.749116   495A      4.753956   496A      4.769741  
     497A      4.780308   498A      4.782305   499A      4.808877  
     500A      4.830863   501A      4.835639   502A      4.847448  
     503A      4.863418   504A      4.873089   505A      4.888688  
     506A      4.917710   507A      4.926271   508A      4.936456  
     509A      4.953425   510A      4.979866   511A      4.996390  
     512A      4.998179   513A      5.019623   514A      5.038045  
     515A      5.044739   516A      5.069922   517A      5.090406  
     518A      5.101362   519A      5.108047   520A      5.128514  
     521A      5.151267   522A      5.164555   523A      5.176104  
     524A      5.192965   525A      5.201891   526A      5.221489  
     527A      5.239976   528A      5.249422   529A      5.270583  
     530A      5.280933   531A      5.295040   532A      5.305599  
     533A      5.335742   534A      5.346082   535A      5.353949  
     536A      5.390870   537A      5.394115   538A      5.417113  
     539A      5.424887   540A      5.445234   541A      5.456415  
     542A      5.481687   543A      5.484503   544A      5.493174  
     545A      5.520566   546A      5.540669   547A      5.562800  
     548A      5.585612   549A      5.591876   550A      5.599513  
     551A      5.619363   552A      5.638173   553A      5.647045  
     554A      5.655060   555A      5.670932   556A      5.676259  
     557A      5.697356   558A      5.720128   559A      5.728835  
     560A      5.735164   561A      5.778692   562A      5.789967  
     563A      5.805958   564A      5.838035   565A      5.873760  
     566A      5.888461   567A      5.902365   568A      5.938824  
     569A      5.953029   570A      5.981681   571A      6.013276  
     572A      6.037007   573A      6.076739   574A      6.101586  
     575A      6.144306   576A      6.166408   577A      6.180992  
     578A      6.200537   579A      6.226257   580A      6.262991  
     581A      6.276576   582A      6.314413   583A      6.340828  
     584A      6.363238   585A      6.411701   586A      6.473621  
     587A      6.506286   588A      6.576101   589A      6.643871  
     590A      6.650835   591A      6.711881   592A      6.734067  
     593A      6.756398   594A      6.796888   595A      6.844996  
     596A      6.894023   597A      6.902775   598A      6.961208  
     599A      6.978864   600A      7.033115   601A      7.061869  
     602A      7.081908   603A      7.087588   604A      7.264555  
     605A      7.292119   606A      7.460018   607A      7.507244  
     608A      7.588450   609A      7.714047   610A      7.796809  
     611A      7.878970   612A      7.997829   613A      8.058341  
     614A     16.048226   615A     17.482087   616A     17.742589  
     617A     17.924933   618A     18.400041   619A     19.060093  
     620A     19.505300   621A     21.043893  

    Final Occupation by Irrep:
              A 
    DOCC [    31 ]

  @DF-RHF Final Energy:  -363.07151962289913

   => Energetics <=

    Nuclear Repulsion Energy =            394.9320897815279068
    One-Electron Energy =               -1276.1282570907089848
    Two-Electron Energy =                 518.1246476862819463
    Total Energy =                       -363.0715196228991317

Computation Completed

*** tstop() called on node58.bme.utexas.edu at Thu Feb  4 13:10:54 2021
Module time:
	user time   =     244.87 seconds =       4.08 minutes
	system time =      32.45 seconds =       0.54 minutes
	total time  =         56 seconds =       0.93 minutes
Total time:
	user time   =     244.87 seconds =       4.08 minutes
	system time =      32.45 seconds =       0.54 minutes
	total time  =         56 seconds =       0.93 minutes
   => Loading Basis Set <=

    Name: (AUG-CC-PVTZ AUX)
    Role: RIFIT
    Keyword: DF_BASIS_MP2
    atoms 1    entry O          line   264 file /home/xy3866/psi4conda/share/psi4/basis/aug-cc-pvtz-ri.gbs 
    atoms 2    entry N          line   206 file /home/xy3866/psi4conda/share/psi4/basis/aug-cc-pvtz-ri.gbs 
    atoms 3-8  entry C          line   148 file /home/xy3866/psi4conda/share/psi4/basis/aug-cc-pvtz-ri.gbs 
    atoms 9-19 entry H          line    30 file /home/xy3866/psi4conda/share/psi4/basis/aug-cc-pvtz-ri.gbs 


*** tstart() called on node58.bme.utexas.edu
*** at Thu Feb  4 13:10:54 2021


  //>>>>>>>>>>>>>>>>>>>>>>>>>>>>>>>>>>>//
  //               DFMP2               //
  //<<<<<<<<<<<<<<<<<<<<<<<<<<<<<<<<<<<//

	 --------------------------------------------------------
	                          DF-MP2                         
	      2nd-Order Density-Fitted Moller-Plesset Theory     
	              RMP2 Wavefunction,   8 Threads             
	                                                         
	        Rob Parrish, Justin Turney, Andy Simmonett,      
	           Ed Hohenstein, and C. David Sherrill          
	 --------------------------------------------------------

   => Auxiliary Basis Set <=

  Basis Set: (AUG-CC-PVTZ AUX)
    Blend: AUG-CC-PVTZ-RI
    Number of shells: 378
    Number of basis function: 1354
    Number of Cartesian functions: 1693
    Spherical Harmonics?: true
    Max angular momentum: 4

	 --------------------------------------------------------
	                 NBF =   621, NAUX =  1354
	 --------------------------------------------------------
	   CLASS    FOCC     OCC    AOCC    AVIR     VIR    FVIR
	   PAIRS       0      31      31     590     590       0
	 --------------------------------------------------------

  DFHelper Memory: AOs need 3.866 GiB; user supplied 22.352 GiB. Using in-core AOs.


         ------------------------------------------------------------
                                     CPHF                           
                                  Rob Parrish                       
         ------------------------------------------------------------

  ==> Geometry <==

    Molecular point group: c1
    Full point group: C1

    Geometry (in Angstrom), charge = 0, multiplicity = 1:

       Center              X                  Y                   Z               Mass       
    ------------   -----------------  -----------------  -----------------  -----------------
         O           -2.465445165717     0.080707668504    -0.381151093756    15.994914619570
         N           -0.636082165717    -1.209464331496    -0.013420093756    14.003074004430
         C            1.914220834283     0.746169668504    -0.022778093756    12.000000000000
         C            1.794895834283    -0.737370331496    -0.369055093756    12.000000000000
         C            0.651141834283     1.577994668504    -0.248267093756    12.000000000000
         C            0.722849834283    -1.477794331496     0.430284906244    12.000000000000
         C           -0.547114365717     1.110367968504     0.592067206244    12.000000000000
         C           -1.310650165717    -0.020229331496     0.042308906244    12.000000000000
         H            2.732842834283     1.179937668504    -0.610163093756     1.007825032230
         H            2.210660834283     0.838431668504     1.031515906244     1.007825032230
         H            1.578725834283    -0.863457331496    -1.436825093756     1.007825032230
         H            2.762528834283    -1.219619331496    -0.178304093756     1.007825032230
         H            0.362530834283     1.544807668504    -1.306589093756     1.007825032230
         H            0.887017834283     2.625202668504    -0.025576093756     1.007825032230
         H            0.868548834283    -2.557102331496     0.328024906244     1.007825032230
         H            0.828717834283    -1.249093331496     1.499772906244     1.007825032230
         H           -1.279947165717     1.969425668504     0.672786906244     1.007825032230
         H           -0.215965165717     0.938442668504     1.637058906244     1.007825032230
         H           -1.172925165717    -1.961078331496    -0.431266093756     1.007825032230

  Nuclear repulsion =  394.932089781527907
  Reference energy  = -363.071519622899132

  ==> Basis Set <==

  Basis Set: AUG-CC-PVTZ
    Blend: AUG-CC-PVTZ
    Number of shells: 211
    Number of basis function: 621
    Number of Cartesian functions: 715
    Spherical Harmonics?: true
    Max angular momentum: 3

  ==> CGRSolver (by Rob Parrish) <==

   Number of roots    =         1
   Preconditioning    =    JACOBI
   Convergence cutoff =     1E-06
   Maximum iterations =       100

  ==> CPHFRHamiltonian (by Rob Parrish) <== 

  ==> MemDFJK: Density-Fitted J/K Matrices <==

    J tasked:                   Yes
    K tasked:                   Yes
    wK tasked:                   No
    OpenMP threads:               8
    Memory [MiB]:             22888
    Algorithm:                 Disk
    Schwarz Cutoff:           1E-12
    Mask sparsity (%):       2.3908
    Fitting Condition:        1E-10

   => Auxiliary Basis Set <=

  Basis Set: (AUG-CC-PVTZ AUX)
    Blend: AUG-CC-PVTZ-JKFIT
    Number of shells: 394
    Number of basis function: 1338
    Number of Cartesian functions: 1653
    Spherical Harmonics?: true
    Max angular momentum: 4

  ==> CPHF Iterations <==

  => Iterations <=

             Iter  Converged  Remaining    Residual
  CGR           1          0          1   1.195E-01
  CGR           2          0          1   3.281E-02
  CGR           3          0          1   1.347E-02
  CGR           4          0          1   3.657E-03
  CGR           5          0          1   1.112E-03
  CGR           6          0          1   3.340E-04
  CGR           7          0          1   1.086E-04
  CGR           8          0          1   3.149E-05
  CGR           9          0          1   1.217E-05
  CGR          10          0          1   4.365E-06
  CGR          11          0          1   1.408E-06
  CGR          12          1          0   4.677E-07

    CGRSolver converged.

	-----------------------------------------------------------
	 ==================> DF-MP2 Energies <==================== 
	-----------------------------------------------------------
	 Reference Energy          =    -363.0715196228991317 [Eh]
	 Singles Energy            =      -0.0000000000000000 [Eh]
	 Same-Spin Energy          =      -0.3782876347241363 [Eh]
	 Opposite-Spin Energy      =      -1.2484404131562579 [Eh]
	 Correlation Energy        =      -1.6267280478803943 [Eh]
	 Total Energy              =    -364.6982476707795513 [Eh]
	-----------------------------------------------------------
	 ================> DF-SCS-MP2 Energies <================== 
	-----------------------------------------------------------
	 SCS Same-Spin Scale       =       0.3333333333333333 [-]
	 SCS Opposite-Spin Scale   =       1.2000000000000000 [-]
	 SCS Same-Spin Energy      =      -0.1260958782413788 [Eh]
	 SCS Opposite-Spin Energy  =      -1.4981284957875094 [Eh]
	 SCS Correlation Energy    =      -1.6242243740288882 [Eh]
	 SCS Total Energy          =    -364.6957439969280017 [Eh]
	-----------------------------------------------------------



Properties will be evaluated at   0.000000,  -0.000000,  -0.000000 [a0]

Properties computed using the MP2 density matrix

  Nuclear Dipole Moment: [e a0]
     X:     8.9548      Y:     1.1719      Z:     1.1048

  Electronic Dipole Moment: [e a0]
     X:    -7.3429      Y:    -1.5692      Z:    -0.7504

  Dipole Moment: [e a0]
     X:     1.6119      Y:    -0.3973      Z:     0.3544     Total:     1.6975

  Dipole Moment: [D]
     X:     4.0970      Y:    -1.0100      Z:     0.9008     Total:     4.3147


*** tstop() called on node58.bme.utexas.edu at Thu Feb  4 13:12:52 2021
Module time:
	user time   =     692.17 seconds =      11.54 minutes
	system time =      36.50 seconds =       0.61 minutes
	total time  =        118 seconds =       1.97 minutes
Total time:
	user time   =     937.20 seconds =      15.62 minutes
	system time =      68.96 seconds =       1.15 minutes
	total time  =        174 seconds =       2.90 minutes

    Psi4 stopped on: Thursday, 04 February 2021 01:12PM
    Psi4 wall time for execution: 0:02:53.69

*** Psi4 exiting successfully. Buy a developer a beer!
