
    -----------------------------------------------------------------------
          Psi4: An Open-Source Ab Initio Electronic Structure Package
                               Psi4 1.3.2 release

                         Git: Rev {HEAD} ecbda83 


    R. M. Parrish, L. A. Burns, D. G. A. Smith, A. C. Simmonett,
    A. E. DePrince III, E. G. Hohenstein, U. Bozkaya, A. Yu. Sokolov,
    R. Di Remigio, R. M. Richard, J. F. Gonthier, A. M. James,
    H. R. McAlexander, A. Kumar, M. Saitow, X. Wang, B. P. Pritchard,
    P. Verma, H. F. Schaefer III, K. Patkowski, R. A. King, E. F. Valeev,
    F. A. Evangelista, J. M. Turney, T. D. Crawford, and C. D. Sherrill,
    J. Chem. Theory Comput. 13(7) pp 3185--3197 (2017).
    (doi: 10.1021/acs.jctc.7b00174)


                         Additional Contributions by
    P. Kraus, H. Kruse, M. H. Lechner, M. C. Schieber, R. A. Shaw,
    A. Alenaizan, R. Galvelis, Z. L. Glick, S. Lehtola, and J. P. Misiewicz

    -----------------------------------------------------------------------


    Psi4 started on: Thursday, 04 February 2021 04:20AM

    Process ID: 2340502
    Host:       node58.bme.utexas.edu
    PSIDATADIR: /home/xy3866/psi4conda/share/psi4
    Memory:     500.0 MiB
    Threads:    8
    
  ==> Input File <==

--------------------------------------------------------------------------
#psi4
#
memory 32 gb

molecule  {
0 1
  O       -2.5416601     0.0867835    -0.3871366
  N       -0.7122740    -1.2241950    -0.0249760
  C        1.8380290     0.7314390    -0.0343340
  C        1.7187040    -0.7521010    -0.3806110
  C        0.5749500     1.5632640    -0.2598230
  C        0.6466580    -1.4925250     0.4187290
  C       -0.6257670     1.1444980     0.6024810
  C       -1.3868420    -0.0349600     0.0307530
  H        2.6566510     1.1652070    -0.6217190
  H        2.1344690     0.8237010     1.0199600
  H        1.5025340    -0.8781880    -1.4483810
  H        2.6863370    -1.2343500    -0.1898600
  H        0.2863390     1.5300770    -1.3181450
  H        0.8108260     2.6104720    -0.0371320
  H        0.7923570    -2.5718330     0.3164690
  H        0.7525260    -1.2638240     1.4882170
  H       -1.3561390     1.9546950     0.6612310
  H       -0.2921570     0.9237120     1.6255030
  H       -1.2491170    -1.9758090    -0.4428220
units angstrom
no_reorient  #important for SAPT in psi4, default
symmetry c1  #important for SAPT in psi4, default
}

set PROPERTIES_ORIGIN ["COM"]
properties('MP2/aug-cc-pvtz', properties = ['dipole'])
--------------------------------------------------------------------------

  Memory set to  29.802 GiB by Python driver.
    SCF Algorithm Type (re)set to DF.

*** tstart() called on node58.bme.utexas.edu
*** at Thu Feb  4 04:20:28 2021

   => Loading Basis Set <=

    Name: AUG-CC-PVTZ
    Role: ORBITAL
    Keyword: BASIS
    atoms 1    entry O          line   327 file /home/xy3866/psi4conda/share/psi4/basis/aug-cc-pvtz.gbs 
    atoms 2    entry N          line   281 file /home/xy3866/psi4conda/share/psi4/basis/aug-cc-pvtz.gbs 
    atoms 3-8  entry C          line   235 file /home/xy3866/psi4conda/share/psi4/basis/aug-cc-pvtz.gbs 
    atoms 9-19 entry H          line    36 file /home/xy3866/psi4conda/share/psi4/basis/aug-cc-pvtz.gbs 


         ---------------------------------------------------------
                                   SCF
               by Justin Turney, Rob Parrish, Andy Simmonett
                          and Daniel G. A. Smith
                              RHF Reference
                        8 Threads,  30517 MiB Core
         ---------------------------------------------------------

  ==> Geometry <==

    Molecular point group: c1
    Full point group: C1

    Geometry (in Angstrom), charge = 0, multiplicity = 1:

       Center              X                  Y                   Z               Mass       
    ------------   -----------------  -----------------  -----------------  -----------------
         O           -2.465203868759     0.093386351386    -0.378699917278    15.994914619570
         N           -0.635817768759    -1.217592148614    -0.016539317278    14.003074004430
         C            1.914485231241     0.738041851386    -0.025897317278    12.000000000000
         C            1.795160231241    -0.745498148614    -0.372174317278    12.000000000000
         C            0.651406231241     1.569866851386    -0.251386317278    12.000000000000
         C            0.723114231241    -1.485922148614     0.427165682722    12.000000000000
         C           -0.549310768759     1.151100851386     0.610917682722    12.000000000000
         C           -1.310385768759    -0.028357148614     0.039189682722    12.000000000000
         H            2.733107231241     1.171809851386    -0.613282317278     1.007825032230
         H            2.210925231241     0.830303851386     1.028396682722     1.007825032230
         H            1.578990231241    -0.871585148614    -1.439944317278     1.007825032230
         H            2.762793231241    -1.227747148614    -0.181423317278     1.007825032230
         H            0.362795231241     1.536679851386    -1.309708317278     1.007825032230
         H            0.887282231241     2.617074851386    -0.028695317278     1.007825032230
         H            0.868813231241    -2.565230148614     0.324905682722     1.007825032230
         H            0.828982231241    -1.257221148614     1.496653682722     1.007825032230
         H           -1.279682768759     1.961297851386     0.669667682722     1.007825032230
         H           -0.215700768759     0.930314851386     1.633939682722     1.007825032230
         H           -1.172660768759    -1.969206148614    -0.434385317278     1.007825032230

  Running in c1 symmetry.

  Rotational constants: A =      0.10602  B =      0.06206  C =      0.04369 [cm^-1]
  Rotational constants: A =   3178.35624  B =   1860.47303  C =   1309.73277 [MHz]
  Nuclear repulsion =  394.083396483440879

  Charge       = 0
  Multiplicity = 1
  Electrons    = 62
  Nalpha       = 31
  Nbeta        = 31

  ==> Algorithm <==

  SCF Algorithm Type is DF.
  DIIS enabled.
  MOM disabled.
  Fractional occupation disabled.
  Guess Type is SAD.
  Energy threshold   = 1.00e-10
  Density threshold  = 1.00e-10
  Integral threshold = 0.00e+00

  ==> Primary Basis <==

  Basis Set: AUG-CC-PVTZ
    Blend: AUG-CC-PVTZ
    Number of shells: 211
    Number of basis function: 621
    Number of Cartesian functions: 715
    Spherical Harmonics?: true
    Max angular momentum: 3

   => Loading Basis Set <=

    Name: (AUG-CC-PVTZ AUX)
    Role: JKFIT
    Keyword: DF_BASIS_SCF
    atoms 1    entry O          line   286 file /home/xy3866/psi4conda/share/psi4/basis/aug-cc-pvtz-jkfit.gbs 
    atoms 2    entry N          line   224 file /home/xy3866/psi4conda/share/psi4/basis/aug-cc-pvtz-jkfit.gbs 
    atoms 3-8  entry C          line   162 file /home/xy3866/psi4conda/share/psi4/basis/aug-cc-pvtz-jkfit.gbs 
    atoms 9-19 entry H          line    70 file /home/xy3866/psi4conda/share/psi4/basis/aug-cc-pvtz-jkfit.gbs 

  ==> Pre-Iterations <==

   -------------------------------------------------------
    Irrep   Nso     Nmo     Nalpha   Nbeta   Ndocc  Nsocc
   -------------------------------------------------------
     A        621     621       0       0       0       0
   -------------------------------------------------------
    Total     621     621      31      31      31       0
   -------------------------------------------------------

  ==> Integral Setup <==

  DFHelper Memory: AOs need 3.866 GiB; user supplied 22.352 GiB. Using in-core AOs.

  ==> MemDFJK: Density-Fitted J/K Matrices <==

    J tasked:                   Yes
    K tasked:                   Yes
    wK tasked:                   No
    OpenMP threads:               8
    Memory [MiB]:             22888
    Algorithm:                 Disk
    Schwarz Cutoff:           1E-12
    Mask sparsity (%):       2.3939
    Fitting Condition:        1E-10

   => Auxiliary Basis Set <=

  Basis Set: (AUG-CC-PVTZ AUX)
    Blend: AUG-CC-PVTZ-JKFIT
    Number of shells: 394
    Number of basis function: 1338
    Number of Cartesian functions: 1653
    Spherical Harmonics?: true
    Max angular momentum: 4

  Minimum eigenvalue in the overlap matrix is 3.1539937582E-06.
  Using Symmetric Orthogonalization.

  SCF Guess: Superposition of Atomic Densities via on-the-fly atomic UHF.

  ==> Iterations <==

                           Total Energy        Delta E     RMS |[F,P]|

   @DF-RHF iter SAD:  -362.79905158238165   -3.62799e+02   0.00000e+00 
   @DF-RHF iter   1:  -362.75744201442444    4.16096e-02   1.20970e-03 DIIS
   @DF-RHF iter   2:  -363.00080123836301   -2.43359e-01   6.68434e-04 DIIS
   @DF-RHF iter   3:  -363.07074109316352   -6.99399e-02   1.16459e-04 DIIS
   @DF-RHF iter   4:  -363.07484235949181   -4.10127e-03   4.96927e-05 DIIS
   @DF-RHF iter   5:  -363.07533588475326   -4.93525e-04   1.38126e-05 DIIS
   @DF-RHF iter   6:  -363.07539759910850   -6.17144e-05   4.35937e-06 DIIS
   @DF-RHF iter   7:  -363.07540674486438   -9.14576e-06   1.63072e-06 DIIS
   @DF-RHF iter   8:  -363.07540832077950   -1.57592e-06   7.13199e-07 DIIS
   @DF-RHF iter   9:  -363.07540862470120   -3.03922e-07   1.98992e-07 DIIS
   @DF-RHF iter  10:  -363.07540864507507   -2.03739e-08   6.69531e-08 DIIS
   @DF-RHF iter  11:  -363.07540864700695   -1.93188e-09   2.20681e-08 DIIS
   @DF-RHF iter  12:  -363.07540864719033   -1.83377e-10   5.77706e-09 DIIS
   @DF-RHF iter  13:  -363.07540864720897   -1.86446e-11   1.84514e-09 DIIS
   @DF-RHF iter  14:  -363.07540864721142   -2.44427e-12   8.18490e-10 DIIS
   @DF-RHF iter  15:  -363.07540864721182   -3.97904e-13   2.98255e-10 DIIS
   @DF-RHF iter  16:  -363.07540864721284   -1.02318e-12   1.04013e-10 DIIS
   @DF-RHF iter  17:  -363.07540864721130    1.53477e-12   3.38923e-11 DIIS
  Energy and wave function converged.


  ==> Post-Iterations <==

    Orbital Energies [Eh]
    ---------------------

    Doubly Occupied:                                                      

       1A    -20.509320     2A    -15.579789     3A    -11.343054  
       4A    -11.277930     5A    -11.236075     6A    -11.234928  
       7A    -11.234517     8A    -11.232903     9A     -1.363235  
      10A     -1.229444    11A     -1.093772    12A     -1.041955  
      13A     -0.945319    14A     -0.888563    15A     -0.795412  
      16A     -0.764238    17A     -0.688138    18A     -0.676860  
      19A     -0.626350    20A     -0.611894    21A     -0.601746  
      22A     -0.591870    23A     -0.569753    24A     -0.545320  
      25A     -0.519280    26A     -0.515820    27A     -0.481132  
      28A     -0.470249    29A     -0.469221    30A     -0.410058  
      31A     -0.383668  

    Virtual:                                                              

      32A      0.023496    33A      0.030246    34A      0.033716  
      35A      0.037648    36A      0.050238    37A      0.051486  
      38A      0.053839    39A      0.059606    40A      0.060959  
      41A      0.074071    42A      0.076705    43A      0.097186  
      44A      0.106941    45A      0.109021    46A      0.112091  
      47A      0.114176    48A      0.117257    49A      0.121878  
      50A      0.123990    51A      0.125781    52A      0.133727  
      53A      0.141802    54A      0.143177    55A      0.146543  
      56A      0.150119    57A      0.157176    58A      0.161597  
      59A      0.163417    60A      0.167267    61A      0.175083  
      62A      0.182275    63A      0.188532    64A      0.200615  
      65A      0.205454    66A      0.217171    67A      0.222168  
      68A      0.225237    69A      0.234302    70A      0.244842  
      71A      0.254338    72A      0.263810    73A      0.265454  
      74A      0.279411    75A      0.283198    76A      0.284520  
      77A      0.292239    78A      0.297556    79A      0.302884  
      80A      0.303680    81A      0.306810    82A      0.312195  
      83A      0.319090    84A      0.326176    85A      0.335012  
      86A      0.338938    87A      0.341401    88A      0.348907  
      89A      0.350301    90A      0.357471    91A      0.361899  
      92A      0.364122    93A      0.366825    94A      0.371924  
      95A      0.375221    96A      0.379818    97A      0.380914  
      98A      0.392301    99A      0.395732   100A      0.406146  
     101A      0.413189   102A      0.416359   103A      0.423945  
     104A      0.430867   105A      0.434244   106A      0.442570  
     107A      0.447424   108A      0.450226   109A      0.452657  
     110A      0.464150   111A      0.465998   112A      0.470968  
     113A      0.472907   114A      0.478147   115A      0.482069  
     116A      0.492628   117A      0.494486   118A      0.501031  
     119A      0.504673   120A      0.505308   121A      0.513926  
     122A      0.515839   123A      0.525126   124A      0.526621  
     125A      0.531655   126A      0.535639   127A      0.549346  
     128A      0.554033   129A      0.560950   130A      0.567785  
     131A      0.573907   132A      0.576628   133A      0.577798  
     134A      0.583355   135A      0.595732   136A      0.600502  
     137A      0.607263   138A      0.616019   139A      0.623199  
     140A      0.625710   141A      0.627343   142A      0.639091  
     143A      0.642860   144A      0.648139   145A      0.659912  
     146A      0.666616   147A      0.675593   148A      0.682404  
     149A      0.684368   150A      0.686775   151A      0.697727  
     152A      0.699172   153A      0.704182   154A      0.710174  
     155A      0.722792   156A      0.742313   157A      0.747232  
     158A      0.751612   159A      0.760560   160A      0.778963  
     161A      0.788054   162A      0.792418   163A      0.811335  
     164A      0.817462   165A      0.824806   166A      0.829839  
     167A      0.838311   168A      0.841959   169A      0.854792  
     170A      0.859041   171A      0.867724   172A      0.877531  
     173A      0.884603   174A      0.885354   175A      0.888821  
     176A      0.906547   177A      0.909945   178A      0.918362  
     179A      0.925590   180A      0.931791   181A      0.933890  
     182A      0.941081   183A      0.948527   184A      0.951671  
     185A      0.955488   186A      0.967928   187A      0.973995  
     188A      0.978489   189A      0.986375   190A      0.989868  
     191A      1.007393   192A      1.012652   193A      1.013505  
     194A      1.036419   195A      1.039205   196A      1.040621  
     197A      1.046564   198A      1.050099   199A      1.061203  
     200A      1.068891   201A      1.073956   202A      1.075375  
     203A      1.087803   204A      1.091917   205A      1.098357  
     206A      1.101364   207A      1.111841   208A      1.128593  
     209A      1.129311   210A      1.135673   211A      1.136771  
     212A      1.140957   213A      1.150312   214A      1.158238  
     215A      1.166427   216A      1.174148   217A      1.185164  
     218A      1.191760   219A      1.194605   220A      1.203078  
     221A      1.213507   222A      1.220201   223A      1.236156  
     224A      1.242427   225A      1.247242   226A      1.253882  
     227A      1.258483   228A      1.268416   229A      1.272936  
     230A      1.277719   231A      1.281726   232A      1.294339  
     233A      1.306564   234A      1.312691   235A      1.318979  
     236A      1.326935   237A      1.333639   238A      1.340066  
     239A      1.342304   240A      1.362217   241A      1.363750  
     242A      1.380167   243A      1.386810   244A      1.389409  
     245A      1.395542   246A      1.405824   247A      1.421631  
     248A      1.428530   249A      1.440613   250A      1.446066  
     251A      1.460057   252A      1.469583   253A      1.472352  
     254A      1.480178   255A      1.490496   256A      1.497914  
     257A      1.502258   258A      1.504751   259A      1.522586  
     260A      1.531723   261A      1.541347   262A      1.552749  
     263A      1.562502   264A      1.566191   265A      1.576936  
     266A      1.591534   267A      1.597508   268A      1.603894  
     269A      1.605120   270A      1.619772   271A      1.624626  
     272A      1.633401   273A      1.642588   274A      1.661642  
     275A      1.666618   276A      1.667859   277A      1.671819  
     278A      1.694736   279A      1.707159   280A      1.711554  
     281A      1.716386   282A      1.724973   283A      1.733652  
     284A      1.740244   285A      1.741224   286A      1.752031  
     287A      1.766952   288A      1.775409   289A      1.784011  
     290A      1.788303   291A      1.791923   292A      1.808430  
     293A      1.823557   294A      1.832608   295A      1.837718  
     296A      1.844487   297A      1.852315   298A      1.859375  
     299A      1.875113   300A      1.881086   301A      1.883246  
     302A      1.893383   303A      1.911065   304A      1.920358  
     305A      1.929249   306A      1.931490   307A      1.946123  
     308A      1.952926   309A      1.957377   310A      1.970787  
     311A      1.975560   312A      1.985768   313A      1.995648  
     314A      1.999436   315A      2.009802   316A      2.022097  
     317A      2.033045   318A      2.041282   319A      2.044376  
     320A      2.054663   321A      2.073225   322A      2.083184  
     323A      2.095964   324A      2.106322   325A      2.110495  
     326A      2.118993   327A      2.131861   328A      2.147830  
     329A      2.161597   330A      2.186406   331A      2.201617  
     332A      2.209180   333A      2.228139   334A      2.233124  
     335A      2.248379   336A      2.256632   337A      2.263096  
     338A      2.289377   339A      2.305482   340A      2.307848  
     341A      2.317455   342A      2.329260   343A      2.335574  
     344A      2.343745   345A      2.361344   346A      2.370511  
     347A      2.371130   348A      2.376174   349A      2.409638  
     350A      2.414698   351A      2.435798   352A      2.445823  
     353A      2.461340   354A      2.468994   355A      2.479955  
     356A      2.497992   357A      2.512400   358A      2.538264  
     359A      2.540545   360A      2.557742   361A      2.586865  
     362A      2.598251   363A      2.605429   364A      2.608201  
     365A      2.621052   366A      2.623773   367A      2.643330  
     368A      2.656775   369A      2.675945   370A      2.679350  
     371A      2.717152   372A      2.729731   373A      2.734583  
     374A      2.764317   375A      2.784881   376A      2.810185  
     377A      2.820877   378A      2.824168   379A      2.843476  
     380A      2.877923   381A      2.885513   382A      2.931868  
     383A      2.969565   384A      2.991992   385A      3.037878  
     386A      3.097257   387A      3.101822   388A      3.116948  
     389A      3.142755   390A      3.159082   391A      3.194910  
     392A      3.260448   393A      3.277599   394A      3.355485  
     395A      3.368878   396A      3.409767   397A      3.421819  
     398A      3.441563   399A      3.470930   400A      3.496332  
     401A      3.509300   402A      3.518242   403A      3.532277  
     404A      3.546040   405A      3.579477   406A      3.592130  
     407A      3.594757   408A      3.623781   409A      3.639191  
     410A      3.648158   411A      3.676433   412A      3.692487  
     413A      3.703907   414A      3.717742   415A      3.730571  
     416A      3.741492   417A      3.744768   418A      3.758170  
     419A      3.770123   420A      3.791131   421A      3.794144  
     422A      3.803208   423A      3.812644   424A      3.824096  
     425A      3.835212   426A      3.857070   427A      3.859856  
     428A      3.869956   429A      3.878365   430A      3.888589  
     431A      3.896510   432A      3.911560   433A      3.929944  
     434A      3.932602   435A      3.947098   436A      3.953717  
     437A      3.966996   438A      3.973204   439A      3.984802  
     440A      4.003102   441A      4.012437   442A      4.023397  
     443A      4.032571   444A      4.042135   445A      4.050270  
     446A      4.056274   447A      4.084295   448A      4.110897  
     449A      4.120549   450A      4.129103   451A      4.136021  
     452A      4.145732   453A      4.156677   454A      4.170698  
     455A      4.179787   456A      4.186165   457A      4.212276  
     458A      4.215510   459A      4.224245   460A      4.230066  
     461A      4.245662   462A      4.259298   463A      4.276830  
     464A      4.285424   465A      4.299865   466A      4.303302  
     467A      4.312178   468A      4.326066   469A      4.337658  
     470A      4.357966   471A      4.375849   472A      4.391530  
     473A      4.402172   474A      4.417634   475A      4.451944  
     476A      4.473821   477A      4.478012   478A      4.502243  
     479A      4.515836   480A      4.541620   481A      4.547371  
     482A      4.566049   483A      4.577291   484A      4.585189  
     485A      4.606597   486A      4.615834   487A      4.630156  
     488A      4.655290   489A      4.661307   490A      4.679651  
     491A      4.690214   492A      4.715320   493A      4.728121  
     494A      4.747463   495A      4.754003   496A      4.772447  
     497A      4.777057   498A      4.790903   499A      4.808294  
     500A      4.830434   501A      4.835669   502A      4.845451  
     503A      4.858309   504A      4.865921   505A      4.893619  
     506A      4.913430   507A      4.920937   508A      4.942943  
     509A      4.954062   510A      4.977028   511A      4.991185  
     512A      5.003475   513A      5.020605   514A      5.031945  
     515A      5.047455   516A      5.067497   517A      5.089758  
     518A      5.103256   519A      5.104812   520A      5.136637  
     521A      5.150664   522A      5.159185   523A      5.179708  
     524A      5.199595   525A      5.202667   526A      5.232390  
     527A      5.241927   528A      5.252066   529A      5.275857  
     530A      5.279892   531A      5.294752   532A      5.304077  
     533A      5.333936   534A      5.352994   535A      5.357957  
     536A      5.392386   537A      5.395992   538A      5.425407  
     539A      5.436587   540A      5.450863   541A      5.465905  
     542A      5.486842   543A      5.489672   544A      5.500797  
     545A      5.519127   546A      5.543872   547A      5.560045  
     548A      5.585983   549A      5.597329   550A      5.602583  
     551A      5.621383   552A      5.636700   553A      5.650763  
     554A      5.658498   555A      5.672545   556A      5.682216  
     557A      5.693459   558A      5.723377   559A      5.730045  
     560A      5.733917   561A      5.775061   562A      5.791363  
     563A      5.813677   564A      5.844121   565A      5.865107  
     566A      5.885755   567A      5.904324   568A      5.929208  
     569A      5.953401   570A      5.986286   571A      6.015271  
     572A      6.041962   573A      6.076507   574A      6.117879  
     575A      6.147051   576A      6.181840   577A      6.190156  
     578A      6.203448   579A      6.229588   580A      6.262877  
     581A      6.283063   582A      6.311919   583A      6.341858  
     584A      6.357983   585A      6.398055   586A      6.458030  
     587A      6.511022   588A      6.565757   589A      6.628430  
     590A      6.650084   591A      6.708024   592A      6.732656  
     593A      6.756256   594A      6.797727   595A      6.840725  
     596A      6.893521   597A      6.900149   598A      6.945990  
     599A      6.968662   600A      7.032378   601A      7.053541  
     602A      7.075231   603A      7.088411   604A      7.264384  
     605A      7.287414   606A      7.456902   607A      7.498422  
     608A      7.584998   609A      7.695914   610A      7.790795  
     611A      7.867343   612A      7.993846   613A      8.053565  
     614A     15.931615   615A     17.494603   616A     17.586123  
     617A     17.895929   618A     18.408269   619A     19.106105  
     620A     19.525437   621A     20.919164  

    Final Occupation by Irrep:
              A 
    DOCC [    31 ]

  @DF-RHF Final Energy:  -363.07540864721130

   => Energetics <=

    Nuclear Repulsion Energy =            394.0833964834408789
    One-Electron Energy =               -1274.4539819651204198
    Two-Electron Energy =                 517.2951768344682932
    Total Energy =                       -363.0754086472112476

Computation Completed

*** tstop() called on node58.bme.utexas.edu at Thu Feb  4 04:23:07 2021
Module time:
	user time   =     478.73 seconds =       7.98 minutes
	system time =      46.52 seconds =       0.78 minutes
	total time  =        159 seconds =       2.65 minutes
Total time:
	user time   =     478.73 seconds =       7.98 minutes
	system time =      46.52 seconds =       0.78 minutes
	total time  =        159 seconds =       2.65 minutes
   => Loading Basis Set <=

    Name: (AUG-CC-PVTZ AUX)
    Role: RIFIT
    Keyword: DF_BASIS_MP2
    atoms 1    entry O          line   264 file /home/xy3866/psi4conda/share/psi4/basis/aug-cc-pvtz-ri.gbs 
    atoms 2    entry N          line   206 file /home/xy3866/psi4conda/share/psi4/basis/aug-cc-pvtz-ri.gbs 
    atoms 3-8  entry C          line   148 file /home/xy3866/psi4conda/share/psi4/basis/aug-cc-pvtz-ri.gbs 
    atoms 9-19 entry H          line    30 file /home/xy3866/psi4conda/share/psi4/basis/aug-cc-pvtz-ri.gbs 


*** tstart() called on node58.bme.utexas.edu
*** at Thu Feb  4 04:23:08 2021


  //>>>>>>>>>>>>>>>>>>>>>>>>>>>>>>>>>>>//
  //               DFMP2               //
  //<<<<<<<<<<<<<<<<<<<<<<<<<<<<<<<<<<<//

	 --------------------------------------------------------
	                          DF-MP2                         
	      2nd-Order Density-Fitted Moller-Plesset Theory     
	              RMP2 Wavefunction,   8 Threads             
	                                                         
	        Rob Parrish, Justin Turney, Andy Simmonett,      
	           Ed Hohenstein, and C. David Sherrill          
	 --------------------------------------------------------

   => Auxiliary Basis Set <=

  Basis Set: (AUG-CC-PVTZ AUX)
    Blend: AUG-CC-PVTZ-RI
    Number of shells: 378
    Number of basis function: 1354
    Number of Cartesian functions: 1693
    Spherical Harmonics?: true
    Max angular momentum: 4

	 --------------------------------------------------------
	                 NBF =   621, NAUX =  1354
	 --------------------------------------------------------
	   CLASS    FOCC     OCC    AOCC    AVIR     VIR    FVIR
	   PAIRS       0      31      31     590     590       0
	 --------------------------------------------------------

  DFHelper Memory: AOs need 3.866 GiB; user supplied 22.352 GiB. Using in-core AOs.


         ------------------------------------------------------------
                                     CPHF                           
                                  Rob Parrish                       
         ------------------------------------------------------------

  ==> Geometry <==

    Molecular point group: c1
    Full point group: C1

    Geometry (in Angstrom), charge = 0, multiplicity = 1:

       Center              X                  Y                   Z               Mass       
    ------------   -----------------  -----------------  -----------------  -----------------
         O           -2.465203868759     0.093386351386    -0.378699917278    15.994914619570
         N           -0.635817768759    -1.217592148614    -0.016539317278    14.003074004430
         C            1.914485231241     0.738041851386    -0.025897317278    12.000000000000
         C            1.795160231241    -0.745498148614    -0.372174317278    12.000000000000
         C            0.651406231241     1.569866851386    -0.251386317278    12.000000000000
         C            0.723114231241    -1.485922148614     0.427165682722    12.000000000000
         C           -0.549310768759     1.151100851386     0.610917682722    12.000000000000
         C           -1.310385768759    -0.028357148614     0.039189682722    12.000000000000
         H            2.733107231241     1.171809851386    -0.613282317278     1.007825032230
         H            2.210925231241     0.830303851386     1.028396682722     1.007825032230
         H            1.578990231241    -0.871585148614    -1.439944317278     1.007825032230
         H            2.762793231241    -1.227747148614    -0.181423317278     1.007825032230
         H            0.362795231241     1.536679851386    -1.309708317278     1.007825032230
         H            0.887282231241     2.617074851386    -0.028695317278     1.007825032230
         H            0.868813231241    -2.565230148614     0.324905682722     1.007825032230
         H            0.828982231241    -1.257221148614     1.496653682722     1.007825032230
         H           -1.279682768759     1.961297851386     0.669667682722     1.007825032230
         H           -0.215700768759     0.930314851386     1.633939682722     1.007825032230
         H           -1.172660768759    -1.969206148614    -0.434385317278     1.007825032230

  Nuclear repulsion =  394.083396483440879
  Reference energy  = -363.075408647211304

  ==> Basis Set <==

  Basis Set: AUG-CC-PVTZ
    Blend: AUG-CC-PVTZ
    Number of shells: 211
    Number of basis function: 621
    Number of Cartesian functions: 715
    Spherical Harmonics?: true
    Max angular momentum: 3

  ==> CGRSolver (by Rob Parrish) <==

   Number of roots    =         1
   Preconditioning    =    JACOBI
   Convergence cutoff =     1E-06
   Maximum iterations =       100

  ==> CPHFRHamiltonian (by Rob Parrish) <== 

  ==> MemDFJK: Density-Fitted J/K Matrices <==

    J tasked:                   Yes
    K tasked:                   Yes
    wK tasked:                   No
    OpenMP threads:               8
    Memory [MiB]:             22888
    Algorithm:                 Disk
    Schwarz Cutoff:           1E-12
    Mask sparsity (%):       2.3939
    Fitting Condition:        1E-10

   => Auxiliary Basis Set <=

  Basis Set: (AUG-CC-PVTZ AUX)
    Blend: AUG-CC-PVTZ-JKFIT
    Number of shells: 394
    Number of basis function: 1338
    Number of Cartesian functions: 1653
    Spherical Harmonics?: true
    Max angular momentum: 4

  ==> CPHF Iterations <==

  => Iterations <=

             Iter  Converged  Remaining    Residual
  CGR           1          0          1   1.192E-01
  CGR           2          0          1   3.269E-02
  CGR           3          0          1   1.334E-02
  CGR           4          0          1   3.593E-03
  CGR           5          0          1   1.094E-03
  CGR           6          0          1   3.323E-04
  CGR           7          0          1   1.077E-04
  CGR           8          0          1   3.145E-05
  CGR           9          0          1   1.229E-05
  CGR          10          0          1   4.491E-06
  CGR          11          0          1   1.370E-06
  CGR          12          1          0   4.415E-07

    CGRSolver converged.

	-----------------------------------------------------------
	 ==================> DF-MP2 Energies <==================== 
	-----------------------------------------------------------
	 Reference Energy          =    -363.0754086472113045 [Eh]
	 Singles Energy            =      -0.0000000000000000 [Eh]
	 Same-Spin Energy          =      -0.3777234423796620 [Eh]
	 Opposite-Spin Energy      =      -1.2476803084634911 [Eh]
	 Correlation Energy        =      -1.6254037508431531 [Eh]
	 Total Energy              =    -364.7008123980544383 [Eh]
	-----------------------------------------------------------
	 ================> DF-SCS-MP2 Energies <================== 
	-----------------------------------------------------------
	 SCS Same-Spin Scale       =       0.3333333333333333 [-]
	 SCS Opposite-Spin Scale   =       1.2000000000000000 [-]
	 SCS Same-Spin Energy      =      -0.1259078141265540 [Eh]
	 SCS Opposite-Spin Energy  =      -1.4972163701561894 [Eh]
	 SCS Correlation Energy    =      -1.6231241842827433 [Eh]
	 SCS Total Energy          =    -364.6985328314940489 [Eh]
	-----------------------------------------------------------



Properties will be evaluated at   0.000000,   0.000000,   0.000000 [a0]

Properties computed using the MP2 density matrix

  Nuclear Dipole Moment: [e a0]
     X:     8.9575      Y:     1.0882      Z:     1.0727

  Electronic Dipole Moment: [e a0]
     X:    -7.3565      Y:    -1.5190      Z:    -0.7257

  Dipole Moment: [e a0]
     X:     1.6010      Y:    -0.4309      Z:     0.3470     Total:     1.6939

  Dipole Moment: [D]
     X:     4.0693      Y:    -1.0951      Z:     0.8819     Total:     4.3054


*** tstop() called on node58.bme.utexas.edu at Thu Feb  4 04:25:35 2021
Module time:
	user time   =     770.48 seconds =      12.84 minutes
	system time =      37.93 seconds =       0.63 minutes
	total time  =        147 seconds =       2.45 minutes
Total time:
	user time   =    1249.41 seconds =      20.82 minutes
	system time =      84.45 seconds =       1.41 minutes
	total time  =        307 seconds =       5.12 minutes

    Psi4 stopped on: Thursday, 04 February 2021 04:25AM
    Psi4 wall time for execution: 0:05:07.76

*** Psi4 exiting successfully. Buy a developer a beer!
