6361                                                                    
Freq      RMP2-FC                                                     6-31G(d)            
Number of atoms                            I               11
Info1-9                                    I   N=           9
          23          21        1002           0           0         100
           6           2           1
Charge                                     I                0
Multiplicity                               I                1
Number of electrons                        I               42
Number of alpha electrons                  I               21
Number of beta electrons                   I               21
Number of basis functions                  I               78
Number of independent functions            I               78
Number of point charges in /Mol/           I                0
Number of translation vectors              I                0
Atomic numbers                             I   N=          11
          17           6           6           6           1           1
           1           1           1           1           1
Nuclear charges                            R   N=          11
  1.70000000E+01  6.00000000E+00  6.00000000E+00  6.00000000E+00  1.00000000E+00
  1.00000000E+00  1.00000000E+00  1.00000000E+00  1.00000000E+00  1.00000000E+00
  1.00000000E+00
Current cartesian coordinates              R   N=          33
  2.53917925E+00 -2.00462311E-07 -1.07772737E-01 -7.55476772E-01 -2.33781093E-19
  7.60150483E-01 -1.99633119E+00 -2.39126986E+00 -2.26240969E-01 -1.99633062E+00
  2.39127023E+00 -2.26241037E-01 -7.63421893E-01  3.54838695E-07  2.82506323E+00
 -1.05788935E+00 -4.07589980E+00  5.08281745E-01 -3.97933711E+00 -2.43080684E+00
  3.62003583E-01 -1.91967181E+00 -2.44289342E+00 -2.28975409E+00 -1.05788731E+00
  4.07589974E+00  5.08280722E-01 -3.97933616E+00  2.43080830E+00  3.62004678E-01
 -1.91967213E+00  2.44289283E+00 -2.28975419E+00
Force Field                                I                0
Int Atom Types                             I   N=          11
           0           0           0           0           0           0
           0           0           0           0           0
MM charges                                 R   N=          11
  0.00000000E+00  0.00000000E+00  0.00000000E+00  0.00000000E+00  0.00000000E+00
  0.00000000E+00  0.00000000E+00  0.00000000E+00  0.00000000E+00  0.00000000E+00
  0.00000000E+00
Integer atomic weights                     I   N=          11
          35          12          12          12           1           1
           1           1           1           1           1
Real atomic weights                        R   N=          11
  3.49688527E+01  1.20000000E+01  1.20000000E+01  1.20000000E+01  1.00782504E+00
  1.00782504E+00  1.00782504E+00  1.00782504E+00  1.00782504E+00  1.00782504E+00
  1.00782504E+00
Atom fragment info                         I   N=          11
           0           0           0           0           0           0
           0           0           0           0           0
Atom residue num                           I   N=          11
           0           0           0           0           0           0
           0           0           0           0           0
Nuclear spins                              I   N=          11
           3           0           0           0           1           1
           1           1           1           1           1
Nuclear ZEff                               R   N=          11
 -1.42400000E+01 -3.60000000E+00 -3.60000000E+00 -3.60000000E+00 -1.00000000E+00
 -1.00000000E+00 -1.00000000E+00 -1.00000000E+00 -1.00000000E+00 -1.00000000E+00
 -1.00000000E+00
Nuclear QMom                               R   N=          11
 -8.16500000E+00  0.00000000E+00  0.00000000E+00  0.00000000E+00  0.00000000E+00
  0.00000000E+00  0.00000000E+00  0.00000000E+00  0.00000000E+00  0.00000000E+00
  0.00000000E+00
Nuclear GFac                               R   N=          11
  8.21874000E-01  0.00000000E+00  0.00000000E+00  0.00000000E+00  2.79284600E+00
  2.79284600E+00  2.79284600E+00  2.79284600E+00  2.79284600E+00  2.79284600E+00
  2.79284600E+00
MicOpt                                     I   N=          11
          -1          -1          -1          -1          -1          -1
          -1          -1          -1          -1          -1
Number of contracted shells                I               31
Number of primitive shells                 I               78
Pure/Cartesian d shells                    I                1
Pure/Cartesian f shells                    I                0
Highest angular momentum                   I                2
Largest degree of contraction              I                6
Shell types                                I   N=          31
           0          -1          -1          -1           2           0
          -1          -1           2           0          -1          -1
           2           0          -1          -1           2           0
           0           0           0           0           0           0
           0           0           0           0           0           0
           0
Number of primitives per shell             I   N=          31
           6           6           3           1           1           6
           3           1           1           6           3           1
           1           6           3           1           1           3
           1           3           1           3           1           3
           1           3           1           3           1           3
           1
Shell to atom map                          I   N=          31
           1           1           1           1           1           2
           2           2           2           3           3           3
           3           4           4           4           4           5
           5           6           6           7           7           8
           8           9           9          10          10          11
          11
Primitive exponents                        R   N=          78
  2.51801000E+04  3.78035000E+03  8.60474000E+02  2.42145000E+02  7.73349000E+01
  2.62470000E+01  4.91765000E+02  1.16984000E+02  3.74153000E+01  1.37834000E+01
  5.45215000E+00  2.22588000E+00  3.18649000E+00  1.14427000E+00  4.20377000E-01
  1.42657000E-01  7.50000000E-01  3.04752488E+03  4.57369518E+02  1.03948685E+02
  2.92101553E+01  9.28666296E+00  3.16392696E+00  7.86827235E+00  1.88128854E+00
  5.44249258E-01  1.68714478E-01  8.00000000E-01  3.04752488E+03  4.57369518E+02
  1.03948685E+02  2.92101553E+01  9.28666296E+00  3.16392696E+00  7.86827235E+00
  1.88128854E+00  5.44249258E-01  1.68714478E-01  8.00000000E-01  3.04752488E+03
  4.57369518E+02  1.03948685E+02  2.92101553E+01  9.28666296E+00  3.16392696E+00
  7.86827235E+00  1.88128854E+00  5.44249258E-01  1.68714478E-01  8.00000000E-01
  1.87311370E+01  2.82539436E+00  6.40121692E-01  1.61277759E-01  1.87311370E+01
  2.82539436E+00  6.40121692E-01  1.61277759E-01  1.87311370E+01  2.82539436E+00
  6.40121692E-01  1.61277759E-01  1.87311370E+01  2.82539436E+00  6.40121692E-01
  1.61277759E-01  1.87311370E+01  2.82539436E+00  6.40121692E-01  1.61277759E-01
  1.87311370E+01  2.82539436E+00  6.40121692E-01  1.61277759E-01  1.87311370E+01
  2.82539436E+00  6.40121692E-01  1.61277759E-01
Contraction coefficients                   R   N=          78
  1.83295985E-03  1.40341988E-02  6.90973943E-02  2.37451980E-01  4.83033960E-01
  3.39855972E-01 -2.29739142E-03 -3.07137189E-02 -1.12528069E-01  4.50163278E-02
  5.89353363E-01  4.65206287E-01 -2.51828028E-01  6.15892514E-02  1.06018433E+00
  1.00000000E+00  1.00000000E+00  1.83473713E-03  1.40373228E-02  6.88426223E-02
  2.32184443E-01  4.67941348E-01  3.62311985E-01 -1.19332420E-01 -1.60854152E-01
  1.14345644E+00  1.00000000E+00  1.00000000E+00  1.83473713E-03  1.40373228E-02
  6.88426223E-02  2.32184443E-01  4.67941348E-01  3.62311985E-01 -1.19332420E-01
 -1.60854152E-01  1.14345644E+00  1.00000000E+00  1.00000000E+00  1.83473713E-03
  1.40373228E-02  6.88426223E-02  2.32184443E-01  4.67941348E-01  3.62311985E-01
 -1.19332420E-01 -1.60854152E-01  1.14345644E+00  1.00000000E+00  1.00000000E+00
  3.34946043E-02  2.34726953E-01  8.13757326E-01  1.00000000E+00  3.34946043E-02
  2.34726953E-01  8.13757326E-01  1.00000000E+00  3.34946043E-02  2.34726953E-01
  8.13757326E-01  1.00000000E+00  3.34946043E-02  2.34726953E-01  8.13757326E-01
  1.00000000E+00  3.34946043E-02  2.34726953E-01  8.13757326E-01  1.00000000E+00
  3.34946043E-02  2.34726953E-01  8.13757326E-01  1.00000000E+00  3.34946043E-02
  2.34726953E-01  8.13757326E-01  1.00000000E+00
P(S=P) Contraction coefficients            R   N=          78
  0.00000000E+00  0.00000000E+00  0.00000000E+00  0.00000000E+00  0.00000000E+00
  0.00000000E+00  3.98940088E-03  3.03177067E-02  1.29880029E-01  3.27951072E-01
  4.53527100E-01  2.52154056E-01 -1.42993147E-02  3.23572333E-01  7.43507765E-01
  1.00000000E+00  0.00000000E+00  0.00000000E+00  0.00000000E+00  0.00000000E+00
  0.00000000E+00  0.00000000E+00  0.00000000E+00  6.89990666E-02  3.16423961E-01
  7.44308291E-01  1.00000000E+00  0.00000000E+00  0.00000000E+00  0.00000000E+00
  0.00000000E+00  0.00000000E+00  0.00000000E+00  0.00000000E+00  6.89990666E-02
  3.16423961E-01  7.44308291E-01  1.00000000E+00  0.00000000E+00  0.00000000E+00
  0.00000000E+00  0.00000000E+00  0.00000000E+00  0.00000000E+00  0.00000000E+00
  6.89990666E-02  3.16423961E-01  7.44308291E-01  1.00000000E+00  0.00000000E+00
  0.00000000E+00  0.00000000E+00  0.00000000E+00  0.00000000E+00  0.00000000E+00
  0.00000000E+00  0.00000000E+00  0.00000000E+00  0.00000000E+00  0.00000000E+00
  0.00000000E+00  0.00000000E+00  0.00000000E+00  0.00000000E+00  0.00000000E+00
  0.00000000E+00  0.00000000E+00  0.00000000E+00  0.00000000E+00  0.00000000E+00
  0.00000000E+00  0.00000000E+00  0.00000000E+00  0.00000000E+00  0.00000000E+00
  0.00000000E+00  0.00000000E+00  0.00000000E+00
Coordinates of each shell                  R   N=          93
  2.53917925E+00 -2.00462311E-07 -1.07772737E-01  2.53917925E+00 -2.00462311E-07
 -1.07772737E-01  2.53917925E+00 -2.00462311E-07 -1.07772737E-01  2.53917925E+00
 -2.00462311E-07 -1.07772737E-01  2.53917925E+00 -2.00462311E-07 -1.07772737E-01
 -7.55476772E-01 -1.78723952E-19  7.60150483E-01 -7.55476772E-01 -1.78723952E-19
  7.60150483E-01 -7.55476772E-01 -1.78723952E-19  7.60150483E-01 -7.55476772E-01
 -1.78723952E-19  7.60150483E-01 -1.99633119E+00 -2.39126986E+00 -2.26240969E-01
 -1.99633119E+00 -2.39126986E+00 -2.26240969E-01 -1.99633119E+00 -2.39126986E+00
 -2.26240969E-01 -1.99633119E+00 -2.39126986E+00 -2.26240969E-01 -1.99633062E+00
  2.39127023E+00 -2.26241037E-01 -1.99633062E+00  2.39127023E+00 -2.26241037E-01
 -1.99633062E+00  2.39127023E+00 -2.26241037E-01 -1.99633062E+00  2.39127023E+00
 -2.26241037E-01 -7.63421893E-01  3.54838695E-07  2.82506323E+00 -7.63421893E-01
  3.54838695E-07  2.82506323E+00 -1.05788935E+00 -4.07589980E+00  5.08281745E-01
 -1.05788935E+00 -4.07589980E+00  5.08281745E-01 -3.97933711E+00 -2.43080684E+00
  3.62003583E-01 -3.97933711E+00 -2.43080684E+00  3.62003583E-01 -1.91967181E+00
 -2.44289342E+00 -2.28975409E+00 -1.91967181E+00 -2.44289342E+00 -2.28975409E+00
 -1.05788731E+00  4.07589974E+00  5.08280722E-01 -1.05788731E+00  4.07589974E+00
  5.08280722E-01 -3.97933616E+00  2.43080830E+00  3.62004678E-01 -3.97933616E+00
  2.43080830E+00  3.62004678E-01 -1.91967213E+00  2.44289283E+00 -2.28975419E+00
 -1.91967213E+00  2.44289283E+00 -2.28975419E+00
Constraint Structure                       R   N=          33
  2.53917925E+00 -2.00462311E-07 -1.07772737E-01 -7.55476772E-01 -1.78723952E-19
  7.60150483E-01 -1.99633119E+00 -2.39126986E+00 -2.26240969E-01 -1.99633062E+00
  2.39127023E+00 -2.26241037E-01 -7.63421893E-01  3.54838695E-07  2.82506323E+00
 -1.05788935E+00 -4.07589980E+00  5.08281745E-01 -3.97933711E+00 -2.43080684E+00
  3.62003583E-01 -1.91967181E+00 -2.44289342E+00 -2.28975409E+00 -1.05788731E+00
  4.07589974E+00  5.08280722E-01 -3.97933616E+00  2.43080830E+00  3.62004678E-01
 -1.91967213E+00  2.44289283E+00 -2.28975419E+00
Num ILSW                                   I              100
ILSW                                       I   N=         100
           0           1           0           0           2           0
           0           0           0           0           0          -1
           0           0           0           0           0           0
           0           0           0           0           1           0
           1           0           0           0           0           0
           0           0      100000           0          -1           0
           0           0           0           0           0           0
           0           0           0           1           1           0
           0           0           1           0           0           0
           0           0           4          40           0           0
           0           0           0           0           0           0
           0           0           0           0           0           0
           0           0           0           0           0           0
           0           0           0           0           0           0
           0           0           0           0           0           0
           0           0           0           0           0           0
           0           0           0           0
Num RLSW                                   I               40
RLSW                                       R   N=          40
  1.00000000E+00  1.00000000E+00  1.00000000E+00  1.00000000E+00  1.00000000E+00
  0.00000000E+00  0.00000000E+00  1.00000000E+00  0.00000000E+00  0.00000000E+00
  0.00000000E+00  0.00000000E+00  1.00000000E+00  0.00000000E+00  0.00000000E+00
  0.00000000E+00  0.00000000E+00  1.00000000E+00  0.00000000E+00  0.00000000E+00
  0.00000000E+00  0.00000000E+00  1.00000000E+00  0.00000000E+00  0.00000000E+00
  0.00000000E+00  0.00000000E+00  1.00000000E+00  0.00000000E+00  0.00000000E+00
  0.00000000E+00  0.00000000E+00  0.00000000E+00  0.00000000E+00  0.00000000E+00
  0.00000000E+00  0.00000000E+00  0.00000000E+00  1.00000000E+00  1.00000000E+00
MxBond                                     I                4
NBond                                      I   N=          11
           1           4           4           4           1           1
           1           1           1           1           1
IBond                                      I   N=          44
           2           0           0           0           1           3
           4           5           2           6           7           8
           2           9          10          11           2           0
           0           0           3           0           0           0
           3           0           0           0           3           0
           0           0           4           0           0           0
           4           0           0           0           4           0
           0           0
RBond                                      R   N=          44
  1.00000000E+00  0.00000000E+00  0.00000000E+00  0.00000000E+00  1.00000000E+00
  1.00000000E+00  1.00000000E+00  1.00000000E+00  1.00000000E+00  1.00000000E+00
  1.00000000E+00  1.00000000E+00  1.00000000E+00  1.00000000E+00  1.00000000E+00
  1.00000000E+00  1.00000000E+00  0.00000000E+00  0.00000000E+00  0.00000000E+00
  1.00000000E+00  0.00000000E+00  0.00000000E+00  0.00000000E+00  1.00000000E+00
  0.00000000E+00  0.00000000E+00  0.00000000E+00  1.00000000E+00  0.00000000E+00
  0.00000000E+00  0.00000000E+00  1.00000000E+00  0.00000000E+00  0.00000000E+00
  0.00000000E+00  1.00000000E+00  0.00000000E+00  0.00000000E+00  0.00000000E+00
  1.00000000E+00  0.00000000E+00  0.00000000E+00  0.00000000E+00
Virial Ratio                               R      2.000515680761126E+00
SCF Energy                                 R     -5.771688452399392E+02
MP2 Energy                                 R     -5.776951474639603E+02
Total Energy                               R     -5.776951474639603E+02
Post-SCF wavefunction norm                 R      1.536658959922832E+00
RMS Force                                  R      9.074350530769858E-07
RMS Density                                R      1.507663355829450E-09
External E-field                           R   N=          35
  0.00000000E+00  0.00000000E+00  0.00000000E+00  0.00000000E+00  0.00000000E+00
  0.00000000E+00  0.00000000E+00  0.00000000E+00  0.00000000E+00  0.00000000E+00
  0.00000000E+00  0.00000000E+00  0.00000000E+00  0.00000000E+00  0.00000000E+00
  0.00000000E+00  0.00000000E+00  0.00000000E+00  0.00000000E+00  0.00000000E+00
  0.00000000E+00  0.00000000E+00  0.00000000E+00  0.00000000E+00  0.00000000E+00
  0.00000000E+00  0.00000000E+00  0.00000000E+00  0.00000000E+00  0.00000000E+00
  0.00000000E+00  0.00000000E+00  0.00000000E+00  0.00000000E+00  0.00000000E+00
IOpCl                                      I                0
IROHF                                      I                0
Alpha Orbital Energies                     R   N=          78
 -1.04800610E+02 -1.12994629E+01 -1.12327140E+01 -1.12326953E+01 -1.05348390E+01
 -8.00406652E+00 -8.00097001E+00 -8.00094967E+00 -1.14778828E+00 -1.01624556E+00
 -9.52691465E-01 -7.99187434E-01 -6.50463438E-01 -6.15373684E-01 -5.90938803E-01
 -5.55789130E-01 -5.18134377E-01 -5.12207265E-01 -4.90254893E-01 -4.25883504E-01
 -4.25863360E-01  1.97830691E-01  2.31634284E-01  2.75306152E-01  2.90294191E-01
  2.96005103E-01  3.13804867E-01  3.34310701E-01  3.38713753E-01  3.67551728E-01
  4.03969069E-01  5.71310426E-01  6.36974751E-01  6.66043646E-01  6.72227075E-01
  6.94658058E-01  7.03013613E-01  7.54651144E-01  7.90454115E-01  8.41506066E-01
  9.40645723E-01  9.42775145E-01  9.67959262E-01  9.93360449E-01  1.12151975E+00
  1.14122013E+00  1.14952547E+00  1.16201514E+00  1.17584835E+00  1.18330547E+00
  1.19248711E+00  1.20655375E+00  1.24156120E+00  1.24879914E+00  1.31521878E+00
  1.32887736E+00  1.44725916E+00  1.64277378E+00  1.72397186E+00  1.80619461E+00
  1.81719544E+00  2.03903224E+00  2.18912205E+00  2.22772227E+00  2.27532549E+00
  2.34847824E+00  2.39648210E+00  2.54529912E+00  2.57491278E+00  2.59393866E+00
  2.71869412E+00  2.74501148E+00  2.90053372E+00  3.00197886E+00  4.53215689E+00
  4.68947140E+00  4.73048212E+00  4.88184829E+00
Alpha MO coefficients                      R   N=        6084
  9.96116283E-01  1.46449125E-02 -5.30470968E-05  2.57532503E-12  1.25469210E-05
 -1.77366536E-02  6.43294715E-05 -7.27104833E-12 -9.42901233E-06  1.48884208E-03
 -7.42319790E-05  1.33225254E-11  1.27953838E-05  6.25574449E-03  6.25988570E-03
  6.25783366E-03  3.88579249E-14 -1.59255472E-06  2.85931885E-13 -1.21771302E-05
  2.28228516E-06  5.37903376E-05 -6.41212699E-12 -1.06330377E-05  2.46436849E-04
 -5.45997857E-05  2.96509027E-12 -5.14051222E-05 -3.32256974E-05 -4.85463832E-06
 -2.11191328E-05  3.28451343E-12  5.43646283E-06  8.47934007E-13 -1.35492226E-06
  1.91286906E-05 -7.55944244E-06 -9.08045710E-06 -3.84490455E-06 -5.35140201E-05
 -7.36751870E-05 -7.47232666E-05  1.78804566E-07 -1.80993231E-05 -1.72224420E-05
 -1.14654960E-05 -1.12052529E-05 -2.03128279E-06  1.04062402E-06 -1.35492356E-06
  1.91286814E-05 -7.55944738E-06  9.08045566E-06 -3.84491071E-06 -5.35139813E-05
 -7.36751231E-05  7.47233216E-05  1.78850777E-07 -1.80993167E-05 -1.72224443E-05
 -1.14655029E-05  1.12052518E-05 -2.03128406E-06 -1.04061998E-06 -1.39023919E-05
 -6.73834693E-05  1.19932132E-05 -5.00632943E-05 -5.58635553E-06 -2.78353054E-05
  1.43785019E-05 -3.52388864E-05  1.19931987E-05 -5.00633585E-05 -5.58635421E-06
 -2.78353008E-05  1.43785065E-05 -3.52388595E-05 -2.99682569E-05  7.91786615E-05
  6.98795938E-05 -7.05590176E-12 -1.25091170E-05  2.69643911E-04 -5.52957137E-04
  5.29306127E-11  1.12132493E-04  2.69083407E-03 -1.60278133E-03  8.85474811E-11
  3.37508164E-04 -2.49797008E-05 -1.25809660E-04 -1.07344783E-04 -1.15903409E-11
  2.40941241E-05  6.36526109E-12  9.96008829E-01  2.80016534E-02  7.20889129E-04
 -5.56193992E-11 -3.17317895E-04 -1.78086117E-02 -2.78544275E-04 -7.00110039E-10
  1.18414102E-03 -1.62677118E-03 -1.25530209E-03 -1.22717166E-03  1.12757922E-10
  1.17400235E-04  7.60129269E-11  4.53196297E-03  1.17640381E-04  4.00804628E-05
  9.93427991E-05  1.24557575E-05  4.40563443E-03  9.67740967E-04  1.59468117E-03
  5.11963362E-04 -1.92443877E-04 -3.41306141E-04 -1.66387924E-04 -1.22936102E-04
 -8.57847988E-05 -1.39299983E-04  4.53196183E-03  1.17640344E-04  4.00804566E-05
 -9.93429718E-05  1.24558376E-05  4.40563500E-03  9.67741085E-04 -1.59468136E-03
  5.11963443E-04 -1.92443783E-04 -3.41306122E-04 -1.66387935E-04  1.22936020E-04
 -8.57847199E-05  1.39300006E-04  2.56693931E-04  2.43311904E-03 -1.38649994E-04
 -1.72785971E-04 -1.31931163E-04 -3.06255342E-05 -1.70093701E-04 -7.19406965E-05
 -1.38649993E-04 -1.72786435E-04 -1.31931176E-04 -3.06252587E-05 -1.70093674E-04
 -7.19407999E-05  1.18746330E-10 -1.08656342E-08 -3.68370144E-09 -6.74907030E-06
  6.02641993E-11 -1.82189160E-08  2.82457362E-08  5.69487636E-05 -3.51290772E-10
  7.76445473E-08 -6.05927564E-08 -7.39181241E-05 -8.12515128E-09 -1.30664231E-08
 -1.26203731E-08 -2.85109705E-08  5.87811353E-05  4.46175754E-09  5.94910936E-05
 -1.18303717E-06  2.15665306E-08 -1.27102240E-09 -6.81871149E-05 -4.13431606E-09
  7.40099178E-07 -1.59936006E-07 -2.24406701E-03 -7.84599155E-08 -5.27043218E-08
 -9.20798641E-08 -3.11763733E-08 -2.06601700E-04 -2.12293364E-08 -1.58933159E-04
  7.04251928E-01  2.03717205E-02 -1.98275653E-05  2.41250498E-04  1.92086298E-05
 -1.12836275E-02  3.74349681E-05 -9.99243967E-04  2.59350333E-05 -1.23881040E-03
 -1.29483306E-03 -1.23031392E-03 -1.95886727E-05 -2.40864845E-05 -1.35147005E-05
 -7.04007870E-01 -2.03648011E-02  1.98456311E-05  2.41225534E-04 -1.91871375E-05
  1.12801997E-02 -3.75580877E-05 -9.99196455E-04 -2.60253744E-05  1.23834217E-03
  1.29438048E-03  1.22984349E-03 -1.95821517E-05  2.40892675E-05 -1.35073736E-05
 -3.28125013E-08 -5.49675918E-09  9.51316476E-05  1.40059947E-03  1.53676807E-04
  2.05561300E-03  1.69395798E-04  2.05177206E-03 -9.50997770E-05 -1.39992495E-03
 -1.53662060E-04 -2.05506590E-03 -1.69372900E-04 -2.05121691E-03  6.82605041E-07
 -6.26902148E-05 -2.12296617E-05  1.15974813E-09  3.40800897E-07 -1.05252745E-04
  1.62852903E-04 -9.82337929E-09 -1.96029763E-06  4.48267581E-04 -3.49857417E-04
  1.27396083E-08 -4.73632122E-05 -7.52650419E-05 -7.27468799E-05 -1.64489437E-04
 -1.02032513E-08  2.58563731E-05 -1.03283423E-08 -6.82067815E-03  1.24563161E-04
 -7.56231749E-06  1.18887327E-08 -2.43119194E-05  4.27123198E-03 -9.21917247E-04
  3.89271693E-07 -4.51257699E-04 -3.03679632E-04 -5.31229854E-04 -1.79862221E-04
  3.57516248E-08 -1.22264330E-04  2.75431653E-08  7.03919646E-01  1.99571601E-02
  5.19162254E-05  7.20277397E-05  6.23236632E-05 -9.88661037E-03 -3.54365731E-04
 -1.38048154E-04 -2.62983768E-04 -1.35016752E-03 -1.30561388E-03 -1.35685558E-03
 -1.90720968E-05  7.93918433E-06 -2.12268873E-05  7.04163735E-01  1.99642209E-02
  5.19093943E-05 -7.21114009E-05  6.23302670E-05 -9.89052172E-03 -3.54353339E-04
  1.38395080E-04 -2.62974550E-04 -1.35059684E-03 -1.30606273E-03 -1.35728192E-03
  1.90789475E-05  7.93078821E-06  2.12316548E-05 -1.89419092E-04 -3.26476763E-05
  9.19121565E-05  1.94566964E-03  4.21304997E-05  1.57901439E-03  6.62516581E-05
  1.59958543E-03  9.19451540E-05  1.94615502E-03  4.21837796E-05  1.57972652E-03
  6.63102847E-05  1.60029709E-03 -2.86730111E-01  1.03061030E+00 -3.73032112E-03
  1.27769885E-10  1.01893058E-03  2.63352520E-02 -1.27887978E-03  1.07371332E-10
  2.38674024E-04 -6.81018008E-03  1.33357446E-03 -1.90017113E-10 -2.44235720E-04
 -1.23653442E-03 -1.67815520E-03 -1.61467187E-03 -8.87538029E-12 -1.05960742E-04
  9.47811072E-12 -1.32590782E-04  7.86181321E-04 -1.25002401E-05  5.66001619E-12
 -2.90269570E-05 -1.97088004E-03  5.37705107E-04 -3.79166663E-11  8.41862315E-04
 -4.12489683E-04 -3.57626038E-05  7.43887093E-05  9.32477226E-12  1.54397549E-04
  2.12517579E-11 -3.98923127E-05 -3.06509978E-04 -1.38577610E-04  2.74142668E-06
  5.31561702E-05  1.36461361E-03  1.21492390E-03  6.90293877E-04 -2.53447638E-04
 -1.63640504E-05 -2.54934595E-06 -6.44881564E-05  8.58944070E-05  7.70986709E-06
 -1.06343900E-05 -3.98923112E-05 -3.06510007E-04 -1.38577551E-04 -2.74132536E-06
  5.31562491E-05  1.36461348E-03  1.21492356E-03 -6.90294639E-04 -2.53448228E-04
 -1.63640105E-05 -2.54928816E-06 -6.44881825E-05 -8.58943596E-05  7.70996327E-06
  1.06344181E-05 -1.07835328E-04  3.94354361E-04 -1.77567549E-04  1.15592253E-04
  6.31293815E-05  4.82975523E-04 -2.09354461E-04 -3.80463863E-05 -1.77567699E-04
  1.15592869E-04  6.31294022E-05  4.82975565E-04 -2.09354407E-04 -3.80467825E-05
 -1.30770285E-03  4.83680045E-03  9.58055338E-01 -4.71034525E-08 -2.60309317E-01
 -2.44017199E-03  2.22855801E-02 -1.08551157E-09 -5.92928103E-03 -2.04103684E-04
 -5.00146711E-03  2.36102384E-10  1.25099738E-03 -4.24443674E-04  8.11020417E-04
  6.95140620E-04  8.90255017E-11  3.37008215E-04 -2.92033780E-11 -9.82188141E-05
 -1.68815513E-03  2.66221105E-04 -5.24971573E-11 -1.14726264E-05  4.65914757E-03
  9.06777756E-04  2.55949584E-10 -1.45468296E-03  9.82468683E-04 -1.50203604E-04
 -2.30519911E-04 -7.91551922E-11 -4.09123759E-04  2.59609892E-11  5.71932245E-05
  4.06901472E-04 -3.72670529E-05 -7.21445478E-05 -4.99956791E-05 -2.22730226E-03
 -1.32110333E-03 -7.91814345E-04  2.87609016E-04 -8.66776227E-05  9.08196235E-06
  5.38827769E-05 -1.57012471E-04 -1.68731179E-05  5.64264494E-05  5.71932121E-05
  4.06901443E-04 -3.72670990E-05  7.21446371E-05 -4.99956367E-05 -2.22730249E-03
 -1.32110317E-03  7.91814550E-04  2.87608653E-04 -8.66776574E-05  9.08186600E-06
  5.38827964E-05  1.57012460E-04 -1.68732429E-05 -5.64264761E-05 -7.83696380E-05
 -5.76651352E-04  1.42433766E-04  2.45130298E-05 -4.47797420E-05 -2.04218466E-04
  2.00931461E-04  1.66065888E-04  1.42433771E-04  2.45134612E-05 -4.47797636E-05
 -2.04218397E-04  2.00931407E-04  1.66065579E-04 -1.54562844E-11  5.70077478E-11
  1.67516500E-07  9.93533404E-01  4.36889493E-07 -1.83042182E-11  3.54379976E-09
  2.05088509E-02  8.99382015E-09 -1.75132588E-10 -7.37920447E-10 -4.79686423E-03
 -2.08676307E-09 -1.13067450E-10  4.28743856E-11  6.56922237E-11 -3.03911841E-04
 -1.22822081E-10  1.06176020E-04 -1.21508708E-12 -1.02948867E-11 -4.89967800E-11
  5.69337610E-05  8.59356609E-11  3.64780153E-10  7.19940903E-11 -1.22500573E-03
 -8.21868205E-10 -5.80942796E-11  7.84185516E-11 -9.55972530E-12 -1.37375512E-04
 -6.35623821E-11  1.73180518E-04  1.26838736E-05  1.67053473E-04  7.65856170E-07
 -8.48242559E-06  7.94400207E-06 -5.29823030E-04 -8.05457568E-04 -5.32907322E-04
 -2.49272767E-04 -1.27521679E-04 -2.15212304E-05  1.30841115E-06 -5.41539730E-05
 -5.66036782E-05  5.33312771E-07 -1.26838130E-05 -1.67053190E-04 -7.65693012E-07
 -8.48236345E-06 -7.94397732E-06  5.29821476E-04  8.05456041E-04 -5.32907608E-04
  2.49272818E-04  1.27521808E-04  2.15212505E-05 -1.30833179E-06 -5.41539027E-05
  5.66037065E-05  5.33171026E-07  7.29835266E-11  8.12596196E-10  2.16324543E-04
 -5.81050213E-04 -2.82475671E-05 -2.97762832E-04  7.85924791E-05 -2.91567920E-04
 -2.16324482E-04  5.81051488E-04  2.82475112E-05  2.97762289E-04 -7.85922145E-05
  2.91567580E-04 -7.91761486E-06  7.66617523E-06  2.60460764E-01 -4.65529781E-07
  9.58798143E-01 -5.75216204E-05  5.48853158E-03 -9.59935494E-09  1.96894798E-02
 -7.46989059E-05 -1.21103665E-03  2.29568651E-09 -4.51577509E-03 -2.16800124E-04
 -2.16951777E-05  8.72963611E-05  1.24712020E-10 -2.68643863E-04 -3.06856487E-11
 -1.28409289E-05 -7.57292967E-05 -8.87588958E-05  1.04400409E-11  1.12227967E-04
  2.91755370E-04  3.53070282E-04  1.71780452E-10 -9.43892078E-04 -1.04197939E-04
  4.77070544E-05  1.31235213E-05  1.08956497E-10 -1.58425579E-04 -8.73981656E-11
  9.17777446E-06  9.32810810E-05  2.29663351E-05 -2.12326871E-05  3.79346689E-06
 -2.50080961E-04 -5.98639487E-04 -1.58636640E-04  1.41983274E-04 -3.09402493E-05
 -1.62266259E-05 -1.11943311E-05 -7.85933812E-05  4.23518711E-05  5.50604317E-05
  9.17778028E-06  9.32812127E-05  2.29664340E-05  2.12327348E-05  3.79343413E-06
 -2.50081102E-04 -5.98640602E-04  1.58636845E-04  1.41983451E-04 -3.09403170E-05
 -1.62267138E-05 -1.11943442E-05  7.85933790E-05  4.23517549E-05 -5.50604902E-05
  4.42182244E-05  1.03713432E-03 -7.85754360E-06  2.05624907E-04 -3.70126770E-05
 -2.63062555E-04  1.72114170E-04 -3.95539073E-04 -7.85726610E-06  2.05624694E-04
 -3.70127163E-05 -2.63063307E-04  1.72114212E-04 -3.95539073E-04  5.24111235E-02
 -2.39295388E-01  3.94962919E-02 -3.37546410E-09 -9.12610349E-03  4.59496263E-01
 -9.05701214E-02  7.63999485E-09  2.09319393E-02  1.74369616E-01 -4.47885428E-03
  1.25693551E-09  7.38826016E-04  2.71025381E-02 -5.91454628E-03 -4.19040819E-03
 -2.47064576E-09 -9.41537784E-03  6.74777094E-10 -1.27102768E-01  2.33977267E-01
  3.09778622E-02  2.62648492E-09 -2.58788550E-02  2.20311294E-01  1.81128766E-02
  5.86381572E-09 -1.12720472E-02  1.12937121E-02  3.36159099E-03  2.01470848E-03
  2.42887067E-10 -2.37417385E-03  1.83047960E-09 -6.48994487E-02  1.20982412E-01
  2.59168343E-02  4.28255189E-02  1.37373674E-02  8.17288080E-02 -2.11253265E-03
  1.04894597E-03  2.84435154E-03  2.55464660E-03  6.69615391E-03  1.43310002E-03
  3.72568336E-03  1.35454663E-03  2.75846408E-03 -6.48994504E-02  1.20982412E-01
  2.59168272E-02 -4.28255235E-02  1.37373690E-02  8.17288092E-02 -2.11253112E-03
 -1.04894624E-03  2.84435056E-03  2.55464562E-03  6.69615528E-03  1.43310069E-03
 -3.72568137E-03  1.35454581E-03 -2.75846344E-03  6.43181352E-02  3.08440541E-03
  3.22456584E-02  2.62818250E-03  3.02568612E-02  2.94751982E-03  3.39047357E-02
  4.53392493E-03  3.22456655E-02  2.62818460E-03  3.02568610E-02  2.94752042E-03