54234924                                                                
Freq      RMP2-FC                                                     6-31G(d)            
Number of atoms                            I               18
Info1-9                                    I   N=           9
          30          28        1002           0           0         100
           6           2           1
Charge                                     I                0
Multiplicity                               I                1
Number of electrons                        I               62
Number of alpha electrons                  I               31
Number of beta electrons                   I               31
Number of basis functions                  I              140
Number of independent functions            I              140
Number of point charges in /Mol/           I                0
Number of translation vectors              I                0
Atomic numbers                             I   N=          18
           8           8           6           6           6           6
           6           6           1           1           1           1
           1           1           1           1           1           1
Nuclear charges                            R   N=          18
  8.00000000E+00  8.00000000E+00  6.00000000E+00  6.00000000E+00  6.00000000E+00
  6.00000000E+00  6.00000000E+00  6.00000000E+00  1.00000000E+00  1.00000000E+00
  1.00000000E+00  1.00000000E+00  1.00000000E+00  1.00000000E+00  1.00000000E+00
  1.00000000E+00  1.00000000E+00  1.00000000E+00
Current cartesian coordinates              R   N=          54
 -7.25154057E-01 -1.24257084E+00 -4.13901077E-01  1.44469139E+00  2.47484789E+00
 -5.68473105E-01 -2.97310410E+00  1.67073075E-01 -8.57144825E-01 -4.41231184E+00
  1.08304171E+00  1.38934016E+00 -5.34565077E+00 -1.15751638E+00 -1.23401731E-01
  1.41673820E+00  1.91706768E-01 -2.77853017E-01  3.68238094E+00 -1.45894615E+00
  2.46582419E-01  6.12558074E+00  5.33490908E-02  3.76971422E-01 -2.90663906E+00
  1.31968384E+00 -2.55139754E+00 -5.39907853E+00  2.87388732E+00  1.24374317E+00
 -3.59215489E+00  6.90967468E-01  3.22615700E+00 -5.13330328E+00 -3.01116221E+00
  7.24074018E-01 -6.99444749E+00 -9.34742352E-01 -1.32078438E+00  3.76035837E+00
 -2.90725498E+00 -1.23096419E+00  3.32203998E+00 -2.47692047E+00  2.01364661E+00
  6.47275765E+00  1.03754215E+00 -1.40256511E+00  6.02819901E+00  1.47447096E+00
  1.86921621E+00  7.72417050E+00 -1.19693680E+00  7.60901095E-01
Force Field                                I                0
Int Atom Types                             I   N=          18
           0           0           0           0           0           0
           0           0           0           0           0           0
           0           0           0           0           0           0
MM charges                                 R   N=          18
  0.00000000E+00  0.00000000E+00  0.00000000E+00  0.00000000E+00  0.00000000E+00
  0.00000000E+00  0.00000000E+00  0.00000000E+00  0.00000000E+00  0.00000000E+00
  0.00000000E+00  0.00000000E+00  0.00000000E+00  0.00000000E+00  0.00000000E+00
  0.00000000E+00  0.00000000E+00  0.00000000E+00
Integer atomic weights                     I   N=          18
          16          16          12          12          12          12
          12          12           1           1           1           1
           1           1           1           1           1           1
Real atomic weights                        R   N=          18
  1.59949146E+01  1.59949146E+01  1.20000000E+01  1.20000000E+01  1.20000000E+01
  1.20000000E+01  1.20000000E+01  1.20000000E+01  1.00782504E+00  1.00782504E+00
  1.00782504E+00  1.00782504E+00  1.00782504E+00  1.00782504E+00  1.00782504E+00
  1.00782504E+00  1.00782504E+00  1.00782504E+00
Atom fragment info                         I   N=          18
           0           0           0           0           0           0
           0           0           0           0           0           0
           0           0           0           0           0           0
Atom residue num                           I   N=          18
           0           0           0           0           0           0
           0           0           0           0           0           0
           0           0           0           0           0           0
Nuclear spins                              I   N=          18
           0           0           0           0           0           0
           0           0           1           1           1           1
           1           1           1           1           1           1
Nuclear ZEff                               R   N=          18
 -5.60000000E+00 -5.60000000E+00 -3.60000000E+00 -3.60000000E+00 -3.60000000E+00
 -3.60000000E+00 -3.60000000E+00 -3.60000000E+00 -1.00000000E+00 -1.00000000E+00
 -1.00000000E+00 -1.00000000E+00 -1.00000000E+00 -1.00000000E+00 -1.00000000E+00
 -1.00000000E+00 -1.00000000E+00 -1.00000000E+00
Nuclear QMom                               R   N=          18
  0.00000000E+00  0.00000000E+00  0.00000000E+00  0.00000000E+00  0.00000000E+00
  0.00000000E+00  0.00000000E+00  0.00000000E+00  0.00000000E+00  0.00000000E+00
  0.00000000E+00  0.00000000E+00  0.00000000E+00  0.00000000E+00  0.00000000E+00
  0.00000000E+00  0.00000000E+00  0.00000000E+00
Nuclear GFac                               R   N=          18
  0.00000000E+00  0.00000000E+00  0.00000000E+00  0.00000000E+00  0.00000000E+00
  0.00000000E+00  0.00000000E+00  0.00000000E+00  2.79284600E+00  2.79284600E+00
  2.79284600E+00  2.79284600E+00  2.79284600E+00  2.79284600E+00  2.79284600E+00
  2.79284600E+00  2.79284600E+00  2.79284600E+00
MicOpt                                     I   N=          18
          -1          -1          -1          -1          -1          -1
          -1          -1          -1          -1          -1          -1
          -1          -1          -1          -1          -1          -1
Number of contracted shells                I               52
Number of primitive shells                 I              128
Pure/Cartesian d shells                    I                1
Pure/Cartesian f shells                    I                0
Highest angular momentum                   I                2
Largest degree of contraction              I                6
Shell types                                I   N=          52
           0          -1          -1           2           0          -1
          -1           2           0          -1          -1           2
           0          -1          -1           2           0          -1
          -1           2           0          -1          -1           2
           0          -1          -1           2           0          -1
          -1           2           0           0           0           0
           0           0           0           0           0           0
           0           0           0           0           0           0
           0           0           0           0
Number of primitives per shell             I   N=          52
           6           3           1           1           6           3
           1           1           6           3           1           1
           6           3           1           1           6           3
           1           1           6           3           1           1
           6           3           1           1           6           3
           1           1           3           1           3           1
           3           1           3           1           3           1
           3           1           3           1           3           1
           3           1           3           1
Shell to atom map                          I   N=          52
           1           1           1           1           2           2
           2           2           3           3           3           3
           4           4           4           4           5           5
           5           5           6           6           6           6
           7           7           7           7           8           8
           8           8           9           9          10          10
          11          11          12          12          13          13
          14          14          15          15          16          16
          17          17          18          18
Primitive exponents                        R   N=         128
  5.48467166E+03  8.25234946E+02  1.88046958E+02  5.29645000E+01  1.68975704E+01
  5.79963534E+00  1.55396162E+01  3.59993359E+00  1.01376175E+00  2.70005823E-01
  8.00000000E-01  5.48467166E+03  8.25234946E+02  1.88046958E+02  5.29645000E+01
  1.68975704E+01  5.79963534E+00  1.55396162E+01  3.59993359E+00  1.01376175E+00
  2.70005823E-01  8.00000000E-01  3.04752488E+03  4.57369518E+02  1.03948685E+02
  2.92101553E+01  9.28666296E+00  3.16392696E+00  7.86827235E+00  1.88128854E+00
  5.44249258E-01  1.68714478E-01  8.00000000E-01  3.04752488E+03  4.57369518E+02
  1.03948685E+02  2.92101553E+01  9.28666296E+00  3.16392696E+00  7.86827235E+00
  1.88128854E+00  5.44249258E-01  1.68714478E-01  8.00000000E-01  3.04752488E+03
  4.57369518E+02  1.03948685E+02  2.92101553E+01  9.28666296E+00  3.16392696E+00
  7.86827235E+00  1.88128854E+00  5.44249258E-01  1.68714478E-01  8.00000000E-01
  3.04752488E+03  4.57369518E+02  1.03948685E+02  2.92101553E+01  9.28666296E+00
  3.16392696E+00  7.86827235E+00  1.88128854E+00  5.44249258E-01  1.68714478E-01
  8.00000000E-01  3.04752488E+03  4.57369518E+02  1.03948685E+02  2.92101553E+01
  9.28666296E+00  3.16392696E+00  7.86827235E+00  1.88128854E+00  5.44249258E-01
  1.68714478E-01  8.00000000E-01  3.04752488E+03  4.57369518E+02  1.03948685E+02
  2.92101553E+01  9.28666296E+00  3.16392696E+00  7.86827235E+00  1.88128854E+00
  5.44249258E-01  1.68714478E-01  8.00000000E-01  1.87311370E+01  2.82539436E+00
  6.40121692E-01  1.61277759E-01  1.87311370E+01  2.82539436E+00  6.40121692E-01
  1.61277759E-01  1.87311370E+01  2.82539436E+00  6.40121692E-01  1.61277759E-01
  1.87311370E+01  2.82539436E+00  6.40121692E-01  1.61277759E-01  1.87311370E+01
  2.82539436E+00  6.40121692E-01  1.61277759E-01  1.87311370E+01  2.82539436E+00
  6.40121692E-01  1.61277759E-01  1.87311370E+01  2.82539436E+00  6.40121692E-01
  1.61277759E-01  1.87311370E+01  2.82539436E+00  6.40121692E-01  1.61277759E-01
  1.87311370E+01  2.82539436E+00  6.40121692E-01  1.61277759E-01  1.87311370E+01
  2.82539436E+00  6.40121692E-01  1.61277759E-01
Contraction coefficients                   R   N=         128
  1.83107443E-03  1.39501722E-02  6.84450781E-02  2.32714336E-01  4.70192898E-01
  3.58520853E-01 -1.10777550E-01 -1.48026263E-01  1.13076702E+00  1.00000000E+00
  1.00000000E+00  1.83107443E-03  1.39501722E-02  6.84450781E-02  2.32714336E-01
  4.70192898E-01  3.58520853E-01 -1.10777550E-01 -1.48026263E-01  1.13076702E+00
  1.00000000E+00  1.00000000E+00  1.83473713E-03  1.40373228E-02  6.88426223E-02
  2.32184443E-01  4.67941348E-01  3.62311985E-01 -1.19332420E-01 -1.60854152E-01
  1.14345644E+00  1.00000000E+00  1.00000000E+00  1.83473713E-03  1.40373228E-02
  6.88426223E-02  2.32184443E-01  4.67941348E-01  3.62311985E-01 -1.19332420E-01
 -1.60854152E-01  1.14345644E+00  1.00000000E+00  1.00000000E+00  1.83473713E-03
  1.40373228E-02  6.88426223E-02  2.32184443E-01  4.67941348E-01  3.62311985E-01
 -1.19332420E-01 -1.60854152E-01  1.14345644E+00  1.00000000E+00  1.00000000E+00
  1.83473713E-03  1.40373228E-02  6.88426223E-02  2.32184443E-01  4.67941348E-01
  3.62311985E-01 -1.19332420E-01 -1.60854152E-01  1.14345644E+00  1.00000000E+00
  1.00000000E+00  1.83473713E-03  1.40373228E-02  6.88426223E-02  2.32184443E-01
  4.67941348E-01  3.62311985E-01 -1.19332420E-01 -1.60854152E-01  1.14345644E+00
  1.00000000E+00  1.00000000E+00  1.83473713E-03  1.40373228E-02  6.88426223E-02
  2.32184443E-01  4.67941348E-01  3.62311985E-01 -1.19332420E-01 -1.60854152E-01
  1.14345644E+00  1.00000000E+00  1.00000000E+00  3.34946043E-02  2.34726953E-01
  8.13757326E-01  1.00000000E+00  3.34946043E-02  2.34726953E-01  8.13757326E-01
  1.00000000E+00  3.34946043E-02  2.34726953E-01  8.13757326E-01  1.00000000E+00
  3.34946043E-02  2.34726953E-01  8.13757326E-01  1.00000000E+00  3.34946043E-02
  2.34726953E-01  8.13757326E-01  1.00000000E+00  3.34946043E-02  2.34726953E-01
  8.13757326E-01  1.00000000E+00  3.34946043E-02  2.34726953E-01  8.13757326E-01
  1.00000000E+00  3.34946043E-02  2.34726953E-01  8.13757326E-01  1.00000000E+00
  3.34946043E-02  2.34726953E-01  8.13757326E-01  1.00000000E+00  3.34946043E-02
  2.34726953E-01  8.13757326E-01  1.00000000E+00
P(S=P) Contraction coefficients            R   N=         128
  0.00000000E+00  0.00000000E+00  0.00000000E+00  0.00000000E+00  0.00000000E+00
  0.00000000E+00  7.08742682E-02  3.39752839E-01  7.27158577E-01  1.00000000E+00
  0.00000000E+00  0.00000000E+00  0.00000000E+00  0.00000000E+00  0.00000000E+00
  0.00000000E+00  0.00000000E+00  7.08742682E-02  3.39752839E-01  7.27158577E-01
  1.00000000E+00  0.00000000E+00  0.00000000E+00  0.00000000E+00  0.00000000E+00
  0.00000000E+00  0.00000000E+00  0.00000000E+00  6.89990666E-02  3.16423961E-01
  7.44308291E-01  1.00000000E+00  0.00000000E+00  0.00000000E+00  0.00000000E+00
  0.00000000E+00  0.00000000E+00  0.00000000E+00  0.00000000E+00  6.89990666E-02
  3.16423961E-01  7.44308291E-01  1.00000000E+00  0.00000000E+00  0.00000000E+00
  0.00000000E+00  0.00000000E+00  0.00000000E+00  0.00000000E+00  0.00000000E+00
  6.89990666E-02  3.16423961E-01  7.44308291E-01  1.00000000E+00  0.00000000E+00
  0.00000000E+00  0.00000000E+00  0.00000000E+00  0.00000000E+00  0.00000000E+00
  0.00000000E+00  6.89990666E-02  3.16423961E-01  7.44308291E-01  1.00000000E+00
  0.00000000E+00  0.00000000E+00  0.00000000E+00  0.00000000E+00  0.00000000E+00
  0.00000000E+00  0.00000000E+00  6.89990666E-02  3.16423961E-01  7.44308291E-01
  1.00000000E+00  0.00000000E+00  0.00000000E+00  0.00000000E+00  0.00000000E+00
  0.00000000E+00  0.00000000E+00  0.00000000E+00  6.89990666E-02  3.16423961E-01
  7.44308291E-01  1.00000000E+00  0.00000000E+00  0.00000000E+00  0.00000000E+00
  0.00000000E+00  0.00000000E+00  0.00000000E+00  0.00000000E+00  0.00000000E+00
  0.00000000E+00  0.00000000E+00  0.00000000E+00  0.00000000E+00  0.00000000E+00
  0.00000000E+00  0.00000000E+00  0.00000000E+00  0.00000000E+00  0.00000000E+00
  0.00000000E+00  0.00000000E+00  0.00000000E+00  0.00000000E+00  0.00000000E+00
  0.00000000E+00  0.00000000E+00  0.00000000E+00  0.00000000E+00  0.00000000E+00
  0.00000000E+00  0.00000000E+00  0.00000000E+00  0.00000000E+00  0.00000000E+00
  0.00000000E+00  0.00000000E+00  0.00000000E+00  0.00000000E+00  0.00000000E+00
  0.00000000E+00  0.00000000E+00  0.00000000E+00
Coordinates of each shell                  R   N=         156
 -7.25154057E-01 -1.24257084E+00 -4.13901077E-01 -7.25154057E-01 -1.24257084E+00
 -4.13901077E-01 -7.25154057E-01 -1.24257084E+00 -4.13901077E-01 -7.25154057E-01
 -1.24257084E+00 -4.13901077E-01  1.44469139E+00  2.47484789E+00 -5.68473105E-01
  1.44469139E+00  2.47484789E+00 -5.68473105E-01  1.44469139E+00  2.47484789E+00
 -5.68473105E-01  1.44469139E+00  2.47484789E+00 -5.68473105E-01 -2.97310410E+00
  1.67073075E-01 -8.57144825E-01 -2.97310410E+00  1.67073075E-01 -8.57144825E-01
 -2.97310410E+00  1.67073075E-01 -8.57144825E-01 -2.97310410E+00  1.67073075E-01
 -8.57144825E-01 -4.41231184E+00  1.08304171E+00  1.38934016E+00 -4.41231184E+00
  1.08304171E+00  1.38934016E+00 -4.41231184E+00  1.08304171E+00  1.38934016E+00
 -4.41231184E+00  1.08304171E+00  1.38934016E+00 -5.34565077E+00 -1.15751638E+00
 -1.23401731E-01 -5.34565077E+00 -1.15751638E+00 -1.23401731E-01 -5.34565077E+00
 -1.15751638E+00 -1.23401731E-01 -5.34565077E+00 -1.15751638E+00 -1.23401731E-01
  1.41673820E+00  1.91706768E-01 -2.77853017E-01  1.41673820E+00  1.91706768E-01
 -2.77853017E-01  1.41673820E+00  1.91706768E-01 -2.77853017E-01  1.41673820E+00
  1.91706768E-01 -2.77853017E-01  3.68238094E+00 -1.45894615E+00  2.46582419E-01
  3.68238094E+00 -1.45894615E+00  2.46582419E-01  3.68238094E+00 -1.45894615E+00
  2.46582419E-01  3.68238094E+00 -1.45894615E+00  2.46582419E-01  6.12558074E+00
  5.33490908E-02  3.76971422E-01  6.12558074E+00  5.33490908E-02  3.76971422E-01
  6.12558074E+00  5.33490908E-02  3.76971422E-01  6.12558074E+00  5.33490908E-02
  3.76971422E-01 -2.90663906E+00  1.31968384E+00 -2.55139754E+00 -2.90663906E+00
  1.31968384E+00 -2.55139754E+00 -5.39907853E+00  2.87388732E+00  1.24374317E+00
 -5.39907853E+00  2.87388732E+00  1.24374317E+00 -3.59215489E+00  6.90967468E-01
  3.22615700E+00 -3.59215489E+00  6.90967468E-01  3.22615700E+00 -5.13330328E+00
 -3.01116221E+00  7.24074018E-01 -5.13330328E+00 -3.01116221E+00  7.24074018E-01
 -6.99444749E+00 -9.34742352E-01 -1.32078438E+00 -6.99444749E+00 -9.34742352E-01
 -1.32078438E+00  3.76035837E+00 -2.90725498E+00 -1.23096419E+00  3.76035837E+00
 -2.90725498E+00 -1.23096419E+00  3.32203998E+00 -2.47692047E+00  2.01364661E+00
  3.32203998E+00 -2.47692047E+00  2.01364661E+00  6.47275765E+00  1.03754215E+00
 -1.40256511E+00  6.47275765E+00  1.03754215E+00 -1.40256511E+00  6.02819901E+00
  1.47447096E+00  1.86921621E+00  6.02819901E+00  1.47447096E+00  1.86921621E+00
  7.72417050E+00 -1.19693680E+00  7.60901095E-01  7.72417050E+00 -1.19693680E+00
  7.60901095E-01
Constraint Structure                       R   N=          54
 -7.25154057E-01 -1.24257084E+00 -4.13901077E-01  1.44469139E+00  2.47484789E+00
 -5.68473105E-01 -2.97310410E+00  1.67073075E-01 -8.57144825E-01 -4.41231184E+00
  1.08304171E+00  1.38934016E+00 -5.34565077E+00 -1.15751638E+00 -1.23401731E-01
  1.41673820E+00  1.91706768E-01 -2.77853017E-01  3.68238094E+00 -1.45894615E+00
  2.46582419E-01  6.12558074E+00  5.33490908E-02  3.76971422E-01 -2.90663906E+00
  1.31968384E+00 -2.55139754E+00 -5.39907853E+00  2.87388732E+00  1.24374317E+00
 -3.59215489E+00  6.90967468E-01  3.22615700E+00 -5.13330328E+00 -3.01116221E+00
  7.24074018E-01 -6.99444749E+00 -9.34742352E-01 -1.32078438E+00  3.76035837E+00
 -2.90725498E+00 -1.23096419E+00  3.32203998E+00 -2.47692047E+00  2.01364661E+00
  6.47275765E+00  1.03754215E+00 -1.40256511E+00  6.02819901E+00  1.47447096E+00
  1.86921621E+00  7.72417050E+00 -1.19693680E+00  7.60901095E-01
Num ILSW                                   I              100
ILSW                                       I   N=         100
           0           1           0           0           2           0
           0           0           0           0           0          -1
           0           0           0           0           0           0
           0           0           0           0           1           0
           1           0           0           0           0           0
           0           0      100000           0          -1           0
           0           0           0           0           0           0
           0           0           0           1           1           0
           0           0           1           0           0           0
           0           0           4          40           0           0
           0           0           0           0           0           0
           0           0           0           0           0           0
           0           0           0           0           0           0
           0           0           0           0           0           0
           0           0           0           0           0           0
           0           0           0           0           0           0
           0           0           0           0
Num RLSW                                   I               40
RLSW                                       R   N=          40
  1.00000000E+00  1.00000000E+00  1.00000000E+00  1.00000000E+00  1.00000000E+00
  0.00000000E+00  0.00000000E+00  1.00000000E+00  0.00000000E+00  0.00000000E+00
  0.00000000E+00  0.00000000E+00  1.00000000E+00  0.00000000E+00  0.00000000E+00
  0.00000000E+00  0.00000000E+00  1.00000000E+00  0.00000000E+00  0.00000000E+00
  0.00000000E+00  0.00000000E+00  1.00000000E+00  0.00000000E+00  0.00000000E+00
  0.00000000E+00  0.00000000E+00  1.00000000E+00  0.00000000E+00  0.00000000E+00
  0.00000000E+00  0.00000000E+00  0.00000000E+00  0.00000000E+00  0.00000000E+00
  0.00000000E+00  0.00000000E+00  0.00000000E+00  1.00000000E+00  1.00000000E+00
MxBond                                     I                4
NBond                                      I   N=          18
           2           1           4           4           4           3
           4           4           1           1           1           1
           1           1           1           1           1           1
IBond                                      I   N=          72
           3           6           0           0           6           0
           0           0           1           4           5           9
           3           5          10          11           3           4
          12          13           1           2           7           0
           6           8          14          15           7          16
          17          18           3           0           0           0
           4           0           0           0           4           0
           0           0           5           0           0           0
           5           0           0           0           7           0
           0           0           7           0           0           0
           8           0           0           0           8           0
           0           0           8           0           0           0
RBond                                      R   N=          72
  1.00000000E+00  1.50000000E+00  0.00000000E+00  0.00000000E+00  2.00000000E+00
  0.00000000E+00  0.00000000E+00  0.00000000E+00  1.00000000E+00  1.00000000E+00
  1.00000000E+00  1.00000000E+00  1.00000000E+00  1.00000000E+00  1.00000000E+00
  1.00000000E+00  1.00000000E+00  1.00000000E+00  1.00000000E+00  1.00000000E+00
  1.50000000E+00  2.00000000E+00  1.00000000E+00  0.00000000E+00  1.00000000E+00
  1.00000000E+00  1.00000000E+00  1.00000000E+00  1.00000000E+00  1.00000000E+00
  1.00000000E+00  1.00000000E+00  1.00000000E+00  0.00000000E+00  0.00000000E+00
  0.00000000E+00  1.00000000E+00  0.00000000E+00  0.00000000E+00  0.00000000E+00
  1.00000000E+00  0.00000000E+00  0.00000000E+00  0.00000000E+00  1.00000000E+00
  0.00000000E+00  0.00000000E+00  0.00000000E+00  1.00000000E+00  0.00000000E+00
  0.00000000E+00  0.00000000E+00  1.00000000E+00  0.00000000E+00  0.00000000E+00
  0.00000000E+00  1.00000000E+00  0.00000000E+00  0.00000000E+00  0.00000000E+00
  1.00000000E+00  0.00000000E+00  0.00000000E+00  0.00000000E+00  1.00000000E+00
  0.00000000E+00  0.00000000E+00  0.00000000E+00  1.00000000E+00  0.00000000E+00
  0.00000000E+00  0.00000000E+00
Virial Ratio                               R      2.002397182192114E+00
SCF Energy                                 R     -3.827357435609061E+02
MP2 Energy                                 R     -3.838632381787163E+02
Total Energy                               R     -3.838632381787163E+02
Post-SCF wavefunction norm                 R      1.647481190874055E+00
RMS Force                                  R      2.049965151997703E-07
RMS Density                                R      3.119792933218900E-09
External E-field                           R   N=          35
  0.00000000E+00  0.00000000E+00  0.00000000E+00  0.00000000E+00  0.00000000E+00
  0.00000000E+00  0.00000000E+00  0.00000000E+00  0.00000000E+00  0.00000000E+00
  0.00000000E+00  0.00000000E+00  0.00000000E+00  0.00000000E+00  0.00000000E+00
  0.00000000E+00  0.00000000E+00  0.00000000E+00  0.00000000E+00  0.00000000E+00
  0.00000000E+00  0.00000000E+00  0.00000000E+00  0.00000000E+00  0.00000000E+00
  0.00000000E+00  0.00000000E+00  0.00000000E+00  0.00000000E+00  0.00000000E+00
  0.00000000E+00  0.00000000E+00  0.00000000E+00  0.00000000E+00  0.00000000E+00
IOpCl                                      I                0
IROHF                                      I                0
Alpha Orbital Energies                     R   N=         140
 -2.06098631E+01 -2.05528091E+01 -1.13830112E+01 -1.12928799E+01 -1.12456113E+01
 -1.12331814E+01 -1.12315644E+01 -1.12213918E+01 -1.45232975E+00 -1.35329830E+00
 -1.14480022E+00 -1.05964579E+00 -9.15095660E-01 -8.36798716E-01 -8.24294260E-01
 -7.62230732E-01 -7.00291045E-01 -6.73894252E-01 -6.69923657E-01 -6.40044452E-01
 -6.06697587E-01 -5.87022600E-01 -5.56754232E-01 -5.23707996E-01 -5.22290423E-01
 -5.17281970E-01 -5.01254687E-01 -4.77222828E-01 -4.47669953E-01 -4.25352836E-01
 -4.11874011E-01  1.82352902E-01  2.35936800E-01  2.46915213E-01  2.56031382E-01
  2.93340358E-01  2.96730526E-01  3.06336040E-01  3.13536169E-01  3.16006326E-01
  3.31361029E-01  3.52648252E-01  3.73698711E-01  3.74294449E-01  4.11111138E-01
  4.25190927E-01  4.27629340E-01  4.52262996E-01  5.13414183E-01  5.45289295E-01
  6.93072241E-01  7.23279143E-01  7.32360790E-01  7.45233430E-01  7.62972123E-01
  7.82634138E-01  7.98393407E-01  8.10470671E-01  8.70010528E-01  8.88014581E-01
  9.03422117E-01  9.10421188E-01  9.27469490E-01  9.35302681E-01  9.58363059E-01
  9.78276949E-01  9.85958208E-01  1.03914951E+00  1.07533513E+00  1.11649192E+00
  1.11845123E+00  1.12961676E+00  1.15164863E+00  1.16792703E+00  1.17282279E+00
  1.18051872E+00  1.19300964E+00  1.20807245E+00  1.21095873E+00  1.22622515E+00
  1.23944779E+00  1.28818825E+00  1.31789472E+00  1.37771776E+00  1.42420220E+00
  1.49819459E+00  1.52621556E+00  1.62740164E+00  1.65006786E+00  1.69415433E+00
  1.71423952E+00  1.79139051E+00  1.80089006E+00  1.83198088E+00  1.93649622E+00
  2.00558128E+00  2.04764059E+00  2.07151090E+00  2.07780199E+00  2.12532972E+00
  2.14277214E+00  2.15838309E+00  2.16284922E+00  2.18152315E+00  2.20810425E+00
  2.25220624E+00  2.26957909E+00  2.29448601E+00  2.32580035E+00  2.36627659E+00
  2.44155461E+00  2.47284212E+00  2.52237014E+00  2.56532614E+00  2.58483311E+00
  2.61774186E+00  2.64960093E+00  2.65653439E+00  2.74448383E+00  2.76417531E+00
  2.83966567E+00  2.84952432E+00  2.88082416E+00  2.91525045E+00  2.94153621E+00
  3.05996383E+00  3.08173152E+00  3.12451017E+00  3.15894296E+00  3.31827425E+00
  3.44723120E+00  3.52813917E+00  4.41637682E+00  4.54334128E+00  4.56545928E+00
  4.65811162E+00  4.74641946E+00  4.83810686E+00  4.88080837E+00  4.96593169E+00
Alpha MO coefficients                      R   N=       19600
  9.94649802E-01  2.12345611E-02  3.91866266E-05  1.22329940E-03 -1.14743149E-04
  3.78681177E-03  1.45412341E-04 -7.59727291E-04  8.47910786E-05 -4.18871834E-03
 -4.07029473E-03 -3.91177031E-03  3.76721558E-05 -4.65256718E-05  1.85827009E-05
 -2.78244687E-04  4.65787411E-05  2.12451259E-05  2.81120518E-05  6.70963484E-07
 -3.52582798E-04  9.60372619E-05  9.82447157E-05 -2.06669830E-06  1.89574605E-05
 -8.34132767E-06  1.77647618E-05 -6.74004258E-05  1.09561852E-05 -6.12962944E-06
 -1.76677241E-05  1.97960970E-04  3.20005709E-04 -2.21521629E-04  7.12347151E-05
  3.98308110E-04 -1.07988611E-04  1.27531706E-04  1.37755293E-04  9.03687288E-05
 -1.34329744E-05 -2.13095631E-05 -7.74548154E-05  8.37522993E-06 -2.32034342E-05
  7.13227032E-06  6.84559541E-05 -2.90999592E-05  1.32443497E-05  4.70254728E-07
 -2.29479577E-04 -5.29785932E-05 -6.53714660E-05  1.68430956E-04 -3.80733481E-05
  3.95344828E-06 -4.93808786E-06  2.26002576E-05  2.23156744E-05 -1.02737981E-05
  7.17120461E-06  7.73891881E-05  6.17849587E-06 -6.27687733E-06  1.02333288E-05
 -1.34666526E-04 -2.45365127E-04  1.33114475E-05 -6.43482449E-05 -5.37582390E-05
 -5.96627611E-06  1.47502690E-05 -3.30907224E-06  8.95557179E-06  4.13467415E-06
 -5.13391632E-07  3.55452261E-04 -2.97279989E-04 -1.76211163E-04 -1.80450816E-05
  2.66632156E-05 -1.48818778E-04  3.23584108E-04 -6.73666085E-05 -1.31523143E-05
 -9.31076817E-07 -4.62550445E-05 -3.50399221E-05  1.06965003E-05 -1.36295707E-05
 -3.53279731E-06  3.44126650E-05 -1.77957642E-05 -1.63986451E-05 -1.44117613E-06
  4.00229325E-04  3.10388856E-04  1.98220648E-04  2.46494744E-05 -7.57316361E-05
 -1.19357466E-06 -3.00712452E-05  2.59013733E-05 -1.20131437E-05 -1.33172861E-06
  7.18902222E-06  4.07069626E-05  1.14417144E-05  2.40363891E-06  2.13174186E-06
 -4.00983998E-04  1.52205770E-04  1.08203682E-04 -6.43664619E-07 -4.84603315E-06
  8.55214868E-06  1.08036365E-05 -4.65411016E-06 -1.33161670E-06 -4.42553710E-07
 -3.97115104E-05 -5.79977349E-05  2.48356967E-05  5.00308619E-05  8.18854027E-06
 -7.48807312E-05  6.09861594E-05 -5.04462655E-05 -1.40844404E-05 -1.00535456E-04
  3.63808742E-05 -3.64768724E-05  3.10715402E-05 -3.28617400E-05  1.48965953E-05
 -7.05286361E-06  1.59271612E-05 -1.20193381E-06  1.56977833E-05  1.19492237E-05
  2.79688628E-04 -5.79109449E-05 -1.85152112E-05 -3.52818811E-05  1.16438712E-06
  2.38572680E-04  1.21958906E-04  7.62182810E-05  1.17804528E-05  6.95370498E-05
 -1.01706834E-04 -7.25872420E-05 -1.62734226E-05  2.62566940E-05  1.67094137E-06
  9.94694791E-01  2.10032252E-02 -4.36713648E-05 -1.56558427E-03  1.92759959E-04
  4.36532356E-03 -1.20999772E-05  5.45557295E-05 -8.10744657E-06 -3.90467293E-03
 -3.58890183E-03 -4.12288192E-03  2.96773657E-06  3.73699820E-05 -8.06244971E-05
 -2.66693650E-06  1.46222210E-05 -3.65628875E-06  2.23024915E-05  3.26222619E-06
  1.07397308E-04 -1.11646794E-04 -8.18034709E-05 -6.60896320E-06 -2.62816948E-05
 -2.37744820E-05 -1.00807625E-05  9.41176580E-06 -6.56411536E-06  4.61859075E-06
 -2.64186036E-07 -1.05185298E-05  9.64964221E-06  4.82533291E-06  2.86106622E-06
  2.78443016E-05 -2.93458888E-05 -1.29561682E-05 -2.80718422E-05  7.98060626E-06
  4.37928953E-06  1.22331791E-08  5.37207458E-06 -2.43840700E-07  9.04910116E-08