opt=Tight                                                               
Freq      RMP2-FC                                                     6-31G(d)            
Number of atoms                            I               19
Info1-9                                    I   N=           9
          28          28        1002           0           0         100
           6           2           1
Charge                                     I                0
Multiplicity                               I                1
Number of electrons                        I               70
Number of alpha electrons                  I               35
Number of beta electrons                   I               35
Number of basis functions                  I              155
Number of independent functions            I              155
Number of point charges in /Mol/           I                0
Number of translation vectors              I                0
Atomic numbers                             I   N=          19
           8           8           8           6           6           6
           6           6           6           1           1           1
           1           1           1           1           1           1
           1
Nuclear charges                            R   N=          19
  8.00000000E+00  8.00000000E+00  8.00000000E+00  6.00000000E+00  6.00000000E+00
  6.00000000E+00  6.00000000E+00  6.00000000E+00  6.00000000E+00  1.00000000E+00
  1.00000000E+00  1.00000000E+00  1.00000000E+00  1.00000000E+00  1.00000000E+00
  1.00000000E+00  1.00000000E+00  1.00000000E+00  1.00000000E+00
Current cartesian coordinates              R   N=          57
 -2.37049136E+00 -4.66010244E-01  6.56131811E-01 -2.77254949E-01  3.18564551E+00
 -2.01951252E-01  4.05869899E+00 -3.15709931E+00 -6.67385130E-01  1.87957452E+00
 -2.10245260E-01  1.99674510E+00 -4.55831612E+00  5.84120017E-01 -6.26837276E-01
 -3.34972854E-01  1.06624773E+00  7.15867943E-01  3.83253278E+00 -9.48614173E-01
 -6.46286337E-03 -6.60176958E+00 -1.40650804E+00 -5.07965943E-01  5.41565274E+00
  1.16662999E+00 -1.07148795E+00  1.26579715E+00 -1.91331180E+00  2.98008110E+00
  2.70721410E+00  1.14484333E+00  3.32319112E+00 -5.10413895E+00  2.33553142E+00
  3.22993880E-01 -4.02366913E+00  1.05139071E+00 -2.56665060E+00 -8.30504022E+00
 -7.18152622E-01 -1.45439937E+00 -5.98193374E+00 -3.13737813E+00 -1.44449154E+00
 -7.07192022E+00 -1.84849420E+00  1.45197674E+00  6.49198216E+00  4.76226103E-01
 -2.68735497E+00  6.72221317E+00  1.83892274E+00  3.87592278E-01  4.21565964E+00
  2.76035509E+00 -1.60646185E+00
Force Field                                I                0
Int Atom Types                             I   N=          19
           0           0           0           0           0           0
           0           0           0           0           0           0
           0           0           0           0           0           0
           0
MM charges                                 R   N=          19
  0.00000000E+00  0.00000000E+00  0.00000000E+00  0.00000000E+00  0.00000000E+00
  0.00000000E+00  0.00000000E+00  0.00000000E+00  0.00000000E+00  0.00000000E+00
  0.00000000E+00  0.00000000E+00  0.00000000E+00  0.00000000E+00  0.00000000E+00
  0.00000000E+00  0.00000000E+00  0.00000000E+00  0.00000000E+00
Integer atomic weights                     I   N=          19
          16          16          16          12          12          12
          12          12          12           1           1           1
           1           1           1           1           1           1
           1
Real atomic weights                        R   N=          19
  1.59949146E+01  1.59949146E+01  1.59949146E+01  1.20000000E+01  1.20000000E+01
  1.20000000E+01  1.20000000E+01  1.20000000E+01  1.20000000E+01  1.00782504E+00
  1.00782504E+00  1.00782504E+00  1.00782504E+00  1.00782504E+00  1.00782504E+00
  1.00782504E+00  1.00782504E+00  1.00782504E+00  1.00782504E+00
Atom fragment info                         I   N=          19
           0           0           0           0           0           0
           0           0           0           0           0           0
           0           0           0           0           0           0
           0
Atom residue num                           I   N=          19
           0           0           0           0           0           0
           0           0           0           0           0           0
           0           0           0           0           0           0
           0
Nuclear spins                              I   N=          19
           0           0           0           0           0           0
           0           0           0           1           1           1
           1           1           1           1           1           1
           1
Nuclear ZEff                               R   N=          19
 -5.60000000E+00 -5.60000000E+00 -5.60000000E+00 -3.60000000E+00 -3.60000000E+00
 -3.60000000E+00 -3.60000000E+00 -3.60000000E+00 -3.60000000E+00 -1.00000000E+00
 -1.00000000E+00 -1.00000000E+00 -1.00000000E+00 -1.00000000E+00 -1.00000000E+00
 -1.00000000E+00 -1.00000000E+00 -1.00000000E+00 -1.00000000E+00
Nuclear QMom                               R   N=          19
  0.00000000E+00  0.00000000E+00  0.00000000E+00  0.00000000E+00  0.00000000E+00
  0.00000000E+00  0.00000000E+00  0.00000000E+00  0.00000000E+00  0.00000000E+00
  0.00000000E+00  0.00000000E+00  0.00000000E+00  0.00000000E+00  0.00000000E+00
  0.00000000E+00  0.00000000E+00  0.00000000E+00  0.00000000E+00
Nuclear GFac                               R   N=          19
  0.00000000E+00  0.00000000E+00  0.00000000E+00  0.00000000E+00  0.00000000E+00
  0.00000000E+00  0.00000000E+00  0.00000000E+00  0.00000000E+00  2.79284600E+00
  2.79284600E+00  2.79284600E+00  2.79284600E+00  2.79284600E+00  2.79284600E+00
  2.79284600E+00  2.79284600E+00  2.79284600E+00  2.79284600E+00
MicOpt                                     I   N=          19
          -1          -1          -1          -1          -1          -1
          -1          -1          -1          -1          -1          -1
          -1          -1          -1          -1          -1          -1
          -1
Number of contracted shells                I               56
Number of primitive shells                 I              139
Pure/Cartesian d shells                    I                1
Pure/Cartesian f shells                    I                0
Highest angular momentum                   I                2
Largest degree of contraction              I                6
Shell types                                I   N=          56
           0          -1          -1           2           0          -1
          -1           2           0          -1          -1           2
           0          -1          -1           2           0          -1
          -1           2           0          -1          -1           2
           0          -1          -1           2           0          -1
          -1           2           0          -1          -1           2
           0           0           0           0           0           0
           0           0           0           0           0           0
           0           0           0           0           0           0
           0           0
Number of primitives per shell             I   N=          56
           6           3           1           1           6           3
           1           1           6           3           1           1
           6           3           1           1           6           3
           1           1           6           3           1           1
           6           3           1           1           6           3
           1           1           6           3           1           1
           3           1           3           1           3           1
           3           1           3           1           3           1
           3           1           3           1           3           1
           3           1
Shell to atom map                          I   N=          56
           1           1           1           1           2           2
           2           2           3           3           3           3
           4           4           4           4           5           5
           5           5           6           6           6           6
           7           7           7           7           8           8
           8           8           9           9           9           9
          10          10          11          11          12          12
          13          13          14          14          15          15
          16          16          17          17          18          18
          19          19
Primitive exponents                        R   N=         139
  5.48467166E+03  8.25234946E+02  1.88046958E+02  5.29645000E+01  1.68975704E+01
  5.79963534E+00  1.55396162E+01  3.59993359E+00  1.01376175E+00  2.70005823E-01
  8.00000000E-01  5.48467166E+03  8.25234946E+02  1.88046958E+02  5.29645000E+01
  1.68975704E+01  5.79963534E+00  1.55396162E+01  3.59993359E+00  1.01376175E+00
  2.70005823E-01  8.00000000E-01  5.48467166E+03  8.25234946E+02  1.88046958E+02
  5.29645000E+01  1.68975704E+01  5.79963534E+00  1.55396162E+01  3.59993359E+00
  1.01376175E+00  2.70005823E-01  8.00000000E-01  3.04752488E+03  4.57369518E+02
  1.03948685E+02  2.92101553E+01  9.28666296E+00  3.16392696E+00  7.86827235E+00
  1.88128854E+00  5.44249258E-01  1.68714478E-01  8.00000000E-01  3.04752488E+03
  4.57369518E+02  1.03948685E+02  2.92101553E+01  9.28666296E+00  3.16392696E+00
  7.86827235E+00  1.88128854E+00  5.44249258E-01  1.68714478E-01  8.00000000E-01
  3.04752488E+03  4.57369518E+02  1.03948685E+02  2.92101553E+01  9.28666296E+00
  3.16392696E+00  7.86827235E+00  1.88128854E+00  5.44249258E-01  1.68714478E-01
  8.00000000E-01  3.04752488E+03  4.57369518E+02  1.03948685E+02  2.92101553E+01
  9.28666296E+00  3.16392696E+00  7.86827235E+00  1.88128854E+00  5.44249258E-01
  1.68714478E-01  8.00000000E-01  3.04752488E+03  4.57369518E+02  1.03948685E+02
  2.92101553E+01  9.28666296E+00  3.16392696E+00  7.86827235E+00  1.88128854E+00
  5.44249258E-01  1.68714478E-01  8.00000000E-01  3.04752488E+03  4.57369518E+02
  1.03948685E+02  2.92101553E+01  9.28666296E+00  3.16392696E+00  7.86827235E+00
  1.88128854E+00  5.44249258E-01  1.68714478E-01  8.00000000E-01  1.87311370E+01
  2.82539436E+00  6.40121692E-01  1.61277759E-01  1.87311370E+01  2.82539436E+00
  6.40121692E-01  1.61277759E-01  1.87311370E+01  2.82539436E+00  6.40121692E-01
  1.61277759E-01  1.87311370E+01  2.82539436E+00  6.40121692E-01  1.61277759E-01
  1.87311370E+01  2.82539436E+00  6.40121692E-01  1.61277759E-01  1.87311370E+01
  2.82539436E+00  6.40121692E-01  1.61277759E-01  1.87311370E+01  2.82539436E+00
  6.40121692E-01  1.61277759E-01  1.87311370E+01  2.82539436E+00  6.40121692E-01
  1.61277759E-01  1.87311370E+01  2.82539436E+00  6.40121692E-01  1.61277759E-01
  1.87311370E+01  2.82539436E+00  6.40121692E-01  1.61277759E-01
Contraction coefficients                   R   N=         139
  1.83107443E-03  1.39501722E-02  6.84450781E-02  2.32714336E-01  4.70192898E-01
  3.58520853E-01 -1.10777550E-01 -1.48026263E-01  1.13076702E+00  1.00000000E+00
  1.00000000E+00  1.83107443E-03  1.39501722E-02  6.84450781E-02  2.32714336E-01
  4.70192898E-01  3.58520853E-01 -1.10777550E-01 -1.48026263E-01  1.13076702E+00
  1.00000000E+00  1.00000000E+00  1.83107443E-03  1.39501722E-02  6.84450781E-02
  2.32714336E-01  4.70192898E-01  3.58520853E-01 -1.10777550E-01 -1.48026263E-01
  1.13076702E+00  1.00000000E+00  1.00000000E+00  1.83473713E-03  1.40373228E-02
  6.88426223E-02  2.32184443E-01  4.67941348E-01  3.62311985E-01 -1.19332420E-01
 -1.60854152E-01  1.14345644E+00  1.00000000E+00  1.00000000E+00  1.83473713E-03
  1.40373228E-02  6.88426223E-02  2.32184443E-01  4.67941348E-01  3.62311985E-01
 -1.19332420E-01 -1.60854152E-01  1.14345644E+00  1.00000000E+00  1.00000000E+00
  1.83473713E-03  1.40373228E-02  6.88426223E-02  2.32184443E-01  4.67941348E-01
  3.62311985E-01 -1.19332420E-01 -1.60854152E-01  1.14345644E+00  1.00000000E+00
  1.00000000E+00  1.83473713E-03  1.40373228E-02  6.88426223E-02  2.32184443E-01
  4.67941348E-01  3.62311985E-01 -1.19332420E-01 -1.60854152E-01  1.14345644E+00
  1.00000000E+00  1.00000000E+00  1.83473713E-03  1.40373228E-02  6.88426223E-02
  2.32184443E-01  4.67941348E-01  3.62311985E-01 -1.19332420E-01 -1.60854152E-01
  1.14345644E+00  1.00000000E+00  1.00000000E+00  1.83473713E-03  1.40373228E-02
  6.88426223E-02  2.32184443E-01  4.67941348E-01  3.62311985E-01 -1.19332420E-01
 -1.60854152E-01  1.14345644E+00  1.00000000E+00  1.00000000E+00  3.34946043E-02
  2.34726953E-01  8.13757326E-01  1.00000000E+00  3.34946043E-02  2.34726953E-01
  8.13757326E-01  1.00000000E+00  3.34946043E-02  2.34726953E-01  8.13757326E-01
  1.00000000E+00  3.34946043E-02  2.34726953E-01  8.13757326E-01  1.00000000E+00
  3.34946043E-02  2.34726953E-01  8.13757326E-01  1.00000000E+00  3.34946043E-02
  2.34726953E-01  8.13757326E-01  1.00000000E+00  3.34946043E-02  2.34726953E-01
  8.13757326E-01  1.00000000E+00  3.34946043E-02  2.34726953E-01  8.13757326E-01
  1.00000000E+00  3.34946043E-02  2.34726953E-01  8.13757326E-01  1.00000000E+00
  3.34946043E-02  2.34726953E-01  8.13757326E-01  1.00000000E+00
P(S=P) Contraction coefficients            R   N=         139
  0.00000000E+00  0.00000000E+00  0.00000000E+00  0.00000000E+00  0.00000000E+00
  0.00000000E+00  7.08742682E-02  3.39752839E-01  7.27158577E-01  1.00000000E+00
  0.00000000E+00  0.00000000E+00  0.00000000E+00  0.00000000E+00  0.00000000E+00
  0.00000000E+00  0.00000000E+00  7.08742682E-02  3.39752839E-01  7.27158577E-01
  1.00000000E+00  0.00000000E+00  0.00000000E+00  0.00000000E+00  0.00000000E+00
  0.00000000E+00  0.00000000E+00  0.00000000E+00  7.08742682E-02  3.39752839E-01
  7.27158577E-01  1.00000000E+00  0.00000000E+00  0.00000000E+00  0.00000000E+00
  0.00000000E+00  0.00000000E+00  0.00000000E+00  0.00000000E+00  6.89990666E-02
  3.16423961E-01  7.44308291E-01  1.00000000E+00  0.00000000E+00  0.00000000E+00
  0.00000000E+00  0.00000000E+00  0.00000000E+00  0.00000000E+00  0.00000000E+00
  6.89990666E-02  3.16423961E-01  7.44308291E-01  1.00000000E+00  0.00000000E+00
  0.00000000E+00  0.00000000E+00  0.00000000E+00  0.00000000E+00  0.00000000E+00
  0.00000000E+00  6.89990666E-02  3.16423961E-01  7.44308291E-01  1.00000000E+00
  0.00000000E+00  0.00000000E+00  0.00000000E+00  0.00000000E+00  0.00000000E+00
  0.00000000E+00  0.00000000E+00  6.89990666E-02  3.16423961E-01  7.44308291E-01
  1.00000000E+00  0.00000000E+00  0.00000000E+00  0.00000000E+00  0.00000000E+00
  0.00000000E+00  0.00000000E+00  0.00000000E+00  6.89990666E-02  3.16423961E-01
  7.44308291E-01  1.00000000E+00  0.00000000E+00  0.00000000E+00  0.00000000E+00
  0.00000000E+00  0.00000000E+00  0.00000000E+00  0.00000000E+00  6.89990666E-02
  3.16423961E-01  7.44308291E-01  1.00000000E+00  0.00000000E+00  0.00000000E+00
  0.00000000E+00  0.00000000E+00  0.00000000E+00  0.00000000E+00  0.00000000E+00
  0.00000000E+00  0.00000000E+00  0.00000000E+00  0.00000000E+00  0.00000000E+00
  0.00000000E+00  0.00000000E+00  0.00000000E+00  0.00000000E+00  0.00000000E+00
  0.00000000E+00  0.00000000E+00  0.00000000E+00  0.00000000E+00  0.00000000E+00
  0.00000000E+00  0.00000000E+00  0.00000000E+00  0.00000000E+00  0.00000000E+00
  0.00000000E+00  0.00000000E+00  0.00000000E+00  0.00000000E+00  0.00000000E+00
  0.00000000E+00  0.00000000E+00  0.00000000E+00  0.00000000E+00  0.00000000E+00
  0.00000000E+00  0.00000000E+00  0.00000000E+00  0.00000000E+00
Coordinates of each shell                  R   N=         168
 -2.37049129E+00 -4.66010221E-01  6.56131892E-01 -2.37049129E+00 -4.66010221E-01
  6.56131892E-01 -2.37049129E+00 -4.66010221E-01  6.56131892E-01 -2.37049129E+00
 -4.66010221E-01  6.56131892E-01 -2.77254801E-01  3.18564549E+00 -2.01951171E-01
 -2.77254801E-01  3.18564549E+00 -2.01951171E-01 -2.77254801E-01  3.18564549E+00
 -2.01951171E-01 -2.77254801E-01  3.18564549E+00 -2.01951171E-01  4.05869900E+00
 -3.15709942E+00 -6.67385049E-01  4.05869900E+00 -3.15709942E+00 -6.67385049E-01
  4.05869900E+00 -3.15709942E+00 -6.67385049E-01  4.05869900E+00 -3.15709942E+00
 -6.67385049E-01  1.87957460E+00 -2.10245327E-01  1.99674518E+00  1.87957460E+00
 -2.10245327E-01  1.99674518E+00  1.87957460E+00 -2.10245327E-01  1.99674518E+00
  1.87957460E+00 -2.10245327E-01  1.99674518E+00 -4.55831603E+00  5.84120085E-01
 -6.26837195E-01 -4.55831603E+00  5.84120085E-01 -6.26837195E-01 -4.55831603E+00
  5.84120085E-01 -6.26837195E-01 -4.55831603E+00  5.84120085E-01 -6.26837195E-01
 -3.34972751E-01  1.06624771E+00  7.15868024E-01 -3.34972751E-01  1.06624771E+00
  7.15868024E-01 -3.34972751E-01  1.06624771E+00  7.15868024E-01 -3.34972751E-01
  1.06624771E+00  7.15868024E-01  3.83253284E+00 -9.48614280E-01 -6.46278239E-03
  3.83253284E+00 -9.48614280E-01 -6.46278239E-03  3.83253284E+00 -9.48614280E-01
 -6.46278239E-03  3.83253284E+00 -9.48614280E-01 -6.46278239E-03 -6.60176953E+00
 -1.40650793E+00 -5.07965862E-01 -6.60176953E+00 -1.40650793E+00 -5.07965862E-01
 -6.60176953E+00 -1.40650793E+00 -5.07965862E-01 -6.60176953E+00 -1.40650793E+00
 -5.07965862E-01  5.41565285E+00  1.16662985E+00 -1.07148786E+00  5.41565285E+00
  1.16662985E+00 -1.07148786E+00  5.41565285E+00  1.16662985E+00 -1.07148786E+00
  5.41565285E+00  1.16662985E+00 -1.07148786E+00  1.26579719E+00 -1.91331186E+00
  2.98008119E+00  1.26579719E+00 -1.91331186E+00  2.98008119E+00  2.70721420E+00
  1.14484325E+00  3.32319120E+00  2.70721420E+00  1.14484325E+00  3.32319120E+00
 -5.10413882E+00  2.33553150E+00  3.22993961E-01 -5.10413882E+00  2.33553150E+00
  3.22993961E-01 -4.02366903E+00  1.05139077E+00 -2.56665052E+00 -4.02366903E+00
  1.05139077E+00 -2.56665052E+00 -8.30504015E+00 -7.18152475E-01 -1.45439929E+00
 -8.30504015E+00 -7.18152475E-01 -1.45439929E+00 -5.98193373E+00 -3.13737803E+00
 -1.44449146E+00 -5.98193373E+00 -3.13737803E+00 -1.44449146E+00 -7.07192018E+00
 -1.84849408E+00  1.45197682E+00 -7.07192018E+00 -1.84849408E+00  1.45197682E+00
  6.49198226E+00  4.76225940E-01 -2.68735489E+00  6.49198226E+00  4.76225940E-01
 -2.68735489E+00  6.72221329E+00  1.83892257E+00  3.87592359E-01  6.72221329E+00
  1.83892257E+00  3.87592359E-01  4.21565978E+00  2.76035497E+00 -1.60646177E+00
  4.21565978E+00  2.76035497E+00 -1.60646177E+00
Constraint Structure                       R   N=          57
 -2.37049129E+00 -4.66010221E-01  6.56131892E-01 -2.77254801E-01  3.18564549E+00
 -2.01951171E-01  4.05869900E+00 -3.15709942E+00 -6.67385049E-01  1.87957460E+00
 -2.10245327E-01  1.99674518E+00 -4.55831603E+00  5.84120085E-01 -6.26837195E-01
 -3.34972751E-01  1.06624771E+00  7.15868024E-01  3.83253284E+00 -9.48614280E-01
 -6.46278239E-03 -6.60176953E+00 -1.40650793E+00 -5.07965862E-01  5.41565285E+00
  1.16662985E+00 -1.07148786E+00  1.26579719E+00 -1.91331186E+00  2.98008119E+00
  2.70721420E+00  1.14484325E+00  3.32319120E+00 -5.10413882E+00  2.33553150E+00
  3.22993961E-01 -4.02366903E+00  1.05139077E+00 -2.56665052E+00 -8.30504015E+00
 -7.18152475E-01 -1.45439929E+00 -5.98193373E+00 -3.13737803E+00 -1.44449146E+00
 -7.07192018E+00 -1.84849408E+00  1.45197682E+00  6.49198226E+00  4.76225940E-01
 -2.68735489E+00  6.72221329E+00  1.83892257E+00  3.87592359E-01  4.21565978E+00
  2.76035497E+00 -1.60646177E+00
Num ILSW                                   I              100
ILSW                                       I   N=         100
           0           1           0           1           2           0
           0           0           0           0           0          -1
           0           0           0           0           0           0
           0           0           0           0           1           0
           1           0           0           0           0           0
           0           0      100000           0          -1           0
           0           0           0           0           0           0
           0           0           0           1           1           0
           0           0           1           0           0           0
           0           0           4          40           0           0
           0           0           0           0           0           0
           0           0           0           0           0           0
           0           0           0           0           0           0
           0           0           0           0           0           0
           0           0           0           0           0           0
           0           0           0           0           0           0
           0           0           0           0
Num RLSW                                   I               40
RLSW                                       R   N=          40
  1.00000000E+00  1.00000000E+00  1.00000000E+00  1.00000000E+00  1.00000000E+00
  0.00000000E+00  0.00000000E+00  1.00000000E+00  0.00000000E+00  0.00000000E+00
  0.00000000E+00  0.00000000E+00  1.00000000E+00  0.00000000E+00  0.00000000E+00
  0.00000000E+00  0.00000000E+00  1.00000000E+00  0.00000000E+00  0.00000000E+00
  0.00000000E+00  0.00000000E+00  1.00000000E+00  0.00000000E+00  0.00000000E+00
  0.00000000E+00  0.00000000E+00  1.00000000E+00  0.00000000E+00  0.00000000E+00
  0.00000000E+00  0.00000000E+00  0.00000000E+00  0.00000000E+00  0.00000000E+00
  0.00000000E+00  0.00000000E+00  0.00000000E+00  1.00000000E+00  1.00000000E+00
MxBond                                     I                4
NBond                                      I   N=          19
           2           1           1           4           4           3
           3           4           4           1           1           1
           1           1           1           1           1           1
           1
IBond                                      I   N=          76
           5           6           0           0           6           0
           0           0           7           0           0           0
           6           7          10          11           1           8
          12          13           1           2           4           0
           3           4           9           0           5          14
          15          16           7          17          18          19
           4           0           0           0           4           0
           0           0           5           0           0           0
           5           0           0           0           8           0
           0           0           8           0           0           0
           8           0           0           0           9           0
           0           0           9           0           0           0
           9           0           0           0
RBond                                      R   N=          76
  1.00000000E+00  1.50000000E+00  0.00000000E+00  0.00000000E+00  2.00000000E+00
  0.00000000E+00  0.00000000E+00  0.00000000E+00  2.00000000E+00  0.00000000E+00
  0.00000000E+00  0.00000000E+00  1.00000000E+00  1.00000000E+00  1.00000000E+00
  1.00000000E+00  1.00000000E+00  1.00000000E+00  1.00000000E+00  1.00000000E+00
  1.50000000E+00  2.00000000E+00  1.00000000E+00  0.00000000E+00  2.00000000E+00
  1.00000000E+00  1.00000000E+00  0.00000000E+00  1.00000000E+00  1.00000000E+00
  1.00000000E+00  1.00000000E+00  1.00000000E+00  1.00000000E+00  1.00000000E+00
  1.00000000E+00  1.00000000E+00  0.00000000E+00  0.00000000E+00  0.00000000E+00
  1.00000000E+00  0.00000000E+00  0.00000000E+00  0.00000000E+00  1.00000000E+00
  0.00000000E+00  0.00000000E+00  0.00000000E+00  1.00000000E+00  0.00000000E+00
  0.00000000E+00  0.00000000E+00  1.00000000E+00  0.00000000E+00  0.00000000E+00
  0.00000000E+00  1.00000000E+00  0.00000000E+00  0.00000000E+00  0.00000000E+00
  1.00000000E+00  0.00000000E+00  0.00000000E+00  0.00000000E+00  1.00000000E+00
  0.00000000E+00  0.00000000E+00  0.00000000E+00  1.00000000E+00  0.00000000E+00
  0.00000000E+00  0.00000000E+00  1.00000000E+00  0.00000000E+00  0.00000000E+00
  0.00000000E+00
Virial Ratio                               R      2.002667379032217E+00
SCF Energy                                 R     -4.576332351579852E+02
MP2 Energy                                 R     -4.589368896351712E+02
Total Energy                               R     -4.589368896351712E+02
Post-SCF wavefunction norm                 R      1.678617245656991E+00
RMS Force                                  R      2.835465321157587E-07
RMS Density                                R      5.163682332151577E-10
External E-field                           R   N=          35
  0.00000000E+00  0.00000000E+00  0.00000000E+00  0.00000000E+00  0.00000000E+00
  0.00000000E+00  0.00000000E+00  0.00000000E+00  0.00000000E+00  0.00000000E+00
  0.00000000E+00  0.00000000E+00  0.00000000E+00  0.00000000E+00  0.00000000E+00
  0.00000000E+00  0.00000000E+00  0.00000000E+00  0.00000000E+00  0.00000000E+00
  0.00000000E+00  0.00000000E+00  0.00000000E+00  0.00000000E+00  0.00000000E+00
  0.00000000E+00  0.00000000E+00  0.00000000E+00  0.00000000E+00  0.00000000E+00
  0.00000000E+00  0.00000000E+00  0.00000000E+00  0.00000000E+00  0.00000000E+00
IOpCl                                      I                0
IROHF                                      I                0
Alpha Orbital Energies                     R   N=         155
 -2.06206518E+01 -2.05662637E+01 -2.05650831E+01 -1.14029402E+01 -1.13494731E+01
 -1.12974457E+01 -1.12606562E+01 -1.12348645E+01 -1.12304365E+01 -1.46518489E+00
 -1.38617075E+00 -1.36390401E+00 -1.08101986E+00 -1.04034379E+00 -9.89730636E-01
 -8.75418168E-01 -7.97212436E-01 -7.53339174E-01 -7.05949845E-01 -6.90894684E-01
 -6.76123883E-01 -6.50086725E-01 -6.39336767E-01 -6.00593479E-01 -5.85569097E-01
 -5.73008322E-01 -5.67974900E-01 -5.50185520E-01 -5.37357175E-01 -5.20308058E-01
 -5.12640885E-01 -4.98290863E-01 -4.65079824E-01 -4.52151298E-01 -4.18490033E-01
  1.28508047E-01  1.92023713E-01  2.34198534E-01  2.43539869E-01  2.75723213E-01
  2.87397824E-01  2.94863250E-01  2.97219382E-01  3.07030174E-01  3.16789312E-01
  3.25684430E-01  3.35140206E-01  3.41614288E-01  3.67795349E-01  3.98247646E-01
  4.09586763E-01  4.65609898E-01  4.78966869E-01  5.27895843E-01  5.46298615E-01
  7.12699657E-01  7.26626530E-01  7.28815307E-01  7.37591013E-01  7.50970257E-01
  7.60938562E-01  7.91889791E-01  8.03985267E-01  8.17957092E-01  8.59935047E-01
  8.82602456E-01  9.02615982E-01  9.24592303E-01  9.38535029E-01  9.41758919E-01
  9.71652440E-01  9.88961814E-01  1.01259285E+00  1.07736247E+00  1.08191762E+00
  1.10193869E+00  1.10718798E+00  1.14067477E+00  1.14458895E+00  1.15108123E+00
  1.17335005E+00  1.17935415E+00  1.18439898E+00  1.19880488E+00  1.21612121E+00
  1.23117992E+00  1.26418101E+00  1.27878953E+00  1.32264344E+00  1.34422884E+00
  1.36071047E+00  1.38323989E+00  1.40085416E+00  1.45743609E+00  1.51020605E+00
  1.54488610E+00  1.61477777E+00  1.63416425E+00  1.66127840E+00  1.69491465E+00
  1.72680985E+00  1.76747158E+00  1.86592054E+00  1.89640022E+00  1.90540174E+00
  1.95767692E+00  2.01633706E+00  2.05523116E+00  2.08352068E+00  2.09664645E+00
  2.11562719E+00  2.12901791E+00  2.16147711E+00  2.16223181E+00  2.19004119E+00
  2.19986401E+00  2.23600364E+00  2.26962475E+00  2.27953239E+00  2.31518318E+00
  2.34478084E+00  2.41085714E+00  2.43630977E+00  2.45699738E+00  2.46868702E+00
  2.51249669E+00  2.54897742E+00  2.60231386E+00  2.62719411E+00  2.65378534E+00
  2.66529896E+00  2.68382743E+00  2.73951754E+00  2.80794410E+00  2.82607088E+00
  2.91863572E+00  2.95482003E+00  2.98170064E+00  3.02279501E+00  3.06516096E+00
  3.12352906E+00  3.29408974E+00  3.32961697E+00  3.33703953E+00  3.38231211E+00
  3.49733252E+00  4.39189173E+00  4.44560257E+00  4.49341483E+00  4.57919743E+00
  4.60658551E+00  4.67157926E+00  4.82185067E+00  4.89274339E+00  4.98021190E+00
Alpha MO coefficients                      R   N=       24025
  9.94653348E-01  2.12307716E-02  1.41744442E-04  1.14685771E-03 -4.59085391E-04
  3.76840875E-03  7.39548099E-05 -7.09704675E-04  3.50143207E-04 -4.14717211E-03
 -4.02906876E-03 -3.97175269E-03  5.52911579E-06 -1.02408446E-04  6.26062062E-05
 -2.95660438E-04  6.00606708E-05  2.58716489E-05  2.80840079E-05 -2.78732417E-06
 -4.65243083E-04  7.55687699E-05  1.29815050E-04 -2.70114781E-05  2.87700166E-05
 -1.10859641E-05  3.19846234E-05 -6.14439281E-05  2.96219743E-05 -7.40191702E-06
 -4.38854326E-06 -9.03562174E-06  5.29150360E-06 -1.52228975E-06 -4.84781975E-06
  1.77308662E-05 -1.78684913E-05  7.42794948E-06  1.86498042E-05 -8.31125833E-06
 -7.66491646E-06 -1.12821971E-05 -2.70689121E-06 -3.75671412E-06  3.63092730E-06
 -1.63273394E-06  4.16442455E-05  1.75483942E-06 -9.09876216E-06 -1.55384330E-05
  3.28276005E-04  1.24961491E-04  6.00564066E-05  9.49718057E-05 -8.02602304E-05
 -6.98494353E-06 -1.25718015E-05 -8.19388452E-07 -2.89816602E-05  1.05038407E-05
 -2.22000319E-05  1.22006795E-04  2.97514281E-04 -1.55883689E-04  1.79737785E-04
  3.98964777E-04 -1.39551630E-05  1.75271501E-05 -1.29847498E-05  1.03996056E-04
 -1.19564132E-05 -2.99234421E-06 -5.61697917E-05  8.96444932E-05 -3.79913137E-05
  4.13405689E-06  3.94408073E-04 -2.88476614E-04 -1.96742493E-04 -1.60799259E-05
  1.02683079E-04 -7.76197293E-05  3.75712612E-04 -2.23840505E-04 -4.07992707E-05
 -2.32840166E-05 -3.10130248E-05 -5.31430885E-05  2.07033839E-05 -2.89224649E-05
  3.41836983E-06  4.64522843E-06 -7.06472712E-06  1.30759104E-05 -4.37099619E-06
 -1.16413603E-04  3.24042778E-06 -8.06250506E-05 -4.40104138E-05  1.98884186E-05
  6.26339297E-06  2.24592535E-06 -1.49738047E-06  4.76404674E-06 -5.91560090E-07