
    -----------------------------------------------------------------------
          Psi4: An Open-Source Ab Initio Electronic Structure Package
                               Psi4 1.3.2 release

                         Git: Rev {HEAD} ecbda83 


    R. M. Parrish, L. A. Burns, D. G. A. Smith, A. C. Simmonett,
    A. E. DePrince III, E. G. Hohenstein, U. Bozkaya, A. Yu. Sokolov,
    R. Di Remigio, R. M. Richard, J. F. Gonthier, A. M. James,
    H. R. McAlexander, A. Kumar, M. Saitow, X. Wang, B. P. Pritchard,
    P. Verma, H. F. Schaefer III, K. Patkowski, R. A. King, E. F. Valeev,
    F. A. Evangelista, J. M. Turney, T. D. Crawford, and C. D. Sherrill,
    J. Chem. Theory Comput. 13(7) pp 3185--3197 (2017).
    (doi: 10.1021/acs.jctc.7b00174)


                         Additional Contributions by
    P. Kraus, H. Kruse, M. H. Lechner, M. C. Schieber, R. A. Shaw,
    A. Alenaizan, R. Galvelis, Z. L. Glick, S. Lehtola, and J. P. Misiewicz

    -----------------------------------------------------------------------


    Psi4 started on: Sunday, 08 November 2020 09:06PM

    Process ID: 3412
    Host:       node37.bme.utexas.edu
    PSIDATADIR: /home/xy3866/psi4conda/share/psi4
    Memory:     500.0 MiB
    Threads:    8
    
  ==> Input File <==

--------------------------------------------------------------------------
#psi4
#
memory 32 gb

molecule  {
1 1
  N       -2.3156210     0.0000130     0.0092220
  C       -0.8265460     0.0000770    -0.0152130
  C       -0.1716580    -1.2259970    -0.0050100
  C       -0.1705305     1.2260376     0.1449917
  C        1.2247150    -1.2130070     0.0014150
  C        1.2248800     1.2129210     0.0014120
  C        1.9183010    -0.0000690     0.0065130
  H       -0.7164250    -2.1682170    -0.0085500
  H       -0.7161430     2.1683510    -0.0085270
  H       -2.6983940     0.8319390    -0.4619130
  H       -2.6987610    -0.8244740    -0.4745350
  H       -2.6873600    -0.0071920     0.9705560
  H        1.7664630    -2.1541410     0.0017740
  H        1.7667170     2.1540020     0.0017630
  H        3.0042640    -0.0001380     0.0102050
units angstrom
no_reorient  #important for SAPT in psi4, default
symmetry c1  #important for SAPT in psi4, default
}

set PROPERTIES_ORIGIN ["COM"]
properties('MP2/aug-cc-pvtz', properties = ['dipole'])
--------------------------------------------------------------------------

  Memory set to  29.802 GiB by Python driver.
    SCF Algorithm Type (re)set to DF.

*** tstart() called on node37.bme.utexas.edu
*** at Sun Nov  8 21:06:02 2020

   => Loading Basis Set <=

    Name: AUG-CC-PVTZ
    Role: ORBITAL
    Keyword: BASIS
    atoms 1    entry N          line   281 file /home/xy3866/psi4conda/share/psi4/basis/aug-cc-pvtz.gbs 
    atoms 2-7  entry C          line   235 file /home/xy3866/psi4conda/share/psi4/basis/aug-cc-pvtz.gbs 
    atoms 8-15 entry H          line    36 file /home/xy3866/psi4conda/share/psi4/basis/aug-cc-pvtz.gbs 


         ---------------------------------------------------------
                                   SCF
               by Justin Turney, Rob Parrish, Andy Simmonett
                          and Daniel G. A. Smith
                              RHF Reference
                        8 Threads,  30517 MiB Core
         ---------------------------------------------------------

  ==> Geometry <==

    Molecular point group: c1
    Full point group: C1

    Geometry (in Angstrom), charge = 1, multiplicity = 1:

       Center              X                  Y                   Z               Mass       
    ------------   -----------------  -----------------  -----------------  -----------------
         N           -2.347100825375     0.000014443064    -0.009588842128    14.003074004430
         C           -0.858025825375     0.000078443064    -0.034023842128    12.000000000000
         C           -0.203137825375    -1.225995556936    -0.023820842128    12.000000000000
         C           -0.202010325375     1.226039043064     0.126180857872    12.000000000000
         C            1.193235174625    -1.213005556936    -0.017395842128    12.000000000000
         C            1.193400174625     1.212922443064    -0.017398842128    12.000000000000
         C            1.886821174625    -0.000067556936    -0.012297842128    12.000000000000
         H           -0.747904825375    -2.168215556936    -0.027360842128     1.007825032230
         H           -0.747622825375     2.168352443064    -0.027337842128     1.007825032230
         H           -2.729873825375     0.831940443064    -0.480723842128     1.007825032230
         H           -2.730240825375    -0.824472556936    -0.493345842128     1.007825032230
         H           -2.718839825375    -0.007190556936     0.951745157872     1.007825032230
         H            1.734983174625    -2.154139556936    -0.017036842128     1.007825032230
         H            1.735237174625     2.154003443064    -0.017047842128     1.007825032230
         H            2.972784174625    -0.000136556936    -0.008605842128     1.007825032230

  Running in c1 symmetry.

  Rotational constants: A =      0.18085  B =      0.08264  C =      0.05732 [cm^-1]
  Rotational constants: A =   5421.80743  B =   2477.41782  C =   1718.47933 [MHz]
  Nuclear repulsion =  280.250337763357550

  Charge       = 1
  Multiplicity = 1
  Electrons    = 50
  Nalpha       = 25
  Nbeta        = 25

  ==> Algorithm <==

  SCF Algorithm Type is DF.
  DIIS enabled.
  MOM disabled.
  Fractional occupation disabled.
  Guess Type is SAD.
  Energy threshold   = 1.00e-10
  Density threshold  = 1.00e-10
  Integral threshold = 0.00e+00

  ==> Primary Basis <==

  Basis Set: AUG-CC-PVTZ
    Blend: AUG-CC-PVTZ
    Number of shells: 170
    Number of basis function: 506
    Number of Cartesian functions: 585
    Spherical Harmonics?: true
    Max angular momentum: 3

   => Loading Basis Set <=

    Name: (AUG-CC-PVTZ AUX)
    Role: JKFIT
    Keyword: DF_BASIS_SCF
    atoms 1    entry N          line   224 file /home/xy3866/psi4conda/share/psi4/basis/aug-cc-pvtz-jkfit.gbs 
    atoms 2-7  entry C          line   162 file /home/xy3866/psi4conda/share/psi4/basis/aug-cc-pvtz-jkfit.gbs 
    atoms 8-15 entry H          line    70 file /home/xy3866/psi4conda/share/psi4/basis/aug-cc-pvtz-jkfit.gbs 

  ==> Pre-Iterations <==

   -------------------------------------------------------
    Irrep   Nso     Nmo     Nalpha   Nbeta   Ndocc  Nsocc
   -------------------------------------------------------
     A        506     506       0       0       0       0
   -------------------------------------------------------
    Total     506     506      25      25      25       0
   -------------------------------------------------------

  ==> Integral Setup <==

  DFHelper Memory: AOs need 2.111 GiB; user supplied 22.352 GiB. Using in-core AOs.

  ==> MemDFJK: Density-Fitted J/K Matrices <==

    J tasked:                   Yes
    K tasked:                   Yes
    wK tasked:                   No
    OpenMP threads:               8
    Memory [MiB]:             22888
    Algorithm:                 Disk
    Schwarz Cutoff:           1E-12
    Mask sparsity (%):       2.6582
    Fitting Condition:        1E-10

   => Auxiliary Basis Set <=

  Basis Set: (AUG-CC-PVTZ AUX)
    Blend: AUG-CC-PVTZ-JKFIT
    Number of shells: 322
    Number of basis function: 1096
    Number of Cartesian functions: 1357
    Spherical Harmonics?: true
    Max angular momentum: 4

  Minimum eigenvalue in the overlap matrix is 1.6501359353E-06.
  Using Symmetric Orthogonalization.

  SCF Guess: Superposition of Atomic Densities via on-the-fly atomic UHF.

  ==> Iterations <==

                           Total Energy        Delta E     RMS |[F,P]|

   @DF-RHF iter SAD:  -285.99670880975674   -2.85997e+02   0.00000e+00 
   @DF-RHF iter   1:  -285.96418959502699    3.25192e-02   1.14583e-03 DIIS
   @DF-RHF iter   2:  -286.14212998982657   -1.77940e-01   5.27684e-04 DIIS
   @DF-RHF iter   3:  -286.17831256073180   -3.61826e-02   1.24581e-04 DIIS
   @DF-RHF iter   4:  -286.18118204711931   -2.86949e-03   4.49520e-05 DIIS
   @DF-RHF iter   5:  -286.18148761958111   -3.05572e-04   1.03751e-05 DIIS
   @DF-RHF iter   6:  -286.18151746826021   -2.98487e-05   4.23007e-06 DIIS
   @DF-RHF iter   7:  -286.18152321093368   -5.74267e-06   1.73006e-06 DIIS
   @DF-RHF iter   8:  -286.18152495739298   -1.74646e-06   8.41820e-07 DIIS
   @DF-RHF iter   9:  -286.18152549068287   -5.33290e-07   3.09243e-07 DIIS
   @DF-RHF iter  10:  -286.18152555939423   -6.87114e-08   8.84991e-08 DIIS
   @DF-RHF iter  11:  -286.18152556326282   -3.86859e-09   3.53323e-08 DIIS
   @DF-RHF iter  12:  -286.18152556373923   -4.76405e-10   7.13109e-09 DIIS
   @DF-RHF iter  13:  -286.18152556375429   -1.50635e-11   2.16695e-09 DIIS
   @DF-RHF iter  14:  -286.18152556375395    3.41061e-13   8.29438e-10 DIIS
   @DF-RHF iter  15:  -286.18152556375469   -7.38964e-13   3.07504e-10 DIIS
   @DF-RHF iter  16:  -286.18152556375298    1.70530e-12   1.30721e-10 DIIS
   @DF-RHF iter  17:  -286.18152556375588   -2.89901e-12   5.25170e-11 DIIS
  Energy and wave function converged.


  ==> Post-Iterations <==

    Orbital Energies [Eh]
    ---------------------

    Doubly Occupied:                                                      

       1A    -15.897059     2A    -11.470499     3A    -11.415232  
       4A    -11.413560     5A    -11.399176     6A    -11.398223  
       7A    -11.392405     8A     -1.511099     9A     -1.315262  
      10A     -1.186672    11A     -1.178840    12A     -1.016754  
      13A     -1.002919    14A     -0.957575    15A     -0.934144  
      16A     -0.894582    17A     -0.833560    18A     -0.785575  
      19A     -0.767437    20A     -0.754096    21A     -0.675727  
      22A     -0.670681    23A     -0.662538    24A     -0.507537  
      25A     -0.501829  

    Virtual:                                                              

      26A     -0.111784    27A     -0.077670    28A     -0.075081  
      29A     -0.063970    30A     -0.057697    31A     -0.048168  
      32A     -0.043578    33A     -0.043447    34A     -0.034337  
      35A     -0.023634    36A     -0.020543    37A     -0.016171  
      38A     -0.014161    39A     -0.007607    40A      0.004255  
      41A      0.013402    42A      0.019254    43A      0.021927  
      44A      0.022817    45A      0.027639    46A      0.029265  
      47A      0.032790    48A      0.038184    49A      0.039781  
      50A      0.041270    51A      0.044748    52A      0.058939  
      53A      0.061839    54A      0.065988    55A      0.069852  
      56A      0.071314    57A      0.081174    58A      0.087850  
      59A      0.092721    60A      0.122259    61A      0.123604  
      62A      0.134412    63A      0.138690    64A      0.142151  
      65A      0.146444    66A      0.153181    67A      0.160364  
      68A      0.168159    69A      0.170399    70A      0.178343  
      71A      0.186901    72A      0.197023    73A      0.199157  
      74A      0.202060    75A      0.203553    76A      0.207471  
      77A      0.219318    78A      0.221428    79A      0.228179  
      80A      0.231885    81A      0.236451    82A      0.242196  
      83A      0.245997    84A      0.249986    85A      0.252969  
      86A      0.253771    87A      0.255001    88A      0.258457  
      89A      0.267779    90A      0.279581    91A      0.285989  
      92A      0.292272    93A      0.307905    94A      0.309533  
      95A      0.319605    96A      0.323932    97A      0.335929  
      98A      0.336686    99A      0.344255   100A      0.347199  
     101A      0.349762   102A      0.358264   103A      0.359828  
     104A      0.364816   105A      0.371151   106A      0.377271  
     107A      0.383670   108A      0.389154   109A      0.396274  
     110A      0.401273   111A      0.405804   112A      0.407569  
     113A      0.416781   114A      0.419649   115A      0.429005  
     116A      0.435814   117A      0.455111   118A      0.463687  
     119A      0.473688   120A      0.481414   121A      0.492291  
     122A      0.500805   123A      0.503143   124A      0.509274  
     125A      0.521209   126A      0.529176   127A      0.542911  
     128A      0.546529   129A      0.563759   130A      0.564338  
     131A      0.574243   132A      0.578138   133A      0.593830  
     134A      0.603301   135A      0.607974   136A      0.614497  
     137A      0.634548   138A      0.648231   139A      0.649044  
     140A      0.665432   141A      0.666055   142A      0.679865  
     143A      0.690489   144A      0.693160   145A      0.704217  
     146A      0.705550   147A      0.710103   148A      0.713009  
     149A      0.725746   150A      0.736776   151A      0.739160  
     152A      0.744014   153A      0.748249   154A      0.752927  
     155A      0.761469   156A      0.768240   157A      0.772973  
     158A      0.783412   159A      0.790721   160A      0.799550  
     161A      0.804146   162A      0.809698   163A      0.826087  
     164A      0.830267   165A      0.831617   166A      0.838160  
     167A      0.851287   168A      0.857575   169A      0.863553  
     170A      0.878458   171A      0.884567   172A      0.897581  
     173A      0.899623   174A      0.902932   175A      0.908427  
     176A      0.915928   177A      0.927005   178A      0.927900  
     179A      0.939670   180A      0.947065   181A      0.952222  
     182A      0.960513   183A      0.969736   184A      0.976603  
     185A      0.979630   186A      0.981898   187A      0.990521  
     188A      0.998039   189A      1.013916   190A      1.026525  
     191A      1.030263   192A      1.043188   193A      1.053892  
     194A      1.055718   195A      1.062660   196A      1.068473  
     197A      1.071810   198A      1.076234   199A      1.079597  
     200A      1.090102   201A      1.096142   202A      1.098818  
     203A      1.114075   204A      1.122578   205A      1.140480  
     206A      1.149957   207A      1.157140   208A      1.172774  
     209A      1.177548   210A      1.179570   211A      1.196219  
     212A      1.201899   213A      1.209045   214A      1.222505  
     215A      1.237472   216A      1.255384   217A      1.260125  
     218A      1.271244   219A      1.281806   220A      1.294843  
     221A      1.304713   222A      1.320569   223A      1.334216  
     224A      1.348057   225A      1.356413   226A      1.367434  
     227A      1.376328   228A      1.388240   229A      1.397573  
     230A      1.402193   231A      1.416563   232A      1.430752  
     233A      1.470260   234A      1.484877   235A      1.495959  
     236A      1.506031   237A      1.521699   238A      1.528804  
     239A      1.538713   240A      1.554008   241A      1.563986  
     242A      1.586783   243A      1.603572   244A      1.608958  
     245A      1.620286   246A      1.631744   247A      1.639431  
     248A      1.644690   249A      1.659551   250A      1.669642  
     251A      1.679746   252A      1.684994   253A      1.690182  
     254A      1.699617   255A      1.725767   256A      1.730498  
     257A      1.737566   258A      1.739467   259A      1.758625  
     260A      1.774714   261A      1.795243   262A      1.819707  
     263A      1.829351   264A      1.839384   265A      1.853584  
     266A      1.854807   267A      1.859382   268A      1.868654  
     269A      1.883875   270A      1.890418   271A      1.900890  
     272A      1.904568   273A      1.915442   274A      1.927064  
     275A      1.931846   276A      1.941505   277A      1.962285  
     278A      1.972583   279A      1.987330   280A      2.001817  
     281A      2.009336   282A      2.014463   283A      2.033193  
     284A      2.040549   285A      2.075538   286A      2.083584  
     287A      2.103158   288A      2.115901   289A      2.126240  
     290A      2.163987   291A      2.194947   292A      2.211132  
     293A      2.214608   294A      2.225329   295A      2.243293  
     296A      2.255770   297A      2.261767   298A      2.268873  
     299A      2.289617   300A      2.325890   301A      2.340828  
     302A      2.349103   303A      2.377449   304A      2.383899  
     305A      2.403892   306A      2.426215   307A      2.441928  
     308A      2.461427   309A      2.475208   310A      2.527295  
     311A      2.533859   312A      2.574122   313A      2.610939  
     314A      2.647821   315A      2.657625   316A      2.708443  
     317A      2.738819   318A      2.790697   319A      2.873058  
     320A      2.917399   321A      2.962386   322A      2.971060  
     323A      3.002378   324A      3.022123   325A      3.049059  
     326A      3.066887   327A      3.081780   328A      3.111470  
     329A      3.162743   330A      3.180988   331A      3.211203  
     332A      3.223474   333A      3.239651   334A      3.250339  
     335A      3.260681   336A      3.278051   337A      3.285726  
     338A      3.297033   339A      3.333735   340A      3.354209  
     341A      3.367358   342A      3.383344   343A      3.396791  
     344A      3.403961   345A      3.427298   346A      3.435077  
     347A      3.440263   348A      3.450676   349A      3.462965  
     350A      3.477149   351A      3.508647   352A      3.517973  
     353A      3.547532   354A      3.571086   355A      3.581970  
     356A      3.619969   357A      3.638899   358A      3.660848  
     359A      3.670758   360A      3.678866   361A      3.690539  
     362A      3.697483   363A      3.709223   364A      3.713569  
     365A      3.741589   366A      3.754855   367A      3.759593  
     368A      3.766895   369A      3.793715   370A      3.803633  
     371A      3.819462   372A      3.832060   373A      3.847035  
     374A      3.850166   375A      3.861300   376A      3.882347  
     377A      3.888958   378A      3.913763   379A      3.922153  
     380A      3.943098   381A      3.946144   382A      3.978425  
     383A      3.979456   384A      3.992882   385A      3.998603  
     386A      4.025778   387A      4.032622   388A      4.051287  
     389A      4.063663   390A      4.070214   391A      4.102870  
     392A      4.112218   393A      4.131628   394A      4.143660  
     395A      4.166029   396A      4.169545   397A      4.189701  
     398A      4.197347   399A      4.210728   400A      4.220618  
     401A      4.233525   402A      4.243775   403A      4.250377  
     404A      4.259373   405A      4.269786   406A      4.282527  
     407A      4.291851   408A      4.304056   409A      4.317611  
     410A      4.344815   411A      4.362039   412A      4.374708  
     413A      4.401840   414A      4.424515   415A      4.451794  
     416A      4.470749   417A      4.491777   418A      4.498685  
     419A      4.520695   420A      4.529314   421A      4.572549  
     422A      4.582630   423A      4.598247   424A      4.607104  
     425A      4.616005   426A      4.637433   427A      4.651365  
     428A      4.679760   429A      4.686939   430A      4.704090  
     431A      4.744790   432A      4.748281   433A      4.762540  
     434A      4.779444   435A      4.803176   436A      4.828129  
     437A      4.865767   438A      4.871570   439A      4.893008  
     440A      4.915585   441A      4.927584   442A      4.929889  
     443A      4.950772   444A      4.962919   445A      4.978789  
     446A      4.993482   447A      4.994872   448A      5.016785  
     449A      5.023822   450A      5.036898   451A      5.069270  
     452A      5.096044   453A      5.120658   454A      5.134957  
     455A      5.142906   456A      5.157454   457A      5.168963  
     458A      5.196792   459A      5.247676   460A      5.274576  
     461A      5.307156   462A      5.329613   463A      5.356453  
     464A      5.433341   465A      5.495700   466A      5.520064  
     467A      5.571165   468A      5.590434   469A      5.604402  
     470A      5.652135   471A      5.676214   472A      5.699187  
     473A      5.721833   474A      5.743523   475A      5.855812  
     476A      5.869083   477A      5.929944   478A      5.962171  
     479A      6.037187   480A      6.057527   481A      6.080834  
     482A      6.095696   483A      6.108676   484A      6.167334  
     485A      6.177938   486A      6.233838   487A      6.448659  
     488A      6.497937   489A      6.570986   490A      6.613787  
     491A      6.660694   492A      6.672913   493A      6.791336  
     494A      6.881565   495A      6.931637   496A      6.963081  
     497A      7.101755   498A      7.533626   499A      7.602834  
     500A     15.852617   501A     16.018393   502A     17.425222  
     503A     18.486307   504A     18.832738   505A     19.357034  
     506A     20.410995  

    Final Occupation by Irrep:
              A 
    DOCC [    25 ]

  @DF-RHF Final Energy:  -286.18152556375588

   => Energetics <=

    Nuclear Repulsion Energy =            280.2503377633575496
    One-Electron Energy =                -931.7777715001886918
    Two-Electron Energy =                 365.3459081730753155
    Total Energy =                       -286.1815255637558835

Computation Completed

*** tstop() called on node37.bme.utexas.edu at Sun Nov  8 21:07:04 2020
Module time:
	user time   =     217.23 seconds =       3.62 minutes
	system time =      49.86 seconds =       0.83 minutes
	total time  =         62 seconds =       1.03 minutes
Total time:
	user time   =     217.23 seconds =       3.62 minutes
	system time =      49.86 seconds =       0.83 minutes
	total time  =         62 seconds =       1.03 minutes
   => Loading Basis Set <=

    Name: (AUG-CC-PVTZ AUX)
    Role: RIFIT
    Keyword: DF_BASIS_MP2
    atoms 1    entry N          line   206 file /home/xy3866/psi4conda/share/psi4/basis/aug-cc-pvtz-ri.gbs 
    atoms 2-7  entry C          line   148 file /home/xy3866/psi4conda/share/psi4/basis/aug-cc-pvtz-ri.gbs 
    atoms 8-15 entry H          line    30 file /home/xy3866/psi4conda/share/psi4/basis/aug-cc-pvtz-ri.gbs 


*** tstart() called on node37.bme.utexas.edu
*** at Sun Nov  8 21:07:04 2020


  //>>>>>>>>>>>>>>>>>>>>>>>>>>>>>>>>>>>//
  //               DFMP2               //
  //<<<<<<<<<<<<<<<<<<<<<<<<<<<<<<<<<<<//

	 --------------------------------------------------------
	                          DF-MP2                         
	      2nd-Order Density-Fitted Moller-Plesset Theory     
	              RMP2 Wavefunction,   8 Threads             
	                                                         
	        Rob Parrish, Justin Turney, Andy Simmonett,      
	           Ed Hohenstein, and C. David Sherrill          
	 --------------------------------------------------------

   => Auxiliary Basis Set <=

  Basis Set: (AUG-CC-PVTZ AUX)
    Blend: AUG-CC-PVTZ-RI
    Number of shells: 308
    Number of basis function: 1110
    Number of Cartesian functions: 1392
    Spherical Harmonics?: true
    Max angular momentum: 4

	 --------------------------------------------------------
	                 NBF =   506, NAUX =  1110
	 --------------------------------------------------------
	   CLASS    FOCC     OCC    AOCC    AVIR     VIR    FVIR
	   PAIRS       0      25      25     481     481       0
	 --------------------------------------------------------

  DFHelper Memory: AOs need 2.111 GiB; user supplied 22.352 GiB. Using in-core AOs.


         ------------------------------------------------------------
                                     CPHF                           
                                  Rob Parrish                       
         ------------------------------------------------------------

  ==> Geometry <==

    Molecular point group: c1
    Full point group: C1

    Geometry (in Angstrom), charge = 1, multiplicity = 1:

       Center              X                  Y                   Z               Mass       
    ------------   -----------------  -----------------  -----------------  -----------------
         N           -2.347100825375     0.000014443064    -0.009588842128    14.003074004430
         C           -0.858025825375     0.000078443064    -0.034023842128    12.000000000000
         C           -0.203137825375    -1.225995556936    -0.023820842128    12.000000000000
         C           -0.202010325375     1.226039043064     0.126180857872    12.000000000000
         C            1.193235174625    -1.213005556936    -0.017395842128    12.000000000000
         C            1.193400174625     1.212922443064    -0.017398842128    12.000000000000
         C            1.886821174625    -0.000067556936    -0.012297842128    12.000000000000
         H           -0.747904825375    -2.168215556936    -0.027360842128     1.007825032230
         H           -0.747622825375     2.168352443064    -0.027337842128     1.007825032230
         H           -2.729873825375     0.831940443064    -0.480723842128     1.007825032230
         H           -2.730240825375    -0.824472556936    -0.493345842128     1.007825032230
         H           -2.718839825375    -0.007190556936     0.951745157872     1.007825032230
         H            1.734983174625    -2.154139556936    -0.017036842128     1.007825032230
         H            1.735237174625     2.154003443064    -0.017047842128     1.007825032230
         H            2.972784174625    -0.000136556936    -0.008605842128     1.007825032230

  Nuclear repulsion =  280.250337763357550
  Reference energy  = -286.181525563755883

  ==> Basis Set <==

  Basis Set: AUG-CC-PVTZ
    Blend: AUG-CC-PVTZ
    Number of shells: 170
    Number of basis function: 506
    Number of Cartesian functions: 585
    Spherical Harmonics?: true
    Max angular momentum: 3

  ==> CGRSolver (by Rob Parrish) <==

   Number of roots    =         1
   Preconditioning    =    JACOBI
   Convergence cutoff =     1E-06
   Maximum iterations =       100

  ==> CPHFRHamiltonian (by Rob Parrish) <== 

  ==> MemDFJK: Density-Fitted J/K Matrices <==

    J tasked:                   Yes
    K tasked:                   Yes
    wK tasked:                   No
    OpenMP threads:               8
    Memory [MiB]:             22888
    Algorithm:                 Disk
    Schwarz Cutoff:           1E-12
    Mask sparsity (%):       2.6582
    Fitting Condition:        1E-10

   => Auxiliary Basis Set <=

  Basis Set: (AUG-CC-PVTZ AUX)
    Blend: AUG-CC-PVTZ-JKFIT
    Number of shells: 322
    Number of basis function: 1096
    Number of Cartesian functions: 1357
    Spherical Harmonics?: true
    Max angular momentum: 4

  ==> CPHF Iterations <==

  => Iterations <=

             Iter  Converged  Remaining    Residual
  CGR           1          0          1   7.273E-02
  CGR           2          0          1   1.255E-02
  CGR           3          0          1   4.561E-03
  CGR           4          0          1   1.913E-03
  CGR           5          0          1   8.188E-04
  CGR           6          0          1   4.083E-04
  CGR           7          0          1   1.604E-04
  CGR           8          0          1   4.603E-05
  CGR           9          0          1   1.224E-05
  CGR          10          0          1   3.785E-06
  CGR          11          0          1   1.212E-06
  CGR          12          1          0   5.586E-07

    CGRSolver converged.

	-----------------------------------------------------------
	 ==================> DF-MP2 Energies <==================== 
	-----------------------------------------------------------
	 Reference Energy          =    -286.1815255637558835 [Eh]
	 Singles Energy            =      -0.0000000000000000 [Eh]
	 Same-Spin Energy          =      -0.3093387151948227 [Eh]
	 Opposite-Spin Energy      =      -0.9936988489869610 [Eh]
	 Correlation Energy        =      -1.3030375641817837 [Eh]
	 Total Energy              =    -287.4845631279376903 [Eh]
	-----------------------------------------------------------
	 ================> DF-SCS-MP2 Energies <================== 
	-----------------------------------------------------------
	 SCS Same-Spin Scale       =       0.3333333333333333 [-]
	 SCS Opposite-Spin Scale   =       1.2000000000000000 [-]
	 SCS Same-Spin Energy      =      -0.1031129050649409 [Eh]
	 SCS Opposite-Spin Energy  =      -1.1924386187843532 [Eh]
	 SCS Correlation Energy    =      -1.2955515238492941 [Eh]
	 SCS Total Energy          =    -287.4770770876051529 [Eh]
	-----------------------------------------------------------



Properties will be evaluated at   0.000000,   0.000000,   0.000000 [a0]

Properties computed using the MP2 density matrix

  Nuclear Dipole Moment: [e a0]
     X:    -3.0226      Y:     0.0001      Z:    -0.1122

  Electronic Dipole Moment: [e a0]
     X:     0.1887      Y:    -0.0168      Z:     0.0805

  Dipole Moment: [e a0]
     X:    -2.8339      Y:    -0.0166      Z:    -0.0317     Total:     2.8341

  Dipole Moment: [D]
     X:    -7.2031      Y:    -0.0423      Z:    -0.0805     Total:     7.2037


*** tstop() called on node37.bme.utexas.edu at Sun Nov  8 21:08:51 2020
Module time:
	user time   =     520.21 seconds =       8.67 minutes
	system time =      64.65 seconds =       1.08 minutes
	total time  =        107 seconds =       1.78 minutes
Total time:
	user time   =     737.66 seconds =      12.29 minutes
	system time =     114.52 seconds =       1.91 minutes
	total time  =        169 seconds =       2.82 minutes

    Psi4 stopped on: Sunday, 08 November 2020 09:08PM
    Psi4 wall time for execution: 0:02:54.12

*** Psi4 exiting successfully. Buy a developer a beer!
