12469140                                                                
Freq      RMP2-FC                                                     6-31G(d)            
Number of atoms                            I               16
Info1-9                                    I   N=           9
          28          26        1002           0           0         100
           6           2           1
Charge                                     I                0
Multiplicity                               I                1
Number of electrons                        I               48
Number of alpha electrons                  I               24
Number of beta electrons                   I               24
Number of basis functions                  I              110
Number of independent functions            I              110
Number of point charges in /Mol/           I                0
Number of translation vectors              I                0
Atomic numbers                             I   N=          16
           8           6           6           6           6           6
           1           1           1           1           1           1
           1           1           1           1
Nuclear charges                            R   N=          16
  8.00000000E+00  6.00000000E+00  6.00000000E+00  6.00000000E+00  6.00000000E+00
  6.00000000E+00  1.00000000E+00  1.00000000E+00  1.00000000E+00  1.00000000E+00
  1.00000000E+00  1.00000000E+00  1.00000000E+00  1.00000000E+00  1.00000000E+00
  1.00000000E+00
Current cartesian coordinates              R   N=          48
 -2.34967326E+00 -6.36233390E-01  2.28172523E+00 -1.25480675E+00 -9.10828080E-01
 -1.90843535E-01  1.49649840E+00 -1.53210632E-01 -1.47840420E-01 -2.86467175E+00
  7.00374425E-01 -1.93546623E+00  2.08449871E+00  2.53084818E+00  5.79263390E-01
  3.29682985E+00 -1.85800760E+00 -6.81393295E-01 -1.38101152E+00 -2.89768314E+00
 -7.98354001E-01 -2.13685775E+00  6.23976966E-01 -3.86810351E+00 -4.81038528E+00
  8.92982400E-03 -1.91915939E+00 -2.87253714E+00  2.66096841E+00 -1.29051143E+00
  1.02344031E+00  3.05772187E+00  2.27245763E+00  4.10208908E+00  2.77417688E+00
  9.49582488E-01  1.54664630E+00  3.84970678E+00 -9.22082908E-01  2.82554917E+00
 -3.78868882E+00 -1.19911380E+00  5.29257548E+00 -1.37802468E+00 -6.38378722E-01
 -1.34221324E+00 -1.67627477E+00  3.41754235E+00
Force Field                                I                0
Int Atom Types                             I   N=          16
           0           0           0           0           0           0
           0           0           0           0           0           0
           0           0           0           0
MM charges                                 R   N=          16
  0.00000000E+00  0.00000000E+00  0.00000000E+00  0.00000000E+00  0.00000000E+00
  0.00000000E+00  0.00000000E+00  0.00000000E+00  0.00000000E+00  0.00000000E+00
  0.00000000E+00  0.00000000E+00  0.00000000E+00  0.00000000E+00  0.00000000E+00
  0.00000000E+00
Integer atomic weights                     I   N=          16
          16          12          12          12          12          12
           1           1           1           1           1           1
           1           1           1           1
Real atomic weights                        R   N=          16
  1.59949146E+01  1.20000000E+01  1.20000000E+01  1.20000000E+01  1.20000000E+01
  1.20000000E+01  1.00782504E+00  1.00782504E+00  1.00782504E+00  1.00782504E+00
  1.00782504E+00  1.00782504E+00  1.00782504E+00  1.00782504E+00  1.00782504E+00
  1.00782504E+00
Atom fragment info                         I   N=          16
           0           0           0           0           0           0
           0           0           0           0           0           0
           0           0           0           0
Atom residue num                           I   N=          16
           0           0           0           0           0           0
           0           0           0           0           0           0
           0           0           0           0
Nuclear spins                              I   N=          16
           0           0           0           0           0           0
           1           1           1           1           1           1
           1           1           1           1
Nuclear ZEff                               R   N=          16
 -5.60000000E+00 -3.60000000E+00 -3.60000000E+00 -3.60000000E+00 -3.60000000E+00
 -3.60000000E+00 -1.00000000E+00 -1.00000000E+00 -1.00000000E+00 -1.00000000E+00
 -1.00000000E+00 -1.00000000E+00 -1.00000000E+00 -1.00000000E+00 -1.00000000E+00
 -1.00000000E+00
Nuclear QMom                               R   N=          16
  0.00000000E+00  0.00000000E+00  0.00000000E+00  0.00000000E+00  0.00000000E+00
  0.00000000E+00  0.00000000E+00  0.00000000E+00  0.00000000E+00  0.00000000E+00
  0.00000000E+00  0.00000000E+00  0.00000000E+00  0.00000000E+00  0.00000000E+00
  0.00000000E+00
Nuclear GFac                               R   N=          16
  0.00000000E+00  0.00000000E+00  0.00000000E+00  0.00000000E+00  0.00000000E+00
  0.00000000E+00  2.79284600E+00  2.79284600E+00  2.79284600E+00  2.79284600E+00
  2.79284600E+00  2.79284600E+00  2.79284600E+00  2.79284600E+00  2.79284600E+00
  2.79284600E+00
MicOpt                                     I   N=          16
          -1          -1          -1          -1          -1          -1
          -1          -1          -1          -1          -1          -1
          -1          -1          -1          -1
Number of contracted shells                I               44
Number of primitive shells                 I              106
Pure/Cartesian d shells                    I                1
Pure/Cartesian f shells                    I                0
Highest angular momentum                   I                2
Largest degree of contraction              I                6
Shell types                                I   N=          44
           0          -1          -1           2           0          -1
          -1           2           0          -1          -1           2
           0          -1          -1           2           0          -1
          -1           2           0          -1          -1           2
           0           0           0           0           0           0
           0           0           0           0           0           0
           0           0           0           0           0           0
           0           0
Number of primitives per shell             I   N=          44
           6           3           1           1           6           3
           1           1           6           3           1           1
           6           3           1           1           6           3
           1           1           6           3           1           1
           3           1           3           1           3           1
           3           1           3           1           3           1
           3           1           3           1           3           1
           3           1
Shell to atom map                          I   N=          44
           1           1           1           1           2           2
           2           2           3           3           3           3
           4           4           4           4           5           5
           5           5           6           6           6           6
           7           7           8           8           9           9
          10          10          11          11          12          12
          13          13          14          14          15          15
          16          16
Primitive exponents                        R   N=         106
  5.48467166E+03  8.25234946E+02  1.88046958E+02  5.29645000E+01  1.68975704E+01
  5.79963534E+00  1.55396162E+01  3.59993359E+00  1.01376175E+00  2.70005823E-01
  8.00000000E-01  3.04752488E+03  4.57369518E+02  1.03948685E+02  2.92101553E+01
  9.28666296E+00  3.16392696E+00  7.86827235E+00  1.88128854E+00  5.44249258E-01
  1.68714478E-01  8.00000000E-01  3.04752488E+03  4.57369518E+02  1.03948685E+02
  2.92101553E+01  9.28666296E+00  3.16392696E+00  7.86827235E+00  1.88128854E+00
  5.44249258E-01  1.68714478E-01  8.00000000E-01  3.04752488E+03  4.57369518E+02
  1.03948685E+02  2.92101553E+01  9.28666296E+00  3.16392696E+00  7.86827235E+00
  1.88128854E+00  5.44249258E-01  1.68714478E-01  8.00000000E-01  3.04752488E+03
  4.57369518E+02  1.03948685E+02  2.92101553E+01  9.28666296E+00  3.16392696E+00
  7.86827235E+00  1.88128854E+00  5.44249258E-01  1.68714478E-01  8.00000000E-01
  3.04752488E+03  4.57369518E+02  1.03948685E+02  2.92101553E+01  9.28666296E+00
  3.16392696E+00  7.86827235E+00  1.88128854E+00  5.44249258E-01  1.68714478E-01
  8.00000000E-01  1.87311370E+01  2.82539436E+00  6.40121692E-01  1.61277759E-01
  1.87311370E+01  2.82539436E+00  6.40121692E-01  1.61277759E-01  1.87311370E+01
  2.82539436E+00  6.40121692E-01  1.61277759E-01  1.87311370E+01  2.82539436E+00
  6.40121692E-01  1.61277759E-01  1.87311370E+01  2.82539436E+00  6.40121692E-01
  1.61277759E-01  1.87311370E+01  2.82539436E+00  6.40121692E-01  1.61277759E-01
  1.87311370E+01  2.82539436E+00  6.40121692E-01  1.61277759E-01  1.87311370E+01
  2.82539436E+00  6.40121692E-01  1.61277759E-01  1.87311370E+01  2.82539436E+00
  6.40121692E-01  1.61277759E-01  1.87311370E+01  2.82539436E+00  6.40121692E-01
  1.61277759E-01
Contraction coefficients                   R   N=         106
  1.83107443E-03  1.39501722E-02  6.84450781E-02  2.32714336E-01  4.70192898E-01
  3.58520853E-01 -1.10777550E-01 -1.48026263E-01  1.13076702E+00  1.00000000E+00
  1.00000000E+00  1.83473713E-03  1.40373228E-02  6.88426223E-02  2.32184443E-01
  4.67941348E-01  3.62311985E-01 -1.19332420E-01 -1.60854152E-01  1.14345644E+00
  1.00000000E+00  1.00000000E+00  1.83473713E-03  1.40373228E-02  6.88426223E-02
  2.32184443E-01  4.67941348E-01  3.62311985E-01 -1.19332420E-01 -1.60854152E-01
  1.14345644E+00  1.00000000E+00  1.00000000E+00  1.83473713E-03  1.40373228E-02
  6.88426223E-02  2.32184443E-01  4.67941348E-01  3.62311985E-01 -1.19332420E-01
 -1.60854152E-01  1.14345644E+00  1.00000000E+00  1.00000000E+00  1.83473713E-03
  1.40373228E-02  6.88426223E-02  2.32184443E-01  4.67941348E-01  3.62311985E-01
 -1.19332420E-01 -1.60854152E-01  1.14345644E+00  1.00000000E+00  1.00000000E+00
  1.83473713E-03  1.40373228E-02  6.88426223E-02  2.32184443E-01  4.67941348E-01
  3.62311985E-01 -1.19332420E-01 -1.60854152E-01  1.14345644E+00  1.00000000E+00
  1.00000000E+00  3.34946043E-02  2.34726953E-01  8.13757326E-01  1.00000000E+00
  3.34946043E-02  2.34726953E-01  8.13757326E-01  1.00000000E+00  3.34946043E-02
  2.34726953E-01  8.13757326E-01  1.00000000E+00  3.34946043E-02  2.34726953E-01
  8.13757326E-01  1.00000000E+00  3.34946043E-02  2.34726953E-01  8.13757326E-01
  1.00000000E+00  3.34946043E-02  2.34726953E-01  8.13757326E-01  1.00000000E+00
  3.34946043E-02  2.34726953E-01  8.13757326E-01  1.00000000E+00  3.34946043E-02
  2.34726953E-01  8.13757326E-01  1.00000000E+00  3.34946043E-02  2.34726953E-01
  8.13757326E-01  1.00000000E+00  3.34946043E-02  2.34726953E-01  8.13757326E-01
  1.00000000E+00
P(S=P) Contraction coefficients            R   N=         106
  0.00000000E+00  0.00000000E+00  0.00000000E+00  0.00000000E+00  0.00000000E+00
  0.00000000E+00  7.08742682E-02  3.39752839E-01  7.27158577E-01  1.00000000E+00
  0.00000000E+00  0.00000000E+00  0.00000000E+00  0.00000000E+00  0.00000000E+00
  0.00000000E+00  0.00000000E+00  6.89990666E-02  3.16423961E-01  7.44308291E-01
  1.00000000E+00  0.00000000E+00  0.00000000E+00  0.00000000E+00  0.00000000E+00
  0.00000000E+00  0.00000000E+00  0.00000000E+00  6.89990666E-02  3.16423961E-01
  7.44308291E-01  1.00000000E+00  0.00000000E+00  0.00000000E+00  0.00000000E+00
  0.00000000E+00  0.00000000E+00  0.00000000E+00  0.00000000E+00  6.89990666E-02
  3.16423961E-01  7.44308291E-01  1.00000000E+00  0.00000000E+00  0.00000000E+00
  0.00000000E+00  0.00000000E+00  0.00000000E+00  0.00000000E+00  0.00000000E+00
  6.89990666E-02  3.16423961E-01  7.44308291E-01  1.00000000E+00  0.00000000E+00
  0.00000000E+00  0.00000000E+00  0.00000000E+00  0.00000000E+00  0.00000000E+00
  0.00000000E+00  6.89990666E-02  3.16423961E-01  7.44308291E-01  1.00000000E+00
  0.00000000E+00  0.00000000E+00  0.00000000E+00  0.00000000E+00  0.00000000E+00
  0.00000000E+00  0.00000000E+00  0.00000000E+00  0.00000000E+00  0.00000000E+00
  0.00000000E+00  0.00000000E+00  0.00000000E+00  0.00000000E+00  0.00000000E+00
  0.00000000E+00  0.00000000E+00  0.00000000E+00  0.00000000E+00  0.00000000E+00
  0.00000000E+00  0.00000000E+00  0.00000000E+00  0.00000000E+00  0.00000000E+00
  0.00000000E+00  0.00000000E+00  0.00000000E+00  0.00000000E+00  0.00000000E+00
  0.00000000E+00  0.00000000E+00  0.00000000E+00  0.00000000E+00  0.00000000E+00
  0.00000000E+00  0.00000000E+00  0.00000000E+00  0.00000000E+00  0.00000000E+00
  0.00000000E+00
Coordinates of each shell                  R   N=         132
 -2.34967326E+00 -6.36233390E-01  2.28172523E+00 -2.34967326E+00 -6.36233390E-01
  2.28172523E+00 -2.34967326E+00 -6.36233390E-01  2.28172523E+00 -2.34967326E+00
 -6.36233390E-01  2.28172523E+00 -1.25480675E+00 -9.10828080E-01 -1.90843535E-01
 -1.25480675E+00 -9.10828080E-01 -1.90843535E-01 -1.25480675E+00 -9.10828080E-01
 -1.90843535E-01 -1.25480675E+00 -9.10828080E-01 -1.90843535E-01  1.49649840E+00
 -1.53210632E-01 -1.47840420E-01  1.49649840E+00 -1.53210632E-01 -1.47840420E-01
  1.49649840E+00 -1.53210632E-01 -1.47840420E-01  1.49649840E+00 -1.53210632E-01
 -1.47840420E-01 -2.86467175E+00  7.00374425E-01 -1.93546623E+00 -2.86467175E+00
  7.00374425E-01 -1.93546623E+00 -2.86467175E+00  7.00374425E-01 -1.93546623E+00
 -2.86467175E+00  7.00374425E-01 -1.93546623E+00  2.08449871E+00  2.53084818E+00
  5.79263390E-01  2.08449871E+00  2.53084818E+00  5.79263390E-01  2.08449871E+00
  2.53084818E+00  5.79263390E-01  2.08449871E+00  2.53084818E+00  5.79263390E-01
  3.29682985E+00 -1.85800760E+00 -6.81393295E-01  3.29682985E+00 -1.85800760E+00
 -6.81393295E-01  3.29682985E+00 -1.85800760E+00 -6.81393295E-01  3.29682985E+00
 -1.85800760E+00 -6.81393295E-01 -1.38101152E+00 -2.89768314E+00 -7.98354001E-01
 -1.38101152E+00 -2.89768314E+00 -7.98354001E-01 -2.13685775E+00  6.23976966E-01
 -3.86810351E+00 -2.13685775E+00  6.23976966E-01 -3.86810351E+00 -4.81038528E+00
  8.92982400E-03 -1.91915939E+00 -4.81038528E+00  8.92982400E-03 -1.91915939E+00
 -2.87253714E+00  2.66096841E+00 -1.29051143E+00 -2.87253714E+00  2.66096841E+00
 -1.29051143E+00  1.02344031E+00  3.05772187E+00  2.27245763E+00  1.02344031E+00
  3.05772187E+00  2.27245763E+00  4.10208908E+00  2.77417688E+00  9.49582488E-01
  4.10208908E+00  2.77417688E+00  9.49582488E-01  1.54664630E+00  3.84970678E+00
 -9.22082908E-01  1.54664630E+00  3.84970678E+00 -9.22082908E-01  2.82554917E+00
 -3.78868882E+00 -1.19911380E+00  2.82554917E+00 -3.78868882E+00 -1.19911380E+00
  5.29257548E+00 -1.37802468E+00 -6.38378722E-01  5.29257548E+00 -1.37802468E+00
 -6.38378722E-01 -1.34221324E+00 -1.67627477E+00  3.41754235E+00 -1.34221324E+00
 -1.67627477E+00  3.41754235E+00
Constraint Structure                       R   N=          48
 -2.34967326E+00 -6.36233390E-01  2.28172523E+00 -1.25480675E+00 -9.10828080E-01
 -1.90843535E-01  1.49649840E+00 -1.53210632E-01 -1.47840420E-01 -2.86467175E+00
  7.00374425E-01 -1.93546623E+00  2.08449871E+00  2.53084818E+00  5.79263390E-01
  3.29682985E+00 -1.85800760E+00 -6.81393295E-01 -1.38101152E+00 -2.89768314E+00
 -7.98354001E-01 -2.13685775E+00  6.23976966E-01 -3.86810351E+00 -4.81038528E+00
  8.92982400E-03 -1.91915939E+00 -2.87253714E+00  2.66096841E+00 -1.29051143E+00
  1.02344031E+00  3.05772187E+00  2.27245763E+00  4.10208908E+00  2.77417688E+00
  9.49582488E-01  1.54664630E+00  3.84970678E+00 -9.22082908E-01  2.82554917E+00
 -3.78868882E+00 -1.19911380E+00  5.29257548E+00 -1.37802468E+00 -6.38378722E-01
 -1.34221324E+00 -1.67627477E+00  3.41754235E+00
Num ILSW                                   I              100
ILSW                                       I   N=         100
           0           1           0           0           2           0
           0           0           0           0           0          -1
           0           0           0           0           0           0
           0           0           0           0           1           0
           1           0           0           0           0           0
           0           0      100000           0          -1           0
           0           0           0           0           0           0
           0           0           0           1           1           0
           0           0           1           0           0           0
           0           0           4          40           0           0
           0           0           0           0           0           0
           0           0           0           0           0           0
           0           0           0           0           0           0
           0           0           0           0           0           0
           0           0           0           0           0           0
           0           0           0           0           0           0
           0           0           0           0
Num RLSW                                   I               40
RLSW                                       R   N=          40
  1.00000000E+00  1.00000000E+00  1.00000000E+00  1.00000000E+00  1.00000000E+00
  0.00000000E+00  0.00000000E+00  1.00000000E+00  0.00000000E+00  0.00000000E+00
  0.00000000E+00  0.00000000E+00  1.00000000E+00  0.00000000E+00  0.00000000E+00
  0.00000000E+00  0.00000000E+00  1.00000000E+00  0.00000000E+00  0.00000000E+00
  0.00000000E+00  0.00000000E+00  1.00000000E+00  0.00000000E+00  0.00000000E+00
  0.00000000E+00  0.00000000E+00  1.00000000E+00  0.00000000E+00  0.00000000E+00
  0.00000000E+00  0.00000000E+00  0.00000000E+00  0.00000000E+00  0.00000000E+00
  0.00000000E+00  0.00000000E+00  0.00000000E+00  1.00000000E+00  1.00000000E+00
MxBond                                     I                4
NBond                                      I   N=          16
           2           4           3           4           4           3
           1           1           1           1           1           1
           1           1           1           1
IBond                                      I   N=          64
           2          16           0           0           1           3
           4           7           2           5           6           0
           2           8           9          10           3          11
          12          13           3          14          15           0
           2           0           0           0           4           0
           0           0           4           0           0           0
           4           0           0           0           5           0
           0           0           5           0           0           0
           5           0           0           0           6           0
           0           0           6           0           0           0
           1           0           0           0
RBond                                      R   N=          64
  1.00000000E+00  1.00000000E+00  0.00000000E+00  0.00000000E+00  1.00000000E+00
  1.00000000E+00  1.00000000E+00  1.00000000E+00  1.00000000E+00  1.00000000E+00
  2.00000000E+00  0.00000000E+00  1.00000000E+00  1.00000000E+00  1.00000000E+00
  1.00000000E+00  1.00000000E+00  1.00000000E+00  1.00000000E+00  1.00000000E+00
  2.00000000E+00  1.00000000E+00  1.00000000E+00  0.00000000E+00  1.00000000E+00
  0.00000000E+00  0.00000000E+00  0.00000000E+00  1.00000000E+00  0.00000000E+00
  0.00000000E+00  0.00000000E+00  1.00000000E+00  0.00000000E+00  0.00000000E+00
  0.00000000E+00  1.00000000E+00  0.00000000E+00  0.00000000E+00  0.00000000E+00
  1.00000000E+00  0.00000000E+00  0.00000000E+00  0.00000000E+00  1.00000000E+00
  0.00000000E+00  0.00000000E+00  0.00000000E+00  1.00000000E+00  0.00000000E+00
  0.00000000E+00  0.00000000E+00  1.00000000E+00  0.00000000E+00  0.00000000E+00
  0.00000000E+00  1.00000000E+00  0.00000000E+00  0.00000000E+00  0.00000000E+00
  1.00000000E+00  0.00000000E+00  0.00000000E+00  0.00000000E+00
Virial Ratio                               R      2.001892150888307E+00
SCF Energy                                 R     -2.699929264870419E+02
MP2 Energy                                 R     -2.708222843664205E+02
Total Energy                               R     -2.708222843664205E+02
Post-SCF wavefunction norm                 R      1.594802704369025E+00
RMS Force                                  R      2.065247688568816E-07
RMS Density                                R      1.035528184144170E-09
External E-field                           R   N=          35
  0.00000000E+00  0.00000000E+00  0.00000000E+00  0.00000000E+00  0.00000000E+00
  0.00000000E+00  0.00000000E+00  0.00000000E+00  0.00000000E+00  0.00000000E+00
  0.00000000E+00  0.00000000E+00  0.00000000E+00  0.00000000E+00  0.00000000E+00
  0.00000000E+00  0.00000000E+00  0.00000000E+00  0.00000000E+00  0.00000000E+00
  0.00000000E+00  0.00000000E+00  0.00000000E+00  0.00000000E+00  0.00000000E+00
  0.00000000E+00  0.00000000E+00  0.00000000E+00  0.00000000E+00  0.00000000E+00
  0.00000000E+00  0.00000000E+00  0.00000000E+00  0.00000000E+00  0.00000000E+00
IOpCl                                      I                0
IROHF                                      I                0
Alpha Orbital Energies                     R   N=         110
 -2.05589583E+01 -1.12824799E+01 -1.12394666E+01 -1.12238823E+01 -1.12198666E+01
 -1.12133448E+01 -1.35075127E+00 -1.08948029E+00 -9.96120140E-01 -9.35803434E-01
 -8.43255730E-01 -7.31132825E-01 -6.87311973E-01 -6.46027260E-01 -5.94066703E-01
 -5.86816121E-01 -5.60593782E-01 -5.46415108E-01 -5.28447549E-01 -5.21159713E-01
 -5.06983486E-01 -4.74326614E-01 -4.34438666E-01 -3.54454458E-01  1.73998172E-01
  2.25299164E-01  2.57292410E-01  2.71058323E-01  2.85566616E-01  3.02420886E-01
  3.18998450E-01  3.33283209E-01  3.40883241E-01  3.50629639E-01  3.66867833E-01
  4.06574229E-01  4.17695805E-01  4.45181553E-01  5.01689215E-01  5.53674398E-01
  7.16596044E-01  7.20794894E-01  7.48085693E-01  7.68537377E-01  7.95355897E-01
  8.20773991E-01  8.71531274E-01  8.93220235E-01  9.00903721E-01  9.22018804E-01
  9.61029770E-01  1.00711053E+00  1.02117646E+00  1.05998842E+00  1.09803857E+00
  1.11380113E+00  1.14800750E+00  1.15466799E+00  1.16220240E+00  1.17408550E+00
  1.18887052E+00  1.20947808E+00  1.22162030E+00  1.24027327E+00  1.27111959E+00
  1.27956197E+00  1.33815127E+00  1.38965760E+00  1.41515408E+00  1.48101047E+00
  1.52269613E+00  1.61607969E+00  1.64630864E+00  1.70503123E+00  1.74188943E+00
  1.91553463E+00  1.93973924E+00  2.00677429E+00  2.03041061E+00  2.08977510E+00
  2.13009269E+00  2.14715718E+00  2.24493419E+00  2.25925890E+00  2.26474544E+00
  2.33668870E+00  2.37400900E+00  2.39379890E+00  2.49927232E+00  2.50976076E+00
  2.55417376E+00  2.60031214E+00  2.64338861E+00  2.67044267E+00  2.72988577E+00
  2.73639511E+00  2.75322840E+00  2.83290461E+00  2.89042844E+00  2.91238959E+00
  3.03637933E+00  3.24113698E+00  3.24949406E+00  3.31226596E+00  4.16808093E+00
  4.54033089E+00  4.61187672E+00  4.71159367E+00  4.89428625E+00  4.97577469E+00
Alpha MO coefficients                      R   N=       12100
  9.94668518E-01  2.11665252E-02  1.02205884E-03 -7.34467807E-04 -2.25921117E-04
  3.70384669E-03 -5.69157618E-04  3.96921864E-04  1.49304557E-04 -3.97823508E-03
 -3.92149795E-03 -4.18134404E-03  1.17228018E-04  5.95965777E-05  5.35675711E-05
 -3.63918951E-05  1.21364507E-04 -1.62590463E-04  4.73358374E-05  3.04597428E-04
  6.10599676E-04  2.45752269E-04 -8.94462622E-05  1.16961288E-04 -2.37124965E-05
 -7.60348215E-05  6.10912452E-05 -7.74420974E-06 -5.24510780E-05  1.08720362E-05
 -8.26764470E-06  1.89371279E-05  3.53991303E-05 -1.53913966E-06 -3.09355611E-05
 -1.01335699E-05  1.89300865E-04  3.27066356E-04  6.87777186E-05 -7.28686494E-05
 -3.08332349E-05 -3.78928214E-05  1.52930855E-07  3.20595334E-05  4.93638607E-06
  8.50176699E-06  8.46491819E-05 -1.48453115E-05  9.77090350E-06  1.92369275E-05
 -8.04776129E-05  4.77466277E-05 -2.00260472E-05 -2.91007544E-04  3.21141365E-06
 -7.94705272E-06 -4.71401276E-05 -6.40099000E-06 -1.94948726E-05  1.81963451E-05
  7.30649973E-06  3.12310374E-05 -8.45310843E-06  1.71322060E-06 -7.18982933E-06
 -2.86243563E-04  5.25782113E-05  1.66371281E-04  8.84632000E-05  1.36019598E-05
 -2.37055495E-06  1.28760898E-05 -5.87760871E-06  5.54175569E-06 -1.98632560E-06
  3.12326143E-06  6.89321521E-06 -1.98678592E-05  8.27299071E-06  2.02356094E-06
  2.76783162E-05 -4.89601940E-05 -4.12250818E-05 -2.04935568E-05  1.61099119E-05
  9.28452768E-06  8.46509361E-06 -9.19922427E-06  1.44039471E-06 -2.63129591E-06
 -5.89817549E-05 -1.03618915E-04 -1.39936744E-05 -1.47762184E-04  4.36273750E-05
 -1.29596087E-05  4.78816854E-05  2.26593227E-05  3.54169546E-05 -1.06025427E-04
  2.89896780E-06 -1.98984912E-05  6.47630228E-06  3.69221430E-05 -1.94864484E-06
 -1.87009609E-05  2.81610242E-06  1.73575953E-05  4.24845835E-04 -2.06987289E-04
 -2.08004366E-04 -2.01214789E-04  5.26232329E-05 -3.34736124E-05 -9.00973909E-05
  3.64350218E-03  3.79947597E-04  1.91596793E-04 -7.16129179E-04 -2.95175650E-04
 -1.34812700E-04 -8.16091488E-04  7.63769429E-05  2.59974882E-04 -1.18985406E-04
  9.96053575E-01  2.80682334E-02 -1.64591790E-04  3.35380231E-04  6.33010313E-04
 -2.01205106E-02 -8.69064621E-04 -2.34623020E-03  6.47303733E-05 -1.25023472E-03
 -1.12955475E-03 -1.18349225E-03 -1.08712530E-05 -1.66251002E-05  2.64251680E-05
  7.48289232E-03  3.05133472E-04 -6.26094215E-05  1.53865500E-05 -2.58351587E-05
  3.59445668E-03 -4.05591858E-03 -9.33962465E-04  7.87504909E-05 -3.31705638E-04
 -1.93257525E-04 -1.28305217E-04 -1.08500802E-04  4.61744324E-06  1.71407488E-05
  4.41148004E-03  4.92364589E-05  1.47549427E-04 -6.99789479E-05  9.95856461E-05
  5.31265565E-03  1.41538315E-03 -1.05966344E-03  1.76098234E-03 -1.79687427E-04
 -2.57270751E-04 -2.00027814E-04  1.01488374E-04 -5.92537496E-05  1.75291128E-04
 -1.92650827E-04 -4.12418626E-04  1.80671844E-04  4.95223114E-05  3.58508056E-05
  1.76933868E-03 -4.34362905E-04 -5.09118493E-04 -3.85041166E-04 -9.07531848E-05
 -5.56438811E-05 -1.69949717E-04 -1.94348505E-05 -4.84460290E-05  4.29441787E-05
 -5.07122065E-05 -2.46557655E-04  7.79366005E-05  1.14499152E-05  1.69892350E-06
  1.40055445E-03  1.58648174E-05  8.88866976E-04  1.76956186E-04 -2.74438284E-05
  5.26922406E-05 -1.22395848E-04 -1.48480084E-05 -1.06021402E-06  4.97157506E-05
  2.40715739E-04  2.30528237E-03 -1.57465683E-04  7.52878329E-05 -1.77267753E-04
 -6.82243843E-05 -2.22476133E-04 -9.11431226E-05 -1.61145190E-04  2.81266158E-06
 -2.24710981E-05  2.61544329E-04 -5.34931034E-05 -5.38470926E-04 -4.59559525E-06
  7.49311967E-05 -8.03213775E-05 -1.19935739E-04 -2.31300289E-05  2.05287797E-04
 -6.32425721E-05 -3.64339748E-04 -1.19979994E-04 -2.49584945E-05  8.17636487E-05
  1.34413680E-03  5.60867626E-04  1.06818102E-04 -5.51027741E-04 -6.67216799E-05
 -2.93730902E-04 -1.48666311E-04  2.55636169E-05 -9.37133957E-05 -3.79376001E-05
 -7.67825678E-03  3.81518401E-04  7.03410335E-05  3.72512438E-05 -7.22423510E-05
  8.25021297E-05  9.24106142E-04 -6.82033487E-04 -2.72029668E-04 -4.68032955E-04
 -5.81352434E-05 -1.20467770E-04 -1.18699553E-04  1.84610400E-05 -1.30333997E-05
  9.94269053E-01  2.74378044E-02 -1.51734589E-04  1.05648383E-04  5.90171905E-05
 -1.31434736E-02 -6.22617364E-04 -5.05059106E-04 -1.39707056E-04 -1.35376101E-03
 -1.44964535E-03 -2.06874893E-03 -2.68910035E-04 -1.38415483E-04  2.19742706E-04
 -4.15230673E-04 -3.59502103E-04 -1.28515961E-04 -2.30494287E-05  2.57694339E-06
  1.49319048E-03  1.03683156E-03  1.30578257E-04  4.62558797E-04 -9.24971895E-06
 -1.14488864E-04 -5.16621473E-05 -3.31120151E-05  7.02130803E-05 -1.77161272E-05
  1.65224956E-02  5.37367336E-04 -1.45636152E-05  9.54337574E-05 -1.02549973E-05
  3.35400849E-03 -1.41545080E-04 -1.63089122E-03 -2.57579409E-04 -1.97741316E-04
 -5.89881567E-04 -1.41304333E-04 -1.15002910E-04 -4.06093355E-05 -1.53790500E-04
  5.05949488E-02  1.08352290E-03  2.00203838E-04 -1.79532546E-04 -5.20029053E-05
  3.77630756E-03 -1.03686046E-03  1.31858116E-03  3.95140385E-04 -4.49289517E-04
 -4.01726890E-04 -2.16916913E-04  6.76928890E-05  2.66903092E-05 -6.42898701E-05
 -1.20899783E-05 -3.51380673E-04 -1.87917709E-04  2.76389686E-05  3.45982095E-06
  4.41136297E-04 -8.27686437E-05 -4.31725030E-04 -1.45634754E-04  1.21767098E-04
 -1.08752152E-04 -1.74222499E-04 -1.55883587E-04  3.15603022E-04 -6.70097972E-05
  9.40558273E-05 -9.23184146E-05 -8.71961640E-05 -2.20683455E-04  3.92947020E-04
  2.19935087E-05  9.49683148E-05  2.59107662E-05 -1.40606282E-05 -2.34326576E-06
 -4.28853084E-04 -1.45009282E-04  8.86217861E-05  2.77516168E-05  4.70431450E-05
  8.15175008E-05  6.89887239E-05  2.19863600E-05  5.79029054E-06  3.04687579E-07
  3.79800313E-04 -2.30871821E-04 -3.58965553E-05  2.73088927E-05  1.95177106E-05
  6.32855810E-04  2.30372350E-04 -3.26336386E-05  6.70380644E-05  1.05264003E-04
 -1.21514262E-05 -3.94757783E-05  7.88637804E-06 -1.22516489E-05  1.81037818E-05
 -5.11441422E-02 -1.64816889E-03 -1.39991006E-04  1.34266884E-04  4.04419451E-05
  4.25044056E-03  1.52095119E-03 -1.04091340E-03 -3.81042761E-04 -2.55628529E-04
 -2.29320767E-04  2.40967352E-05 -1.66263796E-06  1.95795837E-05 -8.22915571E-05
  1.14596154E-04  4.27328313E-05  8.85191134E-06  8.23959720E-06 -5.35786841E-06
 -2.16528791E-04 -7.68080838E-05 -2.78970675E-05  5.28496924E-05  1.02084763E-05
  2.27054567E-05  2.13104242E-05  1.06233927E-05  1.01664173E-05 -1.40420786E-06