
    -----------------------------------------------------------------------
          Psi4: An Open-Source Ab Initio Electronic Structure Package
                               Psi4 1.3.2 release

                         Git: Rev {HEAD} ecbda83 


    R. M. Parrish, L. A. Burns, D. G. A. Smith, A. C. Simmonett,
    A. E. DePrince III, E. G. Hohenstein, U. Bozkaya, A. Yu. Sokolov,
    R. Di Remigio, R. M. Richard, J. F. Gonthier, A. M. James,
    H. R. McAlexander, A. Kumar, M. Saitow, X. Wang, B. P. Pritchard,
    P. Verma, H. F. Schaefer III, K. Patkowski, R. A. King, E. F. Valeev,
    F. A. Evangelista, J. M. Turney, T. D. Crawford, and C. D. Sherrill,
    J. Chem. Theory Comput. 13(7) pp 3185--3197 (2017).
    (doi: 10.1021/acs.jctc.7b00174)


                         Additional Contributions by
    P. Kraus, H. Kruse, M. H. Lechner, M. C. Schieber, R. A. Shaw,
    A. Alenaizan, R. Galvelis, Z. L. Glick, S. Lehtola, and J. P. Misiewicz

    -----------------------------------------------------------------------


    Psi4 started on: Wednesday, 03 February 2021 01:17AM

    Process ID: 6801
    Host:       node37.bme.utexas.edu
    PSIDATADIR: /home/xy3866/psi4conda/share/psi4
    Memory:     500.0 MiB
    Threads:    8
    
  ==> Input File <==

--------------------------------------------------------------------------
#psi4
#
memory 32 gb

molecule  {
0 1
  O        1.7203660    -0.6953490    -0.0000010
  N        0.1393260     1.0073400     0.0000030
  C        0.4373145    -0.2486060     0.0000000
  C       -0.5457690    -1.3124170    -0.0000030
  C       -1.8791730    -0.9359260    -0.0000020
  C       -2.2045600     0.4273250     0.0000020
  C       -1.1677370     1.3501220     0.0000040
  C        2.6948290     0.3578870    -0.0000010
  H       -0.2317940    -2.3512570    -0.0000050
  H       -2.6601020    -1.6923860    -0.0000030
  H       -3.2375940     0.7610840     0.0000020
  H       -1.3695760     2.4196570     0.0000060
  H        2.5921510     0.9846430     0.8882900
  H        2.5921450     0.9846480    -0.8882890
  H        3.6559850    -0.1549850    -0.0000060
units angstrom
no_reorient  #important for SAPT in psi4, default
symmetry c1  #important for SAPT in psi4, default
}

set PROPERTIES_ORIGIN ["COM"]
properties('MP2/aug-cc-pvtz', properties = ['dipole'])
--------------------------------------------------------------------------

  Memory set to  29.802 GiB by Python driver.
    SCF Algorithm Type (re)set to DF.

*** tstart() called on node37.bme.utexas.edu
*** at Wed Feb  3 01:17:41 2021

   => Loading Basis Set <=

    Name: AUG-CC-PVTZ
    Role: ORBITAL
    Keyword: BASIS
    atoms 1    entry O          line   327 file /home/xy3866/psi4conda/share/psi4/basis/aug-cc-pvtz.gbs 
    atoms 2    entry N          line   281 file /home/xy3866/psi4conda/share/psi4/basis/aug-cc-pvtz.gbs 
    atoms 3-8  entry C          line   235 file /home/xy3866/psi4conda/share/psi4/basis/aug-cc-pvtz.gbs 
    atoms 9-15 entry H          line    36 file /home/xy3866/psi4conda/share/psi4/basis/aug-cc-pvtz.gbs 


         ---------------------------------------------------------
                                   SCF
               by Justin Turney, Rob Parrish, Andy Simmonett
                          and Daniel G. A. Smith
                              RHF Reference
                        8 Threads,  30517 MiB Core
         ---------------------------------------------------------

  ==> Geometry <==

    Molecular point group: c1
    Full point group: C1

    Geometry (in Angstrom), charge = 0, multiplicity = 1:

       Center              X                  Y                   Z               Mass       
    ------------   -----------------  -----------------  -----------------  -----------------
         O            1.731015307136    -0.691711104570    -0.000001192340    15.994914619570
         N            0.149975307136     1.010977895430     0.000002807660    14.003074004430
         C            0.447963807136    -0.244968104570    -0.000000192340    12.000000000000
         C           -0.535119692864    -1.308779104570    -0.000003192340    12.000000000000
         C           -1.868523692864    -0.932288104570    -0.000002192340    12.000000000000
         C           -2.193910692864     0.430962895430     0.000001807660    12.000000000000
         C           -1.157087692864     1.353759895430     0.000003807660    12.000000000000
         C            2.705478307136     0.361524895430    -0.000001192340    12.000000000000
         H           -0.221144692864    -2.347619104570    -0.000005192340     1.007825032230
         H           -2.649452692864    -1.688748104570    -0.000003192340     1.007825032230
         H           -3.226944692864     0.764721895430     0.000001807660     1.007825032230
         H           -1.358926692864     2.423294895430     0.000005807660     1.007825032230
         H            2.602800307136     0.988280895430     0.888289807660     1.007825032230
         H            2.602794307136     0.988285895430    -0.888289192340     1.007825032230
         H            3.666634307136    -0.151347104570    -0.000006192340     1.007825032230

  Running in c1 symmetry.

  Rotational constants: A =      0.17216  B =      0.05509  C =      0.04207 [cm^-1]
  Rotational constants: A =   5161.36337  B =   1651.67163  C =   1261.19256 [MHz]
  Nuclear repulsion =  350.675383006453501

  Charge       = 0
  Multiplicity = 1
  Electrons    = 58
  Nalpha       = 29
  Nbeta        = 29

  ==> Algorithm <==

  SCF Algorithm Type is DF.
  DIIS enabled.
  MOM disabled.
  Fractional occupation disabled.
  Guess Type is SAD.
  Energy threshold   = 1.00e-10
  Density threshold  = 1.00e-10
  Integral threshold = 0.00e+00

  ==> Primary Basis <==

  Basis Set: AUG-CC-PVTZ
    Blend: AUG-CC-PVTZ
    Number of shells: 175
    Number of basis function: 529
    Number of Cartesian functions: 615
    Spherical Harmonics?: true
    Max angular momentum: 3

   => Loading Basis Set <=

    Name: (AUG-CC-PVTZ AUX)
    Role: JKFIT
    Keyword: DF_BASIS_SCF
    atoms 1    entry O          line   286 file /home/xy3866/psi4conda/share/psi4/basis/aug-cc-pvtz-jkfit.gbs 
    atoms 2    entry N          line   224 file /home/xy3866/psi4conda/share/psi4/basis/aug-cc-pvtz-jkfit.gbs 
    atoms 3-8  entry C          line   162 file /home/xy3866/psi4conda/share/psi4/basis/aug-cc-pvtz-jkfit.gbs 
    atoms 9-15 entry H          line    70 file /home/xy3866/psi4conda/share/psi4/basis/aug-cc-pvtz-jkfit.gbs 

  ==> Pre-Iterations <==

   -------------------------------------------------------
    Irrep   Nso     Nmo     Nalpha   Nbeta   Ndocc  Nsocc
   -------------------------------------------------------
     A        529     529       0       0       0       0
   -------------------------------------------------------
    Total     529     529      29      29      29       0
   -------------------------------------------------------

  ==> Integral Setup <==

  DFHelper Memory: AOs need 2.391 GiB; user supplied 22.352 GiB. Using in-core AOs.

  ==> MemDFJK: Density-Fitted J/K Matrices <==

    J tasked:                   Yes
    K tasked:                   Yes
    wK tasked:                   No
    OpenMP threads:               8
    Memory [MiB]:             22888
    Algorithm:                 Disk
    Schwarz Cutoff:           1E-12
    Mask sparsity (%):       4.0652
    Fitting Condition:        1E-10

   => Auxiliary Basis Set <=

  Basis Set: (AUG-CC-PVTZ AUX)
    Blend: AUG-CC-PVTZ-JKFIT
    Number of shells: 338
    Number of basis function: 1154
    Number of Cartesian functions: 1433
    Spherical Harmonics?: true
    Max angular momentum: 4

  Minimum eigenvalue in the overlap matrix is 2.0137610634E-06.
  Using Symmetric Orthogonalization.

  SCF Guess: Superposition of Atomic Densities via on-the-fly atomic UHF.

  ==> Iterations <==

                           Total Energy        Delta E     RMS |[F,P]|

   @DF-RHF iter SAD:  -359.95650596594373   -3.59957e+02   0.00000e+00 
   @DF-RHF iter   1:  -360.52102415236891   -5.64518e-01   1.09370e-03 DIIS
   @DF-RHF iter   2:  -360.68311171313633   -1.62088e-01   4.74111e-04 DIIS
   @DF-RHF iter   3:  -360.71143001572062   -2.83183e-02   1.02562e-04 DIIS
   @DF-RHF iter   4:  -360.71367030855487   -2.24029e-03   3.57104e-05 DIIS
   @DF-RHF iter   5:  -360.71387874919111   -2.08441e-04   9.89869e-06 DIIS
   @DF-RHF iter   6:  -360.71390322140570   -2.44722e-05   3.42027e-06 DIIS
   @DF-RHF iter   7:  -360.71390693806683   -3.71666e-06   1.27017e-06 DIIS
   @DF-RHF iter   8:  -360.71390750960666   -5.71540e-07   4.37670e-07 DIIS
   @DF-RHF iter   9:  -360.71390760575014   -9.61435e-08   1.70333e-07 DIIS
   @DF-RHF iter  10:  -360.71390761813450   -1.23844e-08   7.28561e-08 DIIS
   @DF-RHF iter  11:  -360.71390762229169   -4.15719e-09   3.53546e-08 DIIS
   @DF-RHF iter  12:  -360.71390762321323   -9.21546e-10   1.62381e-08 DIIS
   @DF-RHF iter  13:  -360.71390762338592   -1.72690e-10   4.37997e-09 DIIS
   @DF-RHF iter  14:  -360.71390762339684   -1.09139e-11   1.34960e-09 DIIS
   @DF-RHF iter  15:  -360.71390762339774   -9.09495e-13   6.09227e-10 DIIS
   @DF-RHF iter  16:  -360.71390762339723    5.11591e-13   2.32642e-10 DIIS
   @DF-RHF iter  17:  -360.71390762339814   -9.09495e-13   1.19033e-10 DIIS
   @DF-RHF iter  18:  -360.71390762339792    2.27374e-13   4.96300e-11 DIIS
  Energy and wave function converged.


  ==> Post-Iterations <==

    Orbital Energies [Eh]
    ---------------------

    Doubly Occupied:                                                      

       1A    -20.590314     2A    -15.558806     3A    -11.338806  
       4A    -11.280544     5A    -11.274765     6A    -11.260030  
       7A    -11.240530     8A    -11.233922     9A     -1.420210  
      10A     -1.258181    11A     -1.089126    12A     -1.026563  
      13A     -0.945243    14A     -0.865896    15A     -0.826233  
      16A     -0.727577    17A     -0.687386    18A     -0.668131  
      19A     -0.655513    20A     -0.618831    21A     -0.594930  
      22A     -0.559652    23A     -0.548316    24A     -0.539471  
      25A     -0.516881    26A     -0.478898    27A     -0.425178  
      28A     -0.390025    29A     -0.322557  

    Virtual:                                                              

      30A      0.028047    31A      0.033974    32A      0.035186  
      33A      0.046994    34A      0.049086    35A      0.051030  
      36A      0.064221    37A      0.086898    38A      0.089905  
      39A      0.094306    40A      0.104449    41A      0.105029  
      42A      0.112242    43A      0.115700    44A      0.117038  
      45A      0.120518    46A      0.123999    47A      0.131612  
      48A      0.134303    49A      0.134921    50A      0.141869  
      51A      0.144073    52A      0.151323    53A      0.155406  
      54A      0.156783    55A      0.161170    56A      0.166619  
      57A      0.176321    58A      0.201404    59A      0.204477  
      60A      0.219526    61A      0.232485    62A      0.240278  
      63A      0.246995    64A      0.247628    65A      0.253793  
      66A      0.267462    67A      0.274220    68A      0.276879  
      69A      0.279618    70A      0.289636    71A      0.292030  
      72A      0.298412    73A      0.306921    74A      0.308083  
      75A      0.319551    76A      0.324441    77A      0.324844  
      78A      0.330083    79A      0.333028    80A      0.334103  
      81A      0.339245    82A      0.350799    83A      0.354187  
      84A      0.366583    85A      0.367907    86A      0.385983  
      87A      0.390418    88A      0.395159    89A      0.408853  
      90A      0.411095    91A      0.422458    92A      0.423227  
      93A      0.429913    94A      0.431179    95A      0.439244  
      96A      0.441089    97A      0.442007    98A      0.451537  
      99A      0.455611   100A      0.464761   101A      0.467413  
     102A      0.467722   103A      0.477632   104A      0.483402  
     105A      0.487751   106A      0.488926   107A      0.490586  
     108A      0.504184   109A      0.513698   110A      0.516854  
     111A      0.521329   112A      0.526283   113A      0.527937  
     114A      0.538715   115A      0.543879   116A      0.545081  
     117A      0.557103   118A      0.559683   119A      0.560209  
     120A      0.569308   121A      0.582499   122A      0.589466  
     123A      0.618633   124A      0.625794   125A      0.627071  
     126A      0.636292   127A      0.642809   128A      0.653600  
     129A      0.657940   130A      0.662894   131A      0.676374  
     132A      0.684059   133A      0.696219   134A      0.715043  
     135A      0.728572   136A      0.732855   137A      0.742636  
     138A      0.742793   139A      0.751033   140A      0.763005  
     141A      0.775367   142A      0.776294   143A      0.792280  
     144A      0.805178   145A      0.813218   146A      0.818472  
     147A      0.819628   148A      0.822646   149A      0.847641  
     150A      0.850861   151A      0.853191   152A      0.858134  
     153A      0.863769   154A      0.878919   155A      0.884429  
     156A      0.887033   157A      0.899624   158A      0.901448  
     159A      0.912872   160A      0.923325   161A      0.927463  
     162A      0.927864   163A      0.937610   164A      0.948889  
     165A      0.963104   166A      0.964739   167A      0.970701  
     168A      0.983053   169A      0.998530   170A      0.999168  
     171A      1.004673   172A      1.004753   173A      1.011008  
     174A      1.022540   175A      1.025179   176A      1.034806  
     177A      1.038151   178A      1.046122   179A      1.061201  
     180A      1.062026   181A      1.072284   182A      1.074106  
     183A      1.080606   184A      1.088751   185A      1.097025  
     186A      1.108863   187A      1.109055   188A      1.118959  
     189A      1.124093   190A      1.135851   191A      1.151932  
     192A      1.155431   193A      1.159175   194A      1.168074  
     195A      1.177801   196A      1.179514   197A      1.188622  
     198A      1.189008   199A      1.195991   200A      1.207473  
     201A      1.213227   202A      1.216769   203A      1.227066  
     204A      1.228154   205A      1.236631   206A      1.241595  
     207A      1.245677   208A      1.256004   209A      1.262846  
     210A      1.268263   211A      1.286273   212A      1.297983  
     213A      1.298786   214A      1.326150   215A      1.333285  
     216A      1.344469   217A      1.351334   218A      1.386229  
     219A      1.399424   220A      1.403006   221A      1.421447  
     222A      1.423019   223A      1.446679   224A      1.455777  
     225A      1.471517   226A      1.485280   227A      1.502080  
     228A      1.505004   229A      1.510783   230A      1.522440  
     231A      1.536983   232A      1.546775   233A      1.553051  
     234A      1.559783   235A      1.584795   236A      1.592990  
     237A      1.605833   238A      1.616094   239A      1.619519  
     240A      1.626187   241A      1.658467   242A      1.662414  
     243A      1.672376   244A      1.672379   245A      1.698168  
     246A      1.699632   247A      1.706448   248A      1.722074  
     249A      1.739547   250A      1.742096   251A      1.752099  
     252A      1.764324   253A      1.769569   254A      1.789285  
     255A      1.798125   256A      1.808793   257A      1.821170  
     258A      1.837310   259A      1.840039   260A      1.842076  
     261A      1.857121   262A      1.859208   263A      1.875470  
     264A      1.876458   265A      1.902054   266A      1.923383  
     267A      1.931195   268A      1.939744   269A      1.945782  
     270A      1.977914   271A      1.984275   272A      1.996131  
     273A      1.999673   274A      2.011391   275A      2.024751  
     276A      2.032018   277A      2.037388   278A      2.043803  
     279A      2.047797   280A      2.054730   281A      2.083404  
     282A      2.107933   283A      2.110457   284A      2.123135  
     285A      2.156955   286A      2.169429   287A      2.169583  
     288A      2.181537   289A      2.200018   290A      2.210102  
     291A      2.219987   292A      2.247589   293A      2.251673  
     294A      2.253310   295A      2.270863   296A      2.287448  
     297A      2.294424   298A      2.307635   299A      2.340465  
     300A      2.361055   301A      2.370295   302A      2.402369  
     303A      2.414216   304A      2.438970   305A      2.458280  
     306A      2.477036   307A      2.506284   308A      2.509553  
     309A      2.523370   310A      2.541856   311A      2.582264  
     312A      2.587989   313A      2.630304   314A      2.633905  
     315A      2.668176   316A      2.687935   317A      2.730106  
     318A      2.744390   319A      2.749157   320A      2.779967  
     321A      2.819932   322A      2.834485   323A      2.854506  
     324A      2.898730   325A      2.906420   326A      2.932173  
     327A      2.968005   328A      2.976173   329A      3.007955  
     330A      3.021904   331A      3.055197   332A      3.060573  
     333A      3.115325   334A      3.123895   335A      3.153691  
     336A      3.170387   337A      3.234394   338A      3.251318  
     339A      3.264331   340A      3.272333   341A      3.297677  
     342A      3.319083   343A      3.341686   344A      3.346373  
     345A      3.384383   346A      3.411565   347A      3.418449  
     348A      3.434677   349A      3.438232   350A      3.453906  
     351A      3.463148   352A      3.469285   353A      3.511047  
     354A      3.526668   355A      3.530051   356A      3.534246  
     357A      3.549424   358A      3.567222   359A      3.571339  
     360A      3.605558   361A      3.608434   362A      3.611159  
     363A      3.627518   364A      3.634929   365A      3.647869  
     366A      3.682536   367A      3.683856   368A      3.704803  
     369A      3.717259   370A      3.726655   371A      3.729764  
     372A      3.774618   373A      3.785189   374A      3.795799  
     375A      3.808827   376A      3.832905   377A      3.850238  
     378A      3.860768   379A      3.878049   380A      3.880836  
     381A      3.900129   382A      3.914539   383A      3.914602  
     384A      3.928830   385A      3.941111   386A      3.955645  
     387A      3.961680   388A      3.967271   389A      4.017704  
     390A      4.017708   391A      4.045991   392A      4.055184  
     393A      4.059107   394A      4.073609   395A      4.095306  
     396A      4.117837   397A      4.122227   398A      4.136559  
     399A      4.150724   400A      4.156629   401A      4.163486  
     402A      4.179139   403A      4.189323   404A      4.219363  
     405A      4.225137   406A      4.244109   407A      4.251468  
     408A      4.260344   409A      4.262378   410A      4.286076  
     411A      4.293482   412A      4.331183   413A      4.364528  
     414A      4.365994   415A      4.390734   416A      4.399150  
     417A      4.400658   418A      4.408314   419A      4.413409  
     420A      4.448988   421A      4.491637   422A      4.507043  
     423A      4.519163   424A      4.550195   425A      4.564097  
     426A      4.584032   427A      4.592924   428A      4.612641  
     429A      4.647856   430A      4.667742   431A      4.691833  
     432A      4.714016   433A      4.737974   434A      4.774981  
     435A      4.796527   436A      4.811107   437A      4.822202  
     438A      4.825203   439A      4.838933   440A      4.863846  
     441A      4.877165   442A      4.915612   443A      4.923281  
     444A      4.939748   445A      4.945252   446A      4.971514  
     447A      4.990924   448A      4.997816   449A      5.006066  
     450A      5.041252   451A      5.058201   452A      5.069905  
     453A      5.076512   454A      5.098566   455A      5.104907  
     456A      5.124261   457A      5.154340   458A      5.161827  
     459A      5.186655   460A      5.202868   461A      5.216353  
     462A      5.249095   463A      5.312255   464A      5.320166  
     465A      5.366587   466A      5.380964   467A      5.392249  
     468A      5.444036   469A      5.461314   470A      5.475086  
     471A      5.530533   472A      5.550554   473A      5.570902  
     474A      5.590142   475A      5.618120   476A      5.646677  
     477A      5.665301   478A      5.683811   479A      5.696948  
     480A      5.750445   481A      5.814041   482A      5.840857  
     483A      5.851191   484A      5.891840   485A      5.894905  
     486A      5.976127   487A      6.022440   488A      6.065928  
     489A      6.080520   490A      6.129903   491A      6.141009  
     492A      6.191092   493A      6.193455   494A      6.237101  
     495A      6.261215   496A      6.334467   497A      6.487244  
     498A      6.501149   499A      6.565683   500A      6.665770  
     501A      6.696988   502A      6.720198   503A      6.747235  
     504A      6.785722   505A      6.820228   506A      6.922759  
     507A      6.954135   508A      7.010738   509A      7.061969  
     510A      7.118253   511A      7.161332   512A      7.163489  
     513A      7.302089   514A      7.465868   515A      7.577736  
     516A      7.612798   517A      7.817177   518A      7.858835  
     519A      7.882616   520A      8.371311   521A      8.576229  
     522A     15.609237   523A     16.028983   524A     16.339969  
     525A     18.265885   526A     18.385945   527A     19.282623  
     528A     19.559185   529A     20.231695  

    Final Occupation by Irrep:
              A 
    DOCC [    29 ]

  @DF-RHF Final Energy:  -360.71390762339792

   => Energetics <=

    Nuclear Repulsion Energy =            350.6753830064535009
    One-Electron Energy =               -1184.8935497606578338
    Two-Electron Energy =                 473.5042591308063606
    Total Energy =                       -360.7139076233979154

Computation Completed

*** tstop() called on node37.bme.utexas.edu at Wed Feb  3 01:18:44 2021
Module time:
	user time   =     229.08 seconds =       3.82 minutes
	system time =      52.27 seconds =       0.87 minutes
	total time  =         63 seconds =       1.05 minutes
Total time:
	user time   =     229.08 seconds =       3.82 minutes
	system time =      52.27 seconds =       0.87 minutes
	total time  =         63 seconds =       1.05 minutes
   => Loading Basis Set <=

    Name: (AUG-CC-PVTZ AUX)
    Role: RIFIT
    Keyword: DF_BASIS_MP2
    atoms 1    entry O          line   264 file /home/xy3866/psi4conda/share/psi4/basis/aug-cc-pvtz-ri.gbs 
    atoms 2    entry N          line   206 file /home/xy3866/psi4conda/share/psi4/basis/aug-cc-pvtz-ri.gbs 
    atoms 3-8  entry C          line   148 file /home/xy3866/psi4conda/share/psi4/basis/aug-cc-pvtz-ri.gbs 
    atoms 9-15 entry H          line    30 file /home/xy3866/psi4conda/share/psi4/basis/aug-cc-pvtz-ri.gbs 


*** tstart() called on node37.bme.utexas.edu
*** at Wed Feb  3 01:18:44 2021


  //>>>>>>>>>>>>>>>>>>>>>>>>>>>>>>>>>>>//
  //               DFMP2               //
  //<<<<<<<<<<<<<<<<<<<<<<<<<<<<<<<<<<<//

	 --------------------------------------------------------
	                          DF-MP2                         
	      2nd-Order Density-Fitted Moller-Plesset Theory     
	              RMP2 Wavefunction,   8 Threads             
	                                                         
	        Rob Parrish, Justin Turney, Andy Simmonett,      
	           Ed Hohenstein, and C. David Sherrill          
	 --------------------------------------------------------

   => Auxiliary Basis Set <=

  Basis Set: (AUG-CC-PVTZ AUX)
    Blend: AUG-CC-PVTZ-RI
    Number of shells: 322
    Number of basis function: 1170
    Number of Cartesian functions: 1473
    Spherical Harmonics?: true
    Max angular momentum: 4

	 --------------------------------------------------------
	                 NBF =   529, NAUX =  1170
	 --------------------------------------------------------
	   CLASS    FOCC     OCC    AOCC    AVIR     VIR    FVIR
	   PAIRS       0      29      29     500     500       0
	 --------------------------------------------------------

  DFHelper Memory: AOs need 2.391 GiB; user supplied 22.352 GiB. Using in-core AOs.


         ------------------------------------------------------------
                                     CPHF                           
                                  Rob Parrish                       
         ------------------------------------------------------------

  ==> Geometry <==

    Molecular point group: c1
    Full point group: C1

    Geometry (in Angstrom), charge = 0, multiplicity = 1:

       Center              X                  Y                   Z               Mass       
    ------------   -----------------  -----------------  -----------------  -----------------
         O            1.731015307136    -0.691711104570    -0.000001192340    15.994914619570
         N            0.149975307136     1.010977895430     0.000002807660    14.003074004430
         C            0.447963807136    -0.244968104570    -0.000000192340    12.000000000000
         C           -0.535119692864    -1.308779104570    -0.000003192340    12.000000000000
         C           -1.868523692864    -0.932288104570    -0.000002192340    12.000000000000
         C           -2.193910692864     0.430962895430     0.000001807660    12.000000000000
         C           -1.157087692864     1.353759895430     0.000003807660    12.000000000000
         C            2.705478307136     0.361524895430    -0.000001192340    12.000000000000
         H           -0.221144692864    -2.347619104570    -0.000005192340     1.007825032230
         H           -2.649452692864    -1.688748104570    -0.000003192340     1.007825032230
         H           -3.226944692864     0.764721895430     0.000001807660     1.007825032230
         H           -1.358926692864     2.423294895430     0.000005807660     1.007825032230
         H            2.602800307136     0.988280895430     0.888289807660     1.007825032230
         H            2.602794307136     0.988285895430    -0.888289192340     1.007825032230
         H            3.666634307136    -0.151347104570    -0.000006192340     1.007825032230

  Nuclear repulsion =  350.675383006453501
  Reference energy  = -360.713907623397915

  ==> Basis Set <==

  Basis Set: AUG-CC-PVTZ
    Blend: AUG-CC-PVTZ
    Number of shells: 175
    Number of basis function: 529
    Number of Cartesian functions: 615
    Spherical Harmonics?: true
    Max angular momentum: 3

  ==> CGRSolver (by Rob Parrish) <==

   Number of roots    =         1
   Preconditioning    =    JACOBI
   Convergence cutoff =     1E-06
   Maximum iterations =       100

  ==> CPHFRHamiltonian (by Rob Parrish) <== 

  ==> MemDFJK: Density-Fitted J/K Matrices <==

    J tasked:                   Yes
    K tasked:                   Yes
    wK tasked:                   No
    OpenMP threads:               8
    Memory [MiB]:             22888
    Algorithm:                 Disk
    Schwarz Cutoff:           1E-12
    Mask sparsity (%):       4.0652
    Fitting Condition:        1E-10

   => Auxiliary Basis Set <=

  Basis Set: (AUG-CC-PVTZ AUX)
    Blend: AUG-CC-PVTZ-JKFIT
    Number of shells: 338
    Number of basis function: 1154
    Number of Cartesian functions: 1433
    Spherical Harmonics?: true
    Max angular momentum: 4

  ==> CPHF Iterations <==

  => Iterations <=

             Iter  Converged  Remaining    Residual
  CGR           1          0          1   1.096E-01
  CGR           2          0          1   3.970E-02
  CGR           3          0          1   2.459E-02
  CGR           4          0          1   8.261E-03
  CGR           5          0          1   3.355E-03
  CGR           6          0          1   1.334E-03
  CGR           7          0          1   4.246E-04
  CGR           8          0          1   1.548E-04
  CGR           9          0          1   6.207E-05
  CGR          10          0          1   2.727E-05
  CGR          11          0          1   1.251E-05
  CGR          12          0          1   4.361E-06
  CGR          13          0          1   1.525E-06
  CGR          14          1          0   4.127E-07

    CGRSolver converged.

	-----------------------------------------------------------
	 ==================> DF-MP2 Energies <==================== 
	-----------------------------------------------------------
	 Reference Energy          =    -360.7139076233979154 [Eh]
	 Singles Energy            =      -0.0000000000000000 [Eh]
	 Same-Spin Energy          =      -0.3782703561149300 [Eh]
	 Opposite-Spin Energy      =      -1.1786567312568075 [Eh]
	 Correlation Energy        =      -1.5569270873717376 [Eh]
	 Total Energy              =    -362.2708347107696341 [Eh]
	-----------------------------------------------------------
	 ================> DF-SCS-MP2 Energies <================== 
	-----------------------------------------------------------
	 SCS Same-Spin Scale       =       0.3333333333333333 [-]
	 SCS Opposite-Spin Scale   =       1.2000000000000000 [-]
	 SCS Same-Spin Energy      =      -0.1260901187049767 [Eh]
	 SCS Opposite-Spin Energy  =      -1.4143880775081690 [Eh]
	 SCS Correlation Energy    =      -1.5404781962131455 [Eh]
	 SCS Total Energy          =    -362.2543858196110591 [Eh]
	-----------------------------------------------------------



Properties will be evaluated at  -0.000000,   0.000000,  -0.000000 [a0]

Properties computed using the MP2 density matrix

  Nuclear Dipole Moment: [e a0]
     X:     1.3351      Y:     0.9095      Z:    -0.0000

  Electronic Dipole Moment: [e a0]
     X:    -1.6208      Y:    -0.9955      Z:     0.0000

  Dipole Moment: [e a0]
     X:    -0.2857      Y:    -0.0859      Z:    -0.0000     Total:     0.2983

  Dipole Moment: [D]
     X:    -0.7261      Y:    -0.2184      Z:    -0.0000     Total:     0.7583


*** tstop() called on node37.bme.utexas.edu at Wed Feb  3 01:20:47 2021
Module time:
	user time   =     569.07 seconds =       9.48 minutes
	system time =      94.55 seconds =       1.58 minutes
	total time  =        123 seconds =       2.05 minutes
Total time:
	user time   =     798.33 seconds =      13.31 minutes
	system time =     146.83 seconds =       2.45 minutes
	total time  =        186 seconds =       3.10 minutes

    Psi4 stopped on: Wednesday, 03 February 2021 01:20AM
    Psi4 wall time for execution: 0:03:06.17

*** Psi4 exiting successfully. Buy a developer a beer!
