138231                                                                  
Freq      RMP2-FC                                                     6-31G(d)            
Number of atoms                            I               18
Info1-9                                    I   N=           9
          30          28        1002           0           0         100
           6           2           1
Charge                                     I                0
Multiplicity                               I                1
Number of electrons                        I               50
Number of alpha electrons                  I               25
Number of beta electrons                   I               25
Number of basis functions                  I              114
Number of independent functions            I              114
Number of point charges in /Mol/           I                0
Number of translation vectors              I                0
Atomic numbers                             I   N=          18
           7           7           6           6           6           6
           1           1           1           1           1           1
           1           1           1           1           1           1
Nuclear charges                            R   N=          18
  7.00000000E+00  7.00000000E+00  6.00000000E+00  6.00000000E+00  6.00000000E+00
  6.00000000E+00  1.00000000E+00  1.00000000E+00  1.00000000E+00  1.00000000E+00
  1.00000000E+00  1.00000000E+00  1.00000000E+00  1.00000000E+00  1.00000000E+00
  1.00000000E+00  1.00000000E+00  1.00000000E+00
Current cartesian coordinates              R   N=          54
  1.77722219E+00  3.03196006E+00 -4.92054315E-01 -3.88849407E+00 -1.06354184E+00
  3.83873403E-01  1.38619940E-01  1.21901286E+00  8.29244515E-01  1.63439896E+00
 -1.19991726E+00  1.35101809E+00 -2.18689132E+00  7.68209218E-01 -8.14165380E-01
  2.53292375E+00 -2.58643759E+00 -1.01553437E+00 -5.51786607E-01  1.92705881E+00
  2.66407597E+00  4.72749790E-01 -2.44422414E+00  2.53051093E+00  3.27797326E+00
 -6.94621988E-01  2.51383412E+00 -3.21824314E+00  2.55825316E+00 -9.87412814E-01
 -1.55820483E+00  2.53341299E-01 -2.72778765E+00  3.76870296E+00 -4.16488023E+00
 -5.09264402E-01  9.49602647E-01 -3.36522234E+00 -2.09424005E+00  3.57239866E+00
 -1.30484164E+00 -2.25335493E+00  3.28750483E+00  3.45203004E+00  6.30675409E-01
  8.27083336E-01  4.69283341E+00 -7.34202315E-01 -3.18036449E+00 -2.83862011E+00
  1.51518113E-01 -5.58282120E+00 -1.05523724E+00 -5.30463148E-01
Force Field                                I                0
Int Atom Types                             I   N=          18
           0           0           0           0           0           0
           0           0           0           0           0           0
           0           0           0           0           0           0
MM charges                                 R   N=          18
  0.00000000E+00  0.00000000E+00  0.00000000E+00  0.00000000E+00  0.00000000E+00
  0.00000000E+00  0.00000000E+00  0.00000000E+00  0.00000000E+00  0.00000000E+00
  0.00000000E+00  0.00000000E+00  0.00000000E+00  0.00000000E+00  0.00000000E+00
  0.00000000E+00  0.00000000E+00  0.00000000E+00
Integer atomic weights                     I   N=          18
          14          14          12          12          12          12
           1           1           1           1           1           1
           1           1           1           1           1           1
Real atomic weights                        R   N=          18
  1.40030740E+01  1.40030740E+01  1.20000000E+01  1.20000000E+01  1.20000000E+01
  1.20000000E+01  1.00782504E+00  1.00782504E+00  1.00782504E+00  1.00782504E+00
  1.00782504E+00  1.00782504E+00  1.00782504E+00  1.00782504E+00  1.00782504E+00
  1.00782504E+00  1.00782504E+00  1.00782504E+00
Atom fragment info                         I   N=          18
           0           0           0           0           0           0
           0           0           0           0           0           0
           0           0           0           0           0           0
Atom residue num                           I   N=          18
           0           0           0           0           0           0
           0           0           0           0           0           0
           0           0           0           0           0           0
Nuclear spins                              I   N=          18
           2           2           0           0           0           0
           1           1           1           1           1           1
           1           1           1           1           1           1
Nuclear ZEff                               R   N=          18
 -4.55000000E+00 -4.55000000E+00 -3.60000000E+00 -3.60000000E+00 -3.60000000E+00
 -3.60000000E+00 -1.00000000E+00 -1.00000000E+00 -1.00000000E+00 -1.00000000E+00
 -1.00000000E+00 -1.00000000E+00 -1.00000000E+00 -1.00000000E+00 -1.00000000E+00
 -1.00000000E+00 -1.00000000E+00 -1.00000000E+00
Nuclear QMom                               R   N=          18
  2.04400000E+00  2.04400000E+00  0.00000000E+00  0.00000000E+00  0.00000000E+00
  0.00000000E+00  0.00000000E+00  0.00000000E+00  0.00000000E+00  0.00000000E+00
  0.00000000E+00  0.00000000E+00  0.00000000E+00  0.00000000E+00  0.00000000E+00
  0.00000000E+00  0.00000000E+00  0.00000000E+00
Nuclear GFac                               R   N=          18
  4.03761000E-01  4.03761000E-01  0.00000000E+00  0.00000000E+00  0.00000000E+00
  0.00000000E+00  2.79284600E+00  2.79284600E+00  2.79284600E+00  2.79284600E+00
  2.79284600E+00  2.79284600E+00  2.79284600E+00  2.79284600E+00  2.79284600E+00
  2.79284600E+00  2.79284600E+00  2.79284600E+00
MicOpt                                     I   N=          18
          -1          -1          -1          -1          -1          -1
          -1          -1          -1          -1          -1          -1
          -1          -1          -1          -1          -1          -1
Number of contracted shells                I               48
Number of primitive shells                 I              114
Pure/Cartesian d shells                    I                1
Pure/Cartesian f shells                    I                0
Highest angular momentum                   I                2
Largest degree of contraction              I                6
Shell types                                I   N=          48
           0          -1          -1           2           0          -1
          -1           2           0          -1          -1           2
           0          -1          -1           2           0          -1
          -1           2           0          -1          -1           2
           0           0           0           0           0           0
           0           0           0           0           0           0
           0           0           0           0           0           0
           0           0           0           0           0           0
Number of primitives per shell             I   N=          48
           6           3           1           1           6           3
           1           1           6           3           1           1
           6           3           1           1           6           3
           1           1           6           3           1           1
           3           1           3           1           3           1
           3           1           3           1           3           1
           3           1           3           1           3           1
           3           1           3           1           3           1
Shell to atom map                          I   N=          48
           1           1           1           1           2           2
           2           2           3           3           3           3
           4           4           4           4           5           5
           5           5           6           6           6           6
           7           7           8           8           9           9
          10          10          11          11          12          12
          13          13          14          14          15          15
          16          16          17          17          18          18
Primitive exponents                        R   N=         114
  4.17351146E+03  6.27457911E+02  1.42902093E+02  4.02343293E+01  1.28202129E+01
  4.39043701E+00  1.16263619E+01  2.71627981E+00  7.72218397E-01  2.12031498E-01
  8.00000000E-01  4.17351146E+03  6.27457911E+02  1.42902093E+02  4.02343293E+01
  1.28202129E+01  4.39043701E+00  1.16263619E+01  2.71627981E+00  7.72218397E-01
  2.12031498E-01  8.00000000E-01  3.04752488E+03  4.57369518E+02  1.03948685E+02
  2.92101553E+01  9.28666296E+00  3.16392696E+00  7.86827235E+00  1.88128854E+00
  5.44249258E-01  1.68714478E-01  8.00000000E-01  3.04752488E+03  4.57369518E+02
  1.03948685E+02  2.92101553E+01  9.28666296E+00  3.16392696E+00  7.86827235E+00
  1.88128854E+00  5.44249258E-01  1.68714478E-01  8.00000000E-01  3.04752488E+03
  4.57369518E+02  1.03948685E+02  2.92101553E+01  9.28666296E+00  3.16392696E+00
  7.86827235E+00  1.88128854E+00  5.44249258E-01  1.68714478E-01  8.00000000E-01
  3.04752488E+03  4.57369518E+02  1.03948685E+02  2.92101553E+01  9.28666296E+00
  3.16392696E+00  7.86827235E+00  1.88128854E+00  5.44249258E-01  1.68714478E-01
  8.00000000E-01  1.87311370E+01  2.82539436E+00  6.40121692E-01  1.61277759E-01
  1.87311370E+01  2.82539436E+00  6.40121692E-01  1.61277759E-01  1.87311370E+01
  2.82539436E+00  6.40121692E-01  1.61277759E-01  1.87311370E+01  2.82539436E+00
  6.40121692E-01  1.61277759E-01  1.87311370E+01  2.82539436E+00  6.40121692E-01
  1.61277759E-01  1.87311370E+01  2.82539436E+00  6.40121692E-01  1.61277759E-01
  1.87311370E+01  2.82539436E+00  6.40121692E-01  1.61277759E-01  1.87311370E+01
  2.82539436E+00  6.40121692E-01  1.61277759E-01  1.87311370E+01  2.82539436E+00
  6.40121692E-01  1.61277759E-01  1.87311370E+01  2.82539436E+00  6.40121692E-01
  1.61277759E-01  1.87311370E+01  2.82539436E+00  6.40121692E-01  1.61277759E-01
  1.87311370E+01  2.82539436E+00  6.40121692E-01  1.61277759E-01
Contraction coefficients                   R   N=         114
  1.83477216E-03  1.39946270E-02  6.85865518E-02  2.32240873E-01  4.69069948E-01
  3.60455199E-01 -1.14961182E-01 -1.69117479E-01  1.14585195E+00  1.00000000E+00
  1.00000000E+00  1.83477216E-03  1.39946270E-02  6.85865518E-02  2.32240873E-01
  4.69069948E-01  3.60455199E-01 -1.14961182E-01 -1.69117479E-01  1.14585195E+00
  1.00000000E+00  1.00000000E+00  1.83473713E-03  1.40373228E-02  6.88426223E-02
  2.32184443E-01  4.67941348E-01  3.62311985E-01 -1.19332420E-01 -1.60854152E-01
  1.14345644E+00  1.00000000E+00  1.00000000E+00  1.83473713E-03  1.40373228E-02
  6.88426223E-02  2.32184443E-01  4.67941348E-01  3.62311985E-01 -1.19332420E-01
 -1.60854152E-01  1.14345644E+00  1.00000000E+00  1.00000000E+00  1.83473713E-03
  1.40373228E-02  6.88426223E-02  2.32184443E-01  4.67941348E-01  3.62311985E-01
 -1.19332420E-01 -1.60854152E-01  1.14345644E+00  1.00000000E+00  1.00000000E+00
  1.83473713E-03  1.40373228E-02  6.88426223E-02  2.32184443E-01  4.67941348E-01
  3.62311985E-01 -1.19332420E-01 -1.60854152E-01  1.14345644E+00  1.00000000E+00
  1.00000000E+00  3.34946043E-02  2.34726953E-01  8.13757326E-01  1.00000000E+00
  3.34946043E-02  2.34726953E-01  8.13757326E-01  1.00000000E+00  3.34946043E-02
  2.34726953E-01  8.13757326E-01  1.00000000E+00  3.34946043E-02  2.34726953E-01
  8.13757326E-01  1.00000000E+00  3.34946043E-02  2.34726953E-01  8.13757326E-01
  1.00000000E+00  3.34946043E-02  2.34726953E-01  8.13757326E-01  1.00000000E+00
  3.34946043E-02  2.34726953E-01  8.13757326E-01  1.00000000E+00  3.34946043E-02
  2.34726953E-01  8.13757326E-01  1.00000000E+00  3.34946043E-02  2.34726953E-01
  8.13757326E-01  1.00000000E+00  3.34946043E-02  2.34726953E-01  8.13757326E-01
  1.00000000E+00  3.34946043E-02  2.34726953E-01  8.13757326E-01  1.00000000E+00
  3.34946043E-02  2.34726953E-01  8.13757326E-01  1.00000000E+00
P(S=P) Contraction coefficients            R   N=         114
  0.00000000E+00  0.00000000E+00  0.00000000E+00  0.00000000E+00  0.00000000E+00
  0.00000000E+00  6.75797439E-02  3.23907296E-01  7.40895140E-01  1.00000000E+00
  0.00000000E+00  0.00000000E+00  0.00000000E+00  0.00000000E+00  0.00000000E+00
  0.00000000E+00  0.00000000E+00  6.75797439E-02  3.23907296E-01  7.40895140E-01
  1.00000000E+00  0.00000000E+00  0.00000000E+00  0.00000000E+00  0.00000000E+00
  0.00000000E+00  0.00000000E+00  0.00000000E+00  6.89990666E-02  3.16423961E-01
  7.44308291E-01  1.00000000E+00  0.00000000E+00  0.00000000E+00  0.00000000E+00
  0.00000000E+00  0.00000000E+00  0.00000000E+00  0.00000000E+00  6.89990666E-02
  3.16423961E-01  7.44308291E-01  1.00000000E+00  0.00000000E+00  0.00000000E+00
  0.00000000E+00  0.00000000E+00  0.00000000E+00  0.00000000E+00  0.00000000E+00
  6.89990666E-02  3.16423961E-01  7.44308291E-01  1.00000000E+00  0.00000000E+00
  0.00000000E+00  0.00000000E+00  0.00000000E+00  0.00000000E+00  0.00000000E+00
  0.00000000E+00  6.89990666E-02  3.16423961E-01  7.44308291E-01  1.00000000E+00
  0.00000000E+00  0.00000000E+00  0.00000000E+00  0.00000000E+00  0.00000000E+00
  0.00000000E+00  0.00000000E+00  0.00000000E+00  0.00000000E+00  0.00000000E+00
  0.00000000E+00  0.00000000E+00  0.00000000E+00  0.00000000E+00  0.00000000E+00
  0.00000000E+00  0.00000000E+00  0.00000000E+00  0.00000000E+00  0.00000000E+00
  0.00000000E+00  0.00000000E+00  0.00000000E+00  0.00000000E+00  0.00000000E+00
  0.00000000E+00  0.00000000E+00  0.00000000E+00  0.00000000E+00  0.00000000E+00
  0.00000000E+00  0.00000000E+00  0.00000000E+00  0.00000000E+00  0.00000000E+00
  0.00000000E+00  0.00000000E+00  0.00000000E+00  0.00000000E+00  0.00000000E+00
  0.00000000E+00  0.00000000E+00  0.00000000E+00  0.00000000E+00  0.00000000E+00
  0.00000000E+00  0.00000000E+00  0.00000000E+00  0.00000000E+00
Coordinates of each shell                  R   N=         144
  1.77722219E+00  3.03196006E+00 -4.92054315E-01  1.77722219E+00  3.03196006E+00
 -4.92054315E-01  1.77722219E+00  3.03196006E+00 -4.92054315E-01  1.77722219E+00
  3.03196006E+00 -4.92054315E-01 -3.88849407E+00 -1.06354184E+00  3.83873403E-01
 -3.88849407E+00 -1.06354184E+00  3.83873403E-01 -3.88849407E+00 -1.06354184E+00
  3.83873403E-01 -3.88849407E+00 -1.06354184E+00  3.83873403E-01  1.38619940E-01
  1.21901286E+00  8.29244515E-01  1.38619940E-01  1.21901286E+00  8.29244515E-01
  1.38619940E-01  1.21901286E+00  8.29244515E-01  1.38619940E-01  1.21901286E+00
  8.29244515E-01  1.63439896E+00 -1.19991726E+00  1.35101809E+00  1.63439896E+00
 -1.19991726E+00  1.35101809E+00  1.63439896E+00 -1.19991726E+00  1.35101809E+00
  1.63439896E+00 -1.19991726E+00  1.35101809E+00 -2.18689132E+00  7.68209218E-01
 -8.14165380E-01 -2.18689132E+00  7.68209218E-01 -8.14165380E-01 -2.18689132E+00
  7.68209218E-01 -8.14165380E-01 -2.18689132E+00  7.68209218E-01 -8.14165380E-01
  2.53292375E+00 -2.58643759E+00 -1.01553437E+00  2.53292375E+00 -2.58643759E+00
 -1.01553437E+00  2.53292375E+00 -2.58643759E+00 -1.01553437E+00  2.53292375E+00
 -2.58643759E+00 -1.01553437E+00 -5.51786607E-01  1.92705881E+00  2.66407597E+00
 -5.51786607E-01  1.92705881E+00  2.66407597E+00  4.72749790E-01 -2.44422414E+00
  2.53051093E+00  4.72749790E-01 -2.44422414E+00  2.53051093E+00  3.27797326E+00
 -6.94621988E-01  2.51383412E+00  3.27797326E+00 -6.94621988E-01  2.51383412E+00
 -3.21824314E+00  2.55825316E+00 -9.87412814E-01 -3.21824314E+00  2.55825316E+00
 -9.87412814E-01 -1.55820483E+00  2.53341299E-01 -2.72778765E+00 -1.55820483E+00
  2.53341299E-01 -2.72778765E+00  3.76870296E+00 -4.16488023E+00 -5.09264402E-01
  3.76870296E+00 -4.16488023E+00 -5.09264402E-01  9.49602647E-01 -3.36522234E+00
 -2.09424005E+00  9.49602647E-01 -3.36522234E+00 -2.09424005E+00  3.57239866E+00
 -1.30484164E+00 -2.25335493E+00  3.57239866E+00 -1.30484164E+00 -2.25335493E+00
  3.28750483E+00  3.45203004E+00  6.30675409E-01  3.28750483E+00  3.45203004E+00
  6.30675409E-01  8.27083336E-01  4.69283341E+00 -7.34202315E-01  8.27083336E-01
  4.69283341E+00 -7.34202315E-01 -3.18036449E+00 -2.83862011E+00  1.51518113E-01
 -3.18036449E+00 -2.83862011E+00  1.51518113E-01 -5.58282120E+00 -1.05523724E+00
 -5.30463148E-01 -5.58282120E+00 -1.05523724E+00 -5.30463148E-01
Constraint Structure                       R   N=          54
  1.77722219E+00  3.03196006E+00 -4.92054315E-01 -3.88849407E+00 -1.06354184E+00
  3.83873403E-01  1.38619940E-01  1.21901286E+00  8.29244515E-01  1.63439896E+00
 -1.19991726E+00  1.35101809E+00 -2.18689132E+00  7.68209218E-01 -8.14165380E-01
  2.53292375E+00 -2.58643759E+00 -1.01553437E+00 -5.51786607E-01  1.92705881E+00
  2.66407597E+00  4.72749790E-01 -2.44422414E+00  2.53051093E+00  3.27797326E+00
 -6.94621988E-01  2.51383412E+00 -3.21824314E+00  2.55825316E+00 -9.87412814E-01
 -1.55820483E+00  2.53341299E-01 -2.72778765E+00  3.76870296E+00 -4.16488023E+00
 -5.09264402E-01  9.49602647E-01 -3.36522234E+00 -2.09424005E+00  3.57239866E+00
 -1.30484164E+00 -2.25335493E+00  3.28750483E+00  3.45203004E+00  6.30675409E-01
  8.27083336E-01  4.69283341E+00 -7.34202315E-01 -3.18036449E+00 -2.83862011E+00
  1.51518113E-01 -5.58282120E+00 -1.05523724E+00 -5.30463148E-01
Num ILSW                                   I              100
ILSW                                       I   N=         100
           0           1           0           0           2           0
           0           0           0           0           0          -1
           0           0           0           0           0           0
           0           0           0           0           1           0
           1           0           0           0           0           0
           0           0      100000           0          -1           0
           0           0           0           0           0           0
           0           0           0           1           1           0
           0           0           1           0           0           0
           0           0           4          40           0           0
           0           0           0           0           0           0
           0           0           0           0           0           0
           0           0           0           0           0           0
           0           0           0           0           0           0
           0           0           0           0           0           0
           0           0           0           0           0           0
           0           0           0           0
Num RLSW                                   I               40
RLSW                                       R   N=          40
  1.00000000E+00  1.00000000E+00  1.00000000E+00  1.00000000E+00  1.00000000E+00
  0.00000000E+00  0.00000000E+00  1.00000000E+00  0.00000000E+00  0.00000000E+00
  0.00000000E+00  0.00000000E+00  1.00000000E+00  0.00000000E+00  0.00000000E+00
  0.00000000E+00  0.00000000E+00  1.00000000E+00  0.00000000E+00  0.00000000E+00
  0.00000000E+00  0.00000000E+00  1.00000000E+00  0.00000000E+00  0.00000000E+00
  0.00000000E+00  0.00000000E+00  1.00000000E+00  0.00000000E+00  0.00000000E+00
  0.00000000E+00  0.00000000E+00  0.00000000E+00  0.00000000E+00  0.00000000E+00
  0.00000000E+00  0.00000000E+00  0.00000000E+00  1.00000000E+00  1.00000000E+00
MxBond                                     I                4
NBond                                      I   N=          18
           3           3           4           4           4           4
           1           1           1           1           1           1
           1           1           1           1           1           1
IBond                                      I   N=          72
           3          15          16           0           5          17
          18           0           1           4           5           7
           3           6           8           9           2           3
          10          11           4          12          13          14
           3           0           0           0           4           0
           0           0           4           0           0           0
           5           0           0           0           5           0
           0           0           6           0           0           0
           6           0           0           0           6           0
           0           0           1           0           0           0
           1           0           0           0           2           0
           0           0           2           0           0           0
RBond                                      R   N=          72
  1.00000000E+00  1.00000000E+00  1.00000000E+00  0.00000000E+00  1.00000000E+00
  1.00000000E+00  1.00000000E+00  0.00000000E+00  1.00000000E+00  1.00000000E+00
  1.00000000E+00  1.00000000E+00  1.00000000E+00  1.00000000E+00  1.00000000E+00
  1.00000000E+00  1.00000000E+00  1.00000000E+00  1.00000000E+00  1.00000000E+00
  1.00000000E+00  1.00000000E+00  1.00000000E+00  1.00000000E+00  1.00000000E+00
  0.00000000E+00  0.00000000E+00  0.00000000E+00  1.00000000E+00  0.00000000E+00
  0.00000000E+00  0.00000000E+00  1.00000000E+00  0.00000000E+00  0.00000000E+00
  0.00000000E+00  1.00000000E+00  0.00000000E+00  0.00000000E+00  0.00000000E+00
  1.00000000E+00  0.00000000E+00  0.00000000E+00  0.00000000E+00  1.00000000E+00
  0.00000000E+00  0.00000000E+00  0.00000000E+00  1.00000000E+00  0.00000000E+00
  0.00000000E+00  0.00000000E+00  1.00000000E+00  0.00000000E+00  0.00000000E+00
  0.00000000E+00  1.00000000E+00  0.00000000E+00  0.00000000E+00  0.00000000E+00
  1.00000000E+00  0.00000000E+00  0.00000000E+00  0.00000000E+00  1.00000000E+00
  0.00000000E+00  0.00000000E+00  0.00000000E+00  1.00000000E+00  0.00000000E+00
  0.00000000E+00  0.00000000E+00
Virial Ratio                               R      2.001743888353048E+00
SCF Energy                                 R     -2.673339890417617E+02
MP2 Energy                                 R     -2.681912560826876E+02
Total Energy                               R     -2.681912560826876E+02
Post-SCF wavefunction norm                 R      1.596520928866944E+00
RMS Force                                  R      2.512701781447118E-07
RMS Density                                R      9.285917615540020E-10
External E-field                           R   N=          35
  0.00000000E+00  0.00000000E+00  0.00000000E+00  0.00000000E+00  0.00000000E+00
  0.00000000E+00  0.00000000E+00  0.00000000E+00  0.00000000E+00  0.00000000E+00
  0.00000000E+00  0.00000000E+00  0.00000000E+00  0.00000000E+00  0.00000000E+00
  0.00000000E+00  0.00000000E+00  0.00000000E+00  0.00000000E+00  0.00000000E+00
  0.00000000E+00  0.00000000E+00  0.00000000E+00  0.00000000E+00  0.00000000E+00
  0.00000000E+00  0.00000000E+00  0.00000000E+00  0.00000000E+00  0.00000000E+00
  0.00000000E+00  0.00000000E+00  0.00000000E+00  0.00000000E+00  0.00000000E+00
IOpCl                                      I                0
IROHF                                      I                0
Alpha Orbital Energies                     R   N=         114
 -1.55417209E+01 -1.55392475E+01 -1.12437019E+01 -1.12410546E+01 -1.12138330E+01
 -1.12052422E+01 -1.19384282E+00 -1.15571943E+00 -1.02769888E+00 -9.36588814E-01
 -8.61596248E-01 -7.48065341E-01 -6.69108847E-01 -6.59760148E-01 -6.40099897E-01
 -5.87978359E-01 -5.77626568E-01 -5.50891012E-01 -5.28662415E-01 -5.12720775E-01
 -4.89307630E-01 -4.66171477E-01 -4.51310164E-01 -3.88231371E-01 -3.83258167E-01
  2.11953176E-01  2.28062031E-01  2.71259671E-01  2.76806344E-01  2.95048600E-01
  2.99807465E-01  3.27345003E-01  3.34819342E-01  3.48266547E-01  3.65680416E-01
  3.68850327E-01  3.85215368E-01  3.99955824E-01  4.23124687E-01  4.51324561E-01
  4.62445099E-01  4.89753314E-01  7.18767189E-01  7.39747017E-01  7.67933802E-01
  7.82303158E-01  8.12372972E-01  8.25631648E-01  8.94995132E-01  9.15725333E-01
  9.52274051E-01  9.79543874E-01  9.99855243E-01  1.01414490E+00  1.01667005E+00
  1.05874915E+00  1.09631494E+00  1.11373095E+00  1.15076792E+00  1.16193134E+00
  1.17368236E+00  1.18724210E+00  1.19462881E+00  1.20553472E+00  1.21980752E+00
  1.23113666E+00  1.24484058E+00  1.25209428E+00  1.25710476E+00  1.29154560E+00
  1.32073989E+00  1.33622007E+00  1.38343798E+00  1.53330355E+00  1.55340973E+00
  1.69393379E+00  1.72652433E+00  1.74604592E+00  1.85413251E+00  1.92909030E+00
  1.93834961E+00  1.97537975E+00  2.00389071E+00  2.09487508E+00  2.18123488E+00
  2.23491702E+00  2.24664409E+00  2.28443133E+00  2.29167104E+00  2.34600656E+00
  2.39296463E+00  2.43635320E+00  2.43890885E+00  2.53039813E+00  2.58717526E+00
  2.59342466E+00  2.66351889E+00  2.67567830E+00  2.71412005E+00  2.72602541E+00
  2.78027892E+00  2.85985052E+00  2.88674532E+00  2.93417018E+00  2.97251940E+00
  3.09424799E+00  3.15236494E+00  3.20024367E+00  4.18819588E+00  4.27592135E+00
  4.59665231E+00  4.76235457E+00  4.87661022E+00  5.00678789E+00
Alpha MO coefficients                      R   N=       12996
  4.06875663E-04 -2.12237860E-05  1.30005253E-05  1.17278700E-05  8.96661252E-06
  1.72822591E-04 -1.24023325E-04 -1.29423790E-04 -1.83060767E-05 -1.96671056E-05
 -6.07478782E-06 -3.41781009E-05  1.16890252E-05 -7.09706328E-06 -1.13505774E-05
  9.95048099E-01  2.48642474E-02  1.83393808E-04 -3.24771984E-04 -1.45698187E-03
 -2.81791009E-03 -3.90944281E-04  2.43341966E-05  1.24525216E-03 -3.38773286E-03
 -3.35499789E-03 -3.17746212E-03 -3.06332101E-05  1.55194737E-05  9.30202285E-05
 -1.14972537E-06  2.53252686E-05  4.71838100E-05  5.18135208E-06  1.38373143E-05
 -2.80314701E-04 -5.35163015E-05  1.16891339E-04  1.18446351E-04 -4.21652917E-05
 -2.84426425E-05 -1.61020395E-05 -1.86706969E-05  3.43785730E-06 -8.64682230E-06
 -1.55029693E-06 -4.33067118E-06 -7.43583298E-07  9.32164595E-06 -2.92333799E-05
  2.50368039E-04  2.71897436E-05  1.37303365E-05  8.46181819E-05 -1.46962752E-05
  5.95624539E-06 -1.11359893E-06  1.62173308E-06 -4.89322895E-06 -6.92665534E-06
 -2.39125214E-05  1.59153376E-04 -1.55318268E-04 -1.34179179E-04  1.05634949E-04
  1.73713209E-03 -3.49194662E-04 -7.19162296E-04  7.08155406E-05 -1.34907588E-04
 -1.34268847E-04 -1.09080005E-04 -2.48722358E-05  3.06319197E-05  3.85037698E-05
  4.20065814E-06  6.55162813E-06 -1.85723560E-05  1.39879512E-05  6.32805443E-06
  1.02128182E-05  3.62785077E-05 -5.39329979E-05 -4.99414803E-05  5.32507823E-06
  2.22836870E-05  7.22235952E-06 -1.61637853E-06  1.64723270E-06 -7.61346743E-06
  7.38299937E-06 -9.93731652E-05  1.80803055E-06 -1.31454259E-04 -1.47283291E-05
 -6.99793390E-05 -4.94042314E-05 -6.83636632E-05 -1.52122053E-04 -1.92770283E-04
 -9.30631325E-06 -2.02501226E-05  2.49355320E-05 -1.10503003E-04 -3.29014490E-06
  7.64643693E-06  1.41204168E-05  3.91038989E-05 -2.32777442E-05  5.80343859E-05
  2.90785251E-04  6.81288217E-04  3.13646718E-04  5.84346856E-04  9.95048780E-01
  2.48775305E-02 -4.28265527E-04  5.91970445E-04  1.29311932E-03 -2.92568137E-03
  6.03598883E-04 -1.66081664E-04 -1.19208691E-03 -3.37688665E-03 -3.33846360E-03
 -3.22159370E-03 -5.48987659E-05 -2.40811323E-05  1.27342182E-04 -4.27476087E-04
 -4.21449536E-05 -1.23438194E-05 -6.30397419E-06 -8.94122105E-06  1.81017426E-04
  1.31787663E-04  7.24942826E-05  4.39710375E-05 -1.44943982E-05 -1.03939821E-05
 -3.44137721E-05  1.62811387E-05 -2.97729307E-06  4.67650000E-07 -3.07960147E-05
  1.08424004E-04  1.28567559E-04  1.44741087E-04 -1.12476105E-04  1.94460484E-03
  4.08469355E-04  7.91008960E-04 -2.11610562E-04 -1.26015883E-04 -1.29379921E-04
 -1.22978849E-04 -1.97447358E-05  2.21929986E-05  2.42580809E-05 -1.26201018E-05
 -4.04732874E-05  5.53383741E-06 -4.79911032E-05  1.78814909E-05  1.84284349E-04
 -6.40336079E-05 -1.44470852E-04 -6.59578224E-05 -5.10549901E-06 -5.92030071E-05
 -3.31607423E-05 -1.37326417E-06 -9.96480782E-06 -8.03223305E-07 -2.61845557E-06
  8.05336572E-06 -3.36033462E-05 -1.48201743E-05 -7.32597153E-06 -2.22534288E-04
 -9.04297088E-05 -5.86479436E-05 -1.58665471E-04 -3.39570261E-05 -2.81727940E-05
 -1.49430643E-05 -1.33331031E-05 -6.77630494E-07 -1.71598433E-05  7.11596186E-06
  3.13450579E-05 -1.57651845E-05 -5.73657313E-06  1.24980910E-06 -1.86257933E-04
  1.35908900E-04 -2.23195156E-05 -6.69856133E-05  1.08713010E-05 -1.29210902E-07
  1.25840507E-05  3.64168903E-06  9.11159105E-07 -4.75864278E-06 -1.48390873E-04
 -1.92779458E-04 -1.79329951E-05  1.50688490E-06  1.58884703E-05 -6.87940499E-05
  2.61823008E-05 -8.63085135E-05  2.83688640E-07 -8.31707189E-05  2.49805209E-06
 -1.96442794E-05  1.56557549E-05  7.33346827E-05  1.08562559E-05 -8.61467776E-05
  3.08217654E-04  6.14800882E-04  3.14477892E-04  6.18233832E-04 -7.96234347E-06
 -1.45324568E-05  9.80264151E-06  3.58983724E-05 -2.32891817E-04 -5.56576511E-05
 -2.24295190E-05 -3.19268360E-05  1.99530075E-05  4.19710510E-03 -9.45876636E-04
 -1.21803642E-03  5.96865396E-04 -3.36348554E-04 -3.00698104E-04 -2.77748308E-04
 -2.10922424E-04  2.02796910E-04  2.27974031E-04 -4.50210990E-05 -1.34578323E-04
 -8.43999047E-05 -3.40795476E-05 -7.90499456E-06  5.10516337E-04  2.96865888E-04
  9.06881027E-05 -1.84360876E-05 -3.60154476E-05 -1.07516574E-04 -7.38916299E-05
  2.07485918E-05  9.02645796E-05 -1.66451957E-06  9.89040976E-01  2.82650093E-02
  2.69459441E-04  7.21041595E-05 -4.11024985E-04 -1.96279012E-02 -5.35686607E-04
  1.16455517E-03  1.87736880E-03 -1.28662080E-03 -1.27704673E-03 -1.22607905E-03
 -8.22852339E-06 -6.89582852E-05  2.22658037E-05  9.84239773E-03  2.61029608E-04
 -1.15705289E-04  1.78000205E-04 -2.10943400E-05  4.68019199E-03 -1.16052248E-03
  1.86513774E-03 -6.05611845E-04 -1.99753821E-04 -3.73217265E-04 -1.33182722E-04
  1.35744717E-04  4.63407859E-06 -2.31993864E-06  1.17291317E-01  3.27606257E-03