
    -----------------------------------------------------------------------
          Psi4: An Open-Source Ab Initio Electronic Structure Package
                               Psi4 1.3.2 release

                         Git: Rev {HEAD} ecbda83 


    R. M. Parrish, L. A. Burns, D. G. A. Smith, A. C. Simmonett,
    A. E. DePrince III, E. G. Hohenstein, U. Bozkaya, A. Yu. Sokolov,
    R. Di Remigio, R. M. Richard, J. F. Gonthier, A. M. James,
    H. R. McAlexander, A. Kumar, M. Saitow, X. Wang, B. P. Pritchard,
    P. Verma, H. F. Schaefer III, K. Patkowski, R. A. King, E. F. Valeev,
    F. A. Evangelista, J. M. Turney, T. D. Crawford, and C. D. Sherrill,
    J. Chem. Theory Comput. 13(7) pp 3185--3197 (2017).
    (doi: 10.1021/acs.jctc.7b00174)


                         Additional Contributions by
    P. Kraus, H. Kruse, M. H. Lechner, M. C. Schieber, R. A. Shaw,
    A. Alenaizan, R. Galvelis, Z. L. Glick, S. Lehtola, and J. P. Misiewicz

    -----------------------------------------------------------------------


    Psi4 started on: Tuesday, 02 February 2021 12:36PM

    Process ID: 18423
    Host:       node37.bme.utexas.edu
    PSIDATADIR: /home/xy3866/psi4conda/share/psi4
    Memory:     500.0 MiB
    Threads:    8
    
  ==> Input File <==

--------------------------------------------------------------------------
#psi4
#
memory 32 gb

molecule  {
0 1
  O       -1.4890520    -1.1699510    -0.0104640
  O        1.7837190     1.3890130    -0.0214620
  N        0.7526660    -0.6498780    -0.0214550
  C       -0.5338342    -0.1638767    -0.0060789
  C       -1.1407710     1.0618160     0.0104930
  C        1.8652240     0.1617960    -0.0202730
  C       -2.5496710     0.8075520     0.0175600
  C       -2.7164660    -0.5449080     0.0047820
  C        3.1811850    -0.5832010     0.0301470
  H        0.8582920    -1.6573840    -0.0213170
  H       -0.6226040     2.0066250     0.0153600
  H       -3.3400310     1.5456830     0.0304840
  H       -3.5700130    -1.2048780     0.0045220
  H        3.4438230    -0.7947010     1.0711420
  H        3.9529480     0.0571610    -0.3968850
  H        3.1464960    -1.5284770    -0.5179270
units angstrom
no_reorient  #important for SAPT in psi4, default
symmetry c1  #important for SAPT in psi4, default
}

set PROPERTIES_ORIGIN ["COM"]
properties('MP2/aug-cc-pvtz', properties = ['dipole'])
--------------------------------------------------------------------------

  Memory set to  29.802 GiB by Python driver.
    SCF Algorithm Type (re)set to DF.

*** tstart() called on node37.bme.utexas.edu
*** at Tue Feb  2 12:36:20 2021

   => Loading Basis Set <=

    Name: AUG-CC-PVTZ
    Role: ORBITAL
    Keyword: BASIS
    atoms 1-2   entry O          line   327 file /home/xy3866/psi4conda/share/psi4/basis/aug-cc-pvtz.gbs 
    atoms 3     entry N          line   281 file /home/xy3866/psi4conda/share/psi4/basis/aug-cc-pvtz.gbs 
    atoms 4-9   entry C          line   235 file /home/xy3866/psi4conda/share/psi4/basis/aug-cc-pvtz.gbs 
    atoms 10-16 entry H          line    36 file /home/xy3866/psi4conda/share/psi4/basis/aug-cc-pvtz.gbs 


         ---------------------------------------------------------
                                   SCF
               by Justin Turney, Rob Parrish, Andy Simmonett
                          and Daniel G. A. Smith
                              RHF Reference
                        8 Threads,  30517 MiB Core
         ---------------------------------------------------------

  ==> Geometry <==

    Molecular point group: c1
    Full point group: C1

    Geometry (in Angstrom), charge = 0, multiplicity = 1:

       Center              X                  Y                   Z               Mass       
    ------------   -----------------  -----------------  -----------------  -----------------
         O           -1.460422905196    -1.183429257696    -0.008986972977    15.994914619570
         O            1.812348094804     1.375534742304    -0.019984972977    15.994914619570
         N            0.781295094804    -0.663356257696    -0.019977972977    14.003074004430
         C           -0.505205105196    -0.177354957696    -0.004601872977    12.000000000000
         C           -1.112141905196     1.048337742304     0.011970027023    12.000000000000
         C            1.893853094804     0.148317742304    -0.018795972977    12.000000000000
         C           -2.521041905196     0.794073742304     0.019037027023    12.000000000000
         C           -2.687836905196    -0.558386257696     0.006259027023    12.000000000000
         C            3.209814094804    -0.596679257696     0.031624027023    12.000000000000
         H            0.886921094804    -1.670862257696    -0.019839972977     1.007825032230
         H           -0.593974905196     1.993146742304     0.016837027023     1.007825032230
         H           -3.311401905196     1.532204742304     0.031961027023     1.007825032230
         H           -3.541383905196    -1.218356257696     0.005999027023     1.007825032230
         H            3.472452094804    -0.808179257696     1.072619027023     1.007825032230
         H            3.981577094804     0.043682742304    -0.395407972977     1.007825032230
         H            3.175125094804    -1.541955257696    -0.516449972977     1.007825032230

  Running in c1 symmetry.

  Rotational constants: A =      0.16317  B =      0.03320  C =      0.02773 [cm^-1]
  Rotational constants: A =   4891.67731  B =    995.27987  C =    831.43095 [MHz]
  Nuclear repulsion =  427.766529355984858

  Charge       = 0
  Multiplicity = 1
  Electrons    = 66
  Nalpha       = 33
  Nbeta        = 33

  ==> Algorithm <==

  SCF Algorithm Type is DF.
  DIIS enabled.
  MOM disabled.
  Fractional occupation disabled.
  Guess Type is SAD.
  Energy threshold   = 1.00e-10
  Density threshold  = 1.00e-10
  Integral threshold = 0.00e+00

  ==> Primary Basis <==

  Basis Set: AUG-CC-PVTZ
    Blend: AUG-CC-PVTZ
    Number of shells: 189
    Number of basis function: 575
    Number of Cartesian functions: 670
    Spherical Harmonics?: true
    Max angular momentum: 3

   => Loading Basis Set <=

    Name: (AUG-CC-PVTZ AUX)
    Role: JKFIT
    Keyword: DF_BASIS_SCF
    atoms 1-2   entry O          line   286 file /home/xy3866/psi4conda/share/psi4/basis/aug-cc-pvtz-jkfit.gbs 
    atoms 3     entry N          line   224 file /home/xy3866/psi4conda/share/psi4/basis/aug-cc-pvtz-jkfit.gbs 
    atoms 4-9   entry C          line   162 file /home/xy3866/psi4conda/share/psi4/basis/aug-cc-pvtz-jkfit.gbs 
    atoms 10-16 entry H          line    70 file /home/xy3866/psi4conda/share/psi4/basis/aug-cc-pvtz-jkfit.gbs 

  ==> Pre-Iterations <==

   -------------------------------------------------------
    Irrep   Nso     Nmo     Nalpha   Nbeta   Ndocc  Nsocc
   -------------------------------------------------------
     A        575     575       0       0       0       0
   -------------------------------------------------------
    Total     575     575      33      33      33       0
   -------------------------------------------------------

  ==> Integral Setup <==

  DFHelper Memory: AOs need 2.990 GiB; user supplied 22.352 GiB. Using in-core AOs.

  ==> MemDFJK: Density-Fitted J/K Matrices <==

    J tasked:                   Yes
    K tasked:                   Yes
    wK tasked:                   No
    OpenMP threads:               8
    Memory [MiB]:             22888
    Algorithm:                 Disk
    Schwarz Cutoff:           1E-12
    Mask sparsity (%):       6.6656
    Fitting Condition:        1E-10

   => Auxiliary Basis Set <=

  Basis Set: (AUG-CC-PVTZ AUX)
    Blend: AUG-CC-PVTZ-JKFIT
    Number of shells: 368
    Number of basis function: 1258
    Number of Cartesian functions: 1564
    Spherical Harmonics?: true
    Max angular momentum: 4

  Minimum eigenvalue in the overlap matrix is 2.4151709758E-06.
  Using Symmetric Orthogonalization.

  SCF Guess: Superposition of Atomic Densities via on-the-fly atomic UHF.

  ==> Iterations <==

                           Total Energy        Delta E     RMS |[F,P]|

   @DF-RHF iter SAD:  -434.80398783581199   -4.34804e+02   0.00000e+00 
   @DF-RHF iter   1:  -435.32270784623847   -5.18720e-01   1.27621e-03 DIIS
   @DF-RHF iter   2:  -435.52663972141750   -2.03932e-01   7.50888e-04 DIIS
   @DF-RHF iter   3:  -435.59677903470185   -7.01393e-02   1.69699e-04 DIIS
   @DF-RHF iter   4:  -435.60180463231376   -5.02560e-03   6.41641e-05 DIIS
   @DF-RHF iter   5:  -435.60265990513591   -8.55273e-04   1.18524e-05 DIIS
   @DF-RHF iter   6:  -435.60271731827510   -5.74131e-05   5.50663e-06 DIIS
   @DF-RHF iter   7:  -435.60272932941302   -1.20111e-05   2.17632e-06 DIIS
   @DF-RHF iter   8:  -435.60273176303809   -2.43363e-06   7.69454e-07 DIIS
   @DF-RHF iter   9:  -435.60273210544892   -3.42411e-07   2.62708e-07 DIIS
   @DF-RHF iter  10:  -435.60273213939763   -3.39487e-08   1.08899e-07 DIIS
   @DF-RHF iter  11:  -435.60273214492781   -5.53018e-09   4.03730e-08 DIIS
   @DF-RHF iter  12:  -435.60273214577501   -8.47194e-10   2.18504e-08 DIIS
   @DF-RHF iter  13:  -435.60273214598686   -2.11855e-10   7.04338e-09 DIIS
   @DF-RHF iter  14:  -435.60273214602989   -4.30305e-11   2.76771e-09 DIIS
   @DF-RHF iter  15:  -435.60273214603257   -2.67164e-12   1.10063e-09 DIIS
   @DF-RHF iter  16:  -435.60273214603421   -1.64846e-12   3.84511e-10 DIIS
   @DF-RHF iter  17:  -435.60273214603478   -5.68434e-13   1.55378e-10 DIIS
   @DF-RHF iter  18:  -435.60273214603217    2.61480e-12   5.08251e-11 DIIS
  Energy and wave function converged.


  ==> Post-Iterations <==

    Orbital Energies [Eh]
    ---------------------

    Doubly Occupied:                                                      

       1A    -20.625541     2A    -20.536509     3A    -15.621499  
       4A    -11.372411     5A    -11.338338     6A    -11.284595  
       7A    -11.251627     8A    -11.232823     9A    -11.221050  
      10A     -1.456829    11A     -1.391630    12A     -1.261459  
      13A     -1.081878    14A     -1.037758    15A     -0.976724  
      16A     -0.852053    17A     -0.806927    18A     -0.770133  
      19A     -0.740853    20A     -0.685569    21A     -0.656800  
      22A     -0.649893    23A     -0.620443    24A     -0.603616  
      25A     -0.574919    26A     -0.570670    27A     -0.560932  
      28A     -0.548285    29A     -0.545382    30A     -0.458565  
      31A     -0.441199    32A     -0.397293    33A     -0.292435  

    Virtual:                                                              

      34A      0.022396    35A      0.031065    36A      0.038140  
      37A      0.042055    38A      0.046328    39A      0.052245  
      40A      0.066232    41A      0.081338    42A      0.088759  
      43A      0.095687    44A      0.100433    45A      0.104580  
      46A      0.106245    47A      0.114537    48A      0.116290  
      49A      0.121165    50A      0.123667    51A      0.132196  
      52A      0.135282    53A      0.140045    54A      0.142475  
      55A      0.144070    56A      0.150502    57A      0.153751  
      58A      0.159743    59A      0.165484    60A      0.172467  
      61A      0.184119    62A      0.190651    63A      0.204131  
      64A      0.205801    65A      0.214231    66A      0.219464  
      67A      0.223647    68A      0.235597    69A      0.240575  
      70A      0.248013    71A      0.250126    72A      0.255868  
      73A      0.269270    74A      0.270494    75A      0.275233  
      76A      0.281906    77A      0.287074    78A      0.295475  
      79A      0.297043    80A      0.306792    81A      0.309958  
      82A      0.313652    83A      0.316160    84A      0.326736  
      85A      0.329889    86A      0.340522    87A      0.342983  
      88A      0.347675    89A      0.354273    90A      0.356979  
      91A      0.360450    92A      0.366812    93A      0.374617  
      94A      0.377438    95A      0.383642    96A      0.394085  
      97A      0.401629    98A      0.405291    99A      0.411929  
     100A      0.414993   101A      0.419751   102A      0.431917  
     103A      0.435581   104A      0.444219   105A      0.445957  
     106A      0.453468   107A      0.454950   108A      0.463549  
     109A      0.467008   110A      0.469998   111A      0.473224  
     112A      0.480209   113A      0.481409   114A      0.489105  
     115A      0.497178   116A      0.499192   117A      0.508797  
     118A      0.515265   119A      0.520513   120A      0.523983  
     121A      0.527879   122A      0.534416   123A      0.539277  
     124A      0.550628   125A      0.554130   126A      0.561750  
     127A      0.565977   128A      0.572624   129A      0.583367  
     130A      0.588887   131A      0.598299   132A      0.601352  
     133A      0.605326   134A      0.616323   135A      0.625499  
     136A      0.632044   137A      0.637287   138A      0.653170  
     139A      0.665075   140A      0.666593   141A      0.680932  
     142A      0.705191   143A      0.708082   144A      0.713784  
     145A      0.719488   146A      0.732052   147A      0.735874  
     148A      0.745539   149A      0.752092   150A      0.759386  
     151A      0.768482   152A      0.781776   153A      0.793642  
     154A      0.796414   155A      0.803138   156A      0.810822  
     157A      0.817430   158A      0.823861   159A      0.826085  
     160A      0.840395   161A      0.845251   162A      0.857957  
     163A      0.861158   164A      0.867773   165A      0.873899  
     166A      0.879303   167A      0.887655   168A      0.898417  
     169A      0.905456   170A      0.916840   171A      0.918409  
     172A      0.929670   173A      0.935223   174A      0.941053  
     175A      0.948242   176A      0.955333   177A      0.957232  
     178A      0.968689   179A      0.971530   180A      0.983686  
     181A      0.989069   182A      0.997509   183A      0.999730  
     184A      1.008963   185A      1.016742   186A      1.020756  
     187A      1.032750   188A      1.038287   189A      1.041079  
     190A      1.044123   191A      1.050892   192A      1.053012  
     193A      1.060506   194A      1.066402   195A      1.078949  
     196A      1.082668   197A      1.095766   198A      1.099136  
     199A      1.105560   200A      1.110998   201A      1.123538  
     202A      1.125629   203A      1.130724   204A      1.137830  
     205A      1.141255   206A      1.151832   207A      1.164610  
     208A      1.171983   209A      1.176493   210A      1.179437  
     211A      1.188757   212A      1.197505   213A      1.205143  
     214A      1.208649   215A      1.217628   216A      1.222829  
     217A      1.236128   218A      1.237903   219A      1.250355  
     220A      1.266023   221A      1.271415   222A      1.277425  
     223A      1.279099   224A      1.287302   225A      1.298520  
     226A      1.304117   227A      1.315924   228A      1.339528  
     229A      1.345408   230A      1.362253   231A      1.373024  
     232A      1.386558   233A      1.388301   234A      1.400119  
     235A      1.406768   236A      1.413474   237A      1.424153  
     238A      1.427165   239A      1.433467   240A      1.451169  
     241A      1.455880   242A      1.468623   243A      1.479413  
     244A      1.488941   245A      1.499376   246A      1.508258  
     247A      1.520312   248A      1.532261   249A      1.548483  
     250A      1.555573   251A      1.566984   252A      1.575428  
     253A      1.595222   254A      1.603390   255A      1.615364  
     256A      1.621963   257A      1.627382   258A      1.642700  
     259A      1.660018   260A      1.662061   261A      1.663656  
     262A      1.677060   263A      1.693308   264A      1.705232  
     265A      1.714391   266A      1.721703   267A      1.732182  
     268A      1.742182   269A      1.747116   270A      1.764197  
     271A      1.766030   272A      1.781434   273A      1.783647  
     274A      1.808572   275A      1.816702   276A      1.828536  
     277A      1.843646   278A      1.860927   279A      1.874053  
     280A      1.879916   281A      1.885446   282A      1.894023  
     283A      1.911829   284A      1.921964   285A      1.928009  
     286A      1.928538   287A      1.943759   288A      1.952589  
     289A      1.958346   290A      1.973161   291A      1.987963  
     292A      1.998517   293A      2.003250   294A      2.012988  
     295A      2.017778   296A      2.021901   297A      2.036597  
     298A      2.049817   299A      2.064670   300A      2.080867  
     301A      2.105926   302A      2.107621   303A      2.131502  
     304A      2.138482   305A      2.148559   306A      2.167730  
     307A      2.182484   308A      2.199717   309A      2.206998  
     310A      2.239686   311A      2.252466   312A      2.259819  
     313A      2.282248   314A      2.287523   315A      2.305633  
     316A      2.325874   317A      2.334717   318A      2.361017  
     319A      2.375808   320A      2.394511   321A      2.413909  
     322A      2.424696   323A      2.441717   324A      2.456180  
     325A      2.461534   326A      2.472467   327A      2.487020  
     328A      2.492050   329A      2.507513   330A      2.530864  
     331A      2.565429   332A      2.581078   333A      2.588548  
     334A      2.596189   335A      2.618405   336A      2.623725  
     337A      2.644735   338A      2.654885   339A      2.677176  
     340A      2.683710   341A      2.741247   342A      2.760384  
     343A      2.773938   344A      2.777032   345A      2.790264  
     346A      2.834785   347A      2.840124   348A      2.868366  
     349A      2.884615   350A      2.924467   351A      2.938103  
     352A      2.949695   353A      2.973040   354A      2.980514  
     355A      3.004517   356A      3.009133   357A      3.038484  
     358A      3.077367   359A      3.086703   360A      3.114951  
     361A      3.132533   362A      3.142082   363A      3.171716  
     364A      3.193945   365A      3.226102   366A      3.233876  
     367A      3.250178   368A      3.262628   369A      3.271054  
     370A      3.304606   371A      3.327925   372A      3.339200  
     373A      3.384538   374A      3.401307   375A      3.413413  
     376A      3.419696   377A      3.438976   378A      3.448173  
     379A      3.459749   380A      3.475378   381A      3.490053  
     382A      3.504909   383A      3.531883   384A      3.550080  
     385A      3.557455   386A      3.583295   387A      3.601604  
     388A      3.611316   389A      3.620888   390A      3.632769  
     391A      3.639045   392A      3.649897   393A      3.655503  
     394A      3.660004   395A      3.670663   396A      3.688541  
     397A      3.697786   398A      3.715583   399A      3.740284  
     400A      3.762028   401A      3.771323   402A      3.779746  
     403A      3.804593   404A      3.806457   405A      3.836427  
     406A      3.849841   407A      3.869622   408A      3.882678  
     409A      3.888531   410A      3.895248   411A      3.904876  
     412A      3.921024   413A      3.934821   414A      3.948170  
     415A      3.960620   416A      3.972518   417A      3.995343  
     418A      4.008381   419A      4.015947   420A      4.038223  
     421A      4.046051   422A      4.058876   423A      4.076210  
     424A      4.086377   425A      4.093222   426A      4.107280  
     427A      4.146249   428A      4.151203   429A      4.162151  
     430A      4.185047   431A      4.189223   432A      4.203259  
     433A      4.205309   434A      4.217226   435A      4.250153  
     436A      4.266443   437A      4.270255   438A      4.286354  
     439A      4.296213   440A      4.309179   441A      4.318142  
     442A      4.320109   443A      4.351340   444A      4.372044  
     445A      4.376718   446A      4.392264   447A      4.416805  
     448A      4.432098   449A      4.442081   450A      4.455461  
     451A      4.466426   452A      4.472375   453A      4.494271  
     454A      4.506260   455A      4.522483   456A      4.550038  
     457A      4.573149   458A      4.600536   459A      4.618161  
     460A      4.642792   461A      4.650062   462A      4.669301  
     463A      4.716900   464A      4.742527   465A      4.760612  
     466A      4.772049   467A      4.807286   468A      4.816202  
     469A      4.822305   470A      4.823268   471A      4.852394  
     472A      4.859153   473A      4.883795   474A      4.898663  
     475A      4.914925   476A      4.958202   477A      4.971263  
     478A      4.978812   479A      4.998250   480A      5.013883  
     481A      5.039581   482A      5.064018   483A      5.079453  
     484A      5.091385   485A      5.096391   486A      5.120601  
     487A      5.141039   488A      5.165266   489A      5.180072  
     490A      5.209446   491A      5.219059   492A      5.239502  
     493A      5.263177   494A      5.264759   495A      5.306173  
     496A      5.326746   497A      5.374467   498A      5.381595  
     499A      5.420330   500A      5.462051   501A      5.481093  
     502A      5.487768   503A      5.527555   504A      5.591891  
     505A      5.600958   506A      5.629651   507A      5.646424  
     508A      5.677545   509A      5.705699   510A      5.731388  
     511A      5.748251   512A      5.765898   513A      5.786171  
     514A      5.850836   515A      5.888721   516A      5.916116  
     517A      5.945810   518A      5.973539   519A      6.046102  
     520A      6.092266   521A      6.109216   522A      6.128882  
     523A      6.146892   524A      6.158112   525A      6.245770  
     526A      6.278642   527A      6.317800   528A      6.364796  
     529A      6.447396   530A      6.482080   531A      6.526908  
     532A      6.618734   533A      6.676471   534A      6.703504  
     535A      6.717637   536A      6.733683   537A      6.735897  
     538A      6.822349   539A      6.860502   540A      6.867556  
     541A      6.894210   542A      6.936503   543A      7.004372  
     544A      7.019594   545A      7.025928   546A      7.066785  
     547A      7.080192   548A      7.167363   549A      7.214356  
     550A      7.383171   551A      7.411030   552A      7.425819  
     553A      7.452306   554A      7.495463   555A      7.570720  
     556A      7.641793   557A      7.688543   558A      7.713757  
     559A      7.717051   560A      7.733069   561A      7.856108  
     562A      7.912497   563A      7.961389   564A      8.057243  
     565A      8.377112   566A      8.507324   567A     14.826071  
     568A     15.544095   569A     16.786491   570A     17.239690  
     571A     17.864709   572A     18.425150   573A     18.710762  
     574A     19.560076   575A     20.376011  

    Final Occupation by Irrep:
              A 
    DOCC [    33 ]

  @DF-RHF Final Energy:  -435.60273214603217

   => Energetics <=

    Nuclear Repulsion Energy =            427.7665293559848578
    One-Electron Energy =               -1441.8052509323854338
    Two-Electron Energy =                 578.4359894303684086
    Total Energy =                       -435.6027321460321673

Computation Completed

*** tstop() called on node37.bme.utexas.edu at Tue Feb  2 12:37:42 2021
Module time:
	user time   =     275.58 seconds =       4.59 minutes
	system time =      58.02 seconds =       0.97 minutes
	total time  =         82 seconds =       1.37 minutes
Total time:
	user time   =     275.58 seconds =       4.59 minutes
	system time =      58.02 seconds =       0.97 minutes
	total time  =         82 seconds =       1.37 minutes
   => Loading Basis Set <=

    Name: (AUG-CC-PVTZ AUX)
    Role: RIFIT
    Keyword: DF_BASIS_MP2
    atoms 1-2   entry O          line   264 file /home/xy3866/psi4conda/share/psi4/basis/aug-cc-pvtz-ri.gbs 
    atoms 3     entry N          line   206 file /home/xy3866/psi4conda/share/psi4/basis/aug-cc-pvtz-ri.gbs 
    atoms 4-9   entry C          line   148 file /home/xy3866/psi4conda/share/psi4/basis/aug-cc-pvtz-ri.gbs 
    atoms 10-16 entry H          line    30 file /home/xy3866/psi4conda/share/psi4/basis/aug-cc-pvtz-ri.gbs 


*** tstart() called on node37.bme.utexas.edu
*** at Tue Feb  2 12:37:42 2021


  //>>>>>>>>>>>>>>>>>>>>>>>>>>>>>>>>>>>//
  //               DFMP2               //
  //<<<<<<<<<<<<<<<<<<<<<<<<<<<<<<<<<<<//

	 --------------------------------------------------------
	                          DF-MP2                         
	      2nd-Order Density-Fitted Moller-Plesset Theory     
	              RMP2 Wavefunction,   8 Threads             
	                                                         
	        Rob Parrish, Justin Turney, Andy Simmonett,      
	           Ed Hohenstein, and C. David Sherrill          
	 --------------------------------------------------------

   => Auxiliary Basis Set <=

  Basis Set: (AUG-CC-PVTZ AUX)
    Blend: AUG-CC-PVTZ-RI
    Number of shells: 350
    Number of basis function: 1276
    Number of Cartesian functions: 1609
    Spherical Harmonics?: true
    Max angular momentum: 4

	 --------------------------------------------------------
	                 NBF =   575, NAUX =  1276
	 --------------------------------------------------------
	   CLASS    FOCC     OCC    AOCC    AVIR     VIR    FVIR
	   PAIRS       0      33      33     542     542       0
	 --------------------------------------------------------

  DFHelper Memory: AOs need 2.990 GiB; user supplied 22.352 GiB. Using in-core AOs.


         ------------------------------------------------------------
                                     CPHF                           
                                  Rob Parrish                       
         ------------------------------------------------------------

  ==> Geometry <==

    Molecular point group: c1
    Full point group: C1

    Geometry (in Angstrom), charge = 0, multiplicity = 1:

       Center              X                  Y                   Z               Mass       
    ------------   -----------------  -----------------  -----------------  -----------------
         O           -1.460422905196    -1.183429257696    -0.008986972977    15.994914619570
         O            1.812348094804     1.375534742304    -0.019984972977    15.994914619570
         N            0.781295094804    -0.663356257696    -0.019977972977    14.003074004430
         C           -0.505205105196    -0.177354957696    -0.004601872977    12.000000000000
         C           -1.112141905196     1.048337742304     0.011970027023    12.000000000000
         C            1.893853094804     0.148317742304    -0.018795972977    12.000000000000
         C           -2.521041905196     0.794073742304     0.019037027023    12.000000000000
         C           -2.687836905196    -0.558386257696     0.006259027023    12.000000000000
         C            3.209814094804    -0.596679257696     0.031624027023    12.000000000000
         H            0.886921094804    -1.670862257696    -0.019839972977     1.007825032230
         H           -0.593974905196     1.993146742304     0.016837027023     1.007825032230
         H           -3.311401905196     1.532204742304     0.031961027023     1.007825032230
         H           -3.541383905196    -1.218356257696     0.005999027023     1.007825032230
         H            3.472452094804    -0.808179257696     1.072619027023     1.007825032230
         H            3.981577094804     0.043682742304    -0.395407972977     1.007825032230
         H            3.175125094804    -1.541955257696    -0.516449972977     1.007825032230

  Nuclear repulsion =  427.766529355984858
  Reference energy  = -435.602732146032167

  ==> Basis Set <==

  Basis Set: AUG-CC-PVTZ
    Blend: AUG-CC-PVTZ
    Number of shells: 189
    Number of basis function: 575
    Number of Cartesian functions: 670
    Spherical Harmonics?: true
    Max angular momentum: 3

  ==> CGRSolver (by Rob Parrish) <==

   Number of roots    =         1
   Preconditioning    =    JACOBI
   Convergence cutoff =     1E-06
   Maximum iterations =       100

  ==> CPHFRHamiltonian (by Rob Parrish) <== 

  ==> MemDFJK: Density-Fitted J/K Matrices <==

    J tasked:                   Yes
    K tasked:                   Yes
    wK tasked:                   No
    OpenMP threads:               8
    Memory [MiB]:             22888
    Algorithm:                 Disk
    Schwarz Cutoff:           1E-12
    Mask sparsity (%):       6.6656
    Fitting Condition:        1E-10

   => Auxiliary Basis Set <=

  Basis Set: (AUG-CC-PVTZ AUX)
    Blend: AUG-CC-PVTZ-JKFIT
    Number of shells: 368
    Number of basis function: 1258
    Number of Cartesian functions: 1564
    Spherical Harmonics?: true
    Max angular momentum: 4

  ==> CPHF Iterations <==

  => Iterations <=

             Iter  Converged  Remaining    Residual
  CGR           1          0          1   1.263E-01
  CGR           2          0          1   4.200E-02
  CGR           3          0          1   1.897E-02
  CGR           4          0          1   5.917E-03
  CGR           5          0          1   2.561E-03
  CGR           6          0          1   1.160E-03
  CGR           7          0          1   4.609E-04
  CGR           8          0          1   1.959E-04
  CGR           9          0          1   6.269E-05
  CGR          10          0          1   2.066E-05
  CGR          11          0          1   8.069E-06
  CGR          12          0          1   2.252E-06
  CGR          13          1          0   8.233E-07

    CGRSolver converged.

	-----------------------------------------------------------
	 ==================> DF-MP2 Energies <==================== 
	-----------------------------------------------------------
	 Reference Energy          =    -435.6027321460321673 [Eh]
	 Singles Energy            =      -0.0000000000000000 [Eh]
	 Same-Spin Energy          =      -0.4471441235519845 [Eh]
	 Opposite-Spin Energy      =      -1.3697303176429634 [Eh]
	 Correlation Energy        =      -1.8168744411949480 [Eh]
	 Total Energy              =    -437.4196065872271220 [Eh]
	-----------------------------------------------------------
	 ================> DF-SCS-MP2 Energies <================== 
	-----------------------------------------------------------
	 SCS Same-Spin Scale       =       0.3333333333333333 [-]
	 SCS Opposite-Spin Scale   =       1.2000000000000000 [-]
	 SCS Same-Spin Energy      =      -0.1490480411839948 [Eh]
	 SCS Opposite-Spin Energy  =      -1.6436763811715560 [Eh]
	 SCS Correlation Energy    =      -1.7927244223555507 [Eh]
	 SCS Total Energy          =    -437.3954565683877149 [Eh]
	-----------------------------------------------------------



Properties will be evaluated at  -0.000000,   0.000000,   0.000000 [a0]

Properties computed using the MP2 density matrix

  Nuclear Dipole Moment: [e a0]
     X:     3.8143      Y:    -1.5630      Z:     0.1834

  Electronic Dipole Moment: [e a0]
     X:    -3.7074      Y:     0.4084      Z:    -0.1529

  Dipole Moment: [e a0]
     X:     0.1068      Y:    -1.1546      Z:     0.0305     Total:     1.1600

  Dipole Moment: [D]
     X:     0.2716      Y:    -2.9348      Z:     0.0776     Total:     2.9484


*** tstop() called on node37.bme.utexas.edu at Tue Feb  2 12:40:08 2021
Module time:
	user time   =     710.21 seconds =      11.84 minutes
	system time =      77.68 seconds =       1.29 minutes
	total time  =        146 seconds =       2.43 minutes
Total time:
	user time   =     985.96 seconds =      16.43 minutes
	system time =     135.70 seconds =       2.26 minutes
	total time  =        228 seconds =       3.80 minutes

    Psi4 stopped on: Tuesday, 02 February 2021 12:40PM
    Psi4 wall time for execution: 0:03:48.42

*** Psi4 exiting successfully. Buy a developer a beer!
