
    -----------------------------------------------------------------------
          Psi4: An Open-Source Ab Initio Electronic Structure Package
                               Psi4 1.3.2 release

                         Git: Rev {HEAD} ecbda83 


    R. M. Parrish, L. A. Burns, D. G. A. Smith, A. C. Simmonett,
    A. E. DePrince III, E. G. Hohenstein, U. Bozkaya, A. Yu. Sokolov,
    R. Di Remigio, R. M. Richard, J. F. Gonthier, A. M. James,
    H. R. McAlexander, A. Kumar, M. Saitow, X. Wang, B. P. Pritchard,
    P. Verma, H. F. Schaefer III, K. Patkowski, R. A. King, E. F. Valeev,
    F. A. Evangelista, J. M. Turney, T. D. Crawford, and C. D. Sherrill,
    J. Chem. Theory Comput. 13(7) pp 3185--3197 (2017).
    (doi: 10.1021/acs.jctc.7b00174)


                         Additional Contributions by
    P. Kraus, H. Kruse, M. H. Lechner, M. C. Schieber, R. A. Shaw,
    A. Alenaizan, R. Galvelis, Z. L. Glick, S. Lehtola, and J. P. Misiewicz

    -----------------------------------------------------------------------


    Psi4 started on: Tuesday, 02 February 2021 01:52PM

    Process ID: 36700
    Host:       node37.bme.utexas.edu
    PSIDATADIR: /home/xy3866/psi4conda/share/psi4
    Memory:     500.0 MiB
    Threads:    8
    
  ==> Input File <==

--------------------------------------------------------------------------
#psi4
#
memory 32 gb

molecule  {
0 1
  O       -1.4890520    -1.1699510    -0.0104640
  O        1.7837190     1.3890130    -0.0214620
  N        0.7526660    -0.6498780    -0.0214550
  C       -0.5553190    -0.1742840    -0.0060060
  C       -1.1407710     1.0618160     0.0104930
  C        1.9439723     0.0410555    -0.0201851
  C       -2.5496710     0.8075520     0.0175600
  C       -2.7164660    -0.5449080     0.0047820
  C        3.1811850    -0.5832010     0.0301470
  H        0.8582920    -1.6573840    -0.0213170
  H       -0.6226040     2.0066250     0.0153600
  H       -3.3400310     1.5456830     0.0304840
  H       -3.5700130    -1.2048780     0.0045220
  H        3.4438230    -0.7947010     1.0711420
  H        3.9529480     0.0571610    -0.3968850
  H        3.1464960    -1.5284770    -0.5179270
units angstrom
no_reorient  #important for SAPT in psi4, default
symmetry c1  #important for SAPT in psi4, default
}

set PROPERTIES_ORIGIN ["COM"]
properties('MP2/aug-cc-pvtz', properties = ['dipole'])
--------------------------------------------------------------------------

  Memory set to  29.802 GiB by Python driver.
    SCF Algorithm Type (re)set to DF.

*** tstart() called on node37.bme.utexas.edu
*** at Tue Feb  2 13:52:39 2021

   => Loading Basis Set <=

    Name: AUG-CC-PVTZ
    Role: ORBITAL
    Keyword: BASIS
    atoms 1-2   entry O          line   327 file /home/xy3866/psi4conda/share/psi4/basis/aug-cc-pvtz.gbs 
    atoms 3     entry N          line   281 file /home/xy3866/psi4conda/share/psi4/basis/aug-cc-pvtz.gbs 
    atoms 4-9   entry C          line   235 file /home/xy3866/psi4conda/share/psi4/basis/aug-cc-pvtz.gbs 
    atoms 10-16 entry H          line    36 file /home/xy3866/psi4conda/share/psi4/basis/aug-cc-pvtz.gbs 


         ---------------------------------------------------------
                                   SCF
               by Justin Turney, Rob Parrish, Andy Simmonett
                          and Daniel G. A. Smith
                              RHF Reference
                        8 Threads,  30517 MiB Core
         ---------------------------------------------------------

  ==> Geometry <==

    Molecular point group: c1
    Full point group: C1

    Geometry (in Angstrom), charge = 0, multiplicity = 1:

       Center              X                  Y                   Z               Mass       
    ------------   -----------------  -----------------  -----------------  -----------------
         O           -1.465918105174    -1.170843869312    -0.009002403891    15.994914619570
         O            1.806852894826     1.388120130688    -0.020000403891    15.994914619570
         N            0.775799894826    -0.650770869312    -0.019993403891    14.003074004430
         C           -0.532185105174    -0.175176869312    -0.004544403891    12.000000000000
         C           -1.117637105174     1.060923130688     0.011954596109    12.000000000000
         C            1.967106194826     0.040162630688    -0.018723503891    12.000000000000
         C           -2.526537105174     0.806659130688     0.019021596109    12.000000000000
         C           -2.693332105174    -0.545800869312     0.006243596109    12.000000000000
         C            3.204318894826    -0.584093869312     0.031608596109    12.000000000000
         H            0.881425894826    -1.658276869312    -0.019855403891     1.007825032230
         H           -0.599470105174     2.005732130688     0.016821596109     1.007825032230
         H           -3.316897105174     1.544790130688     0.031945596109     1.007825032230
         H           -3.546879105174    -1.205770869312     0.005983596109     1.007825032230
         H            3.466956894826    -0.795593869312     1.072603596109     1.007825032230
         H            3.976081894826     0.056268130688    -0.395423403891     1.007825032230
         H            3.169629894826    -1.529369869312    -0.516465403891     1.007825032230

  Running in c1 symmetry.

  Rotational constants: A =      0.16334  B =      0.03295  C =      0.02757 [cm^-1]
  Rotational constants: A =   4896.74475  B =    987.89901  C =    826.41821 [MHz]
  Nuclear repulsion =  426.652215021704365

  Charge       = 0
  Multiplicity = 1
  Electrons    = 66
  Nalpha       = 33
  Nbeta        = 33

  ==> Algorithm <==

  SCF Algorithm Type is DF.
  DIIS enabled.
  MOM disabled.
  Fractional occupation disabled.
  Guess Type is SAD.
  Energy threshold   = 1.00e-10
  Density threshold  = 1.00e-10
  Integral threshold = 0.00e+00

  ==> Primary Basis <==

  Basis Set: AUG-CC-PVTZ
    Blend: AUG-CC-PVTZ
    Number of shells: 189
    Number of basis function: 575
    Number of Cartesian functions: 670
    Spherical Harmonics?: true
    Max angular momentum: 3

   => Loading Basis Set <=

    Name: (AUG-CC-PVTZ AUX)
    Role: JKFIT
    Keyword: DF_BASIS_SCF
    atoms 1-2   entry O          line   286 file /home/xy3866/psi4conda/share/psi4/basis/aug-cc-pvtz-jkfit.gbs 
    atoms 3     entry N          line   224 file /home/xy3866/psi4conda/share/psi4/basis/aug-cc-pvtz-jkfit.gbs 
    atoms 4-9   entry C          line   162 file /home/xy3866/psi4conda/share/psi4/basis/aug-cc-pvtz-jkfit.gbs 
    atoms 10-16 entry H          line    70 file /home/xy3866/psi4conda/share/psi4/basis/aug-cc-pvtz-jkfit.gbs 

  ==> Pre-Iterations <==

   -------------------------------------------------------
    Irrep   Nso     Nmo     Nalpha   Nbeta   Ndocc  Nsocc
   -------------------------------------------------------
     A        575     575       0       0       0       0
   -------------------------------------------------------
    Total     575     575      33      33      33       0
   -------------------------------------------------------

  ==> Integral Setup <==

  DFHelper Memory: AOs need 2.989 GiB; user supplied 22.352 GiB. Using in-core AOs.

  ==> MemDFJK: Density-Fitted J/K Matrices <==

    J tasked:                   Yes
    K tasked:                   Yes
    wK tasked:                   No
    OpenMP threads:               8
    Memory [MiB]:             22888
    Algorithm:                 Disk
    Schwarz Cutoff:           1E-12
    Mask sparsity (%):       6.7097
    Fitting Condition:        1E-10

   => Auxiliary Basis Set <=

  Basis Set: (AUG-CC-PVTZ AUX)
    Blend: AUG-CC-PVTZ-JKFIT
    Number of shells: 368
    Number of basis function: 1258
    Number of Cartesian functions: 1564
    Spherical Harmonics?: true
    Max angular momentum: 4

  Minimum eigenvalue in the overlap matrix is 2.4083716647E-06.
  Using Symmetric Orthogonalization.

  SCF Guess: Superposition of Atomic Densities via on-the-fly atomic UHF.

  ==> Iterations <==

                           Total Energy        Delta E     RMS |[F,P]|

   @DF-RHF iter SAD:  -434.74864621399462   -4.34749e+02   0.00000e+00 
   @DF-RHF iter   1:  -435.25735591655575   -5.08710e-01   1.32277e-03 DIIS
   @DF-RHF iter   2:  -435.45712014086098   -1.99764e-01   8.85428e-04 DIIS
   @DF-RHF iter   3:  -435.55392153711506   -9.68014e-02   2.04960e-04 DIIS
   @DF-RHF iter   4:  -435.56062412302498   -6.70259e-03   6.62867e-05 DIIS
   @DF-RHF iter   5:  -435.56163223528097   -1.00811e-03   1.39588e-05 DIIS
   @DF-RHF iter   6:  -435.56169371676719   -6.14815e-05   5.75968e-06 DIIS
   @DF-RHF iter   7:  -435.56170648434539   -1.27676e-05   2.51174e-06 DIIS
   @DF-RHF iter   8:  -435.56170889937943   -2.41503e-06   8.68948e-07 DIIS
   @DF-RHF iter   9:  -435.56170926243902   -3.63060e-07   3.83723e-07 DIIS
   @DF-RHF iter  10:  -435.56170932897703   -6.65380e-08   1.11548e-07 DIIS
   @DF-RHF iter  11:  -435.56170933738986   -8.41283e-09   4.95823e-08 DIIS
   @DF-RHF iter  12:  -435.56170933871783   -1.32798e-09   2.33309e-08 DIIS
   @DF-RHF iter  13:  -435.56170933906623   -3.48393e-10   8.44436e-09 DIIS
   @DF-RHF iter  14:  -435.56170933911346   -4.72369e-11   3.34612e-09 DIIS
   @DF-RHF iter  15:  -435.56170933911932   -5.85487e-12   1.39692e-09 DIIS
   @DF-RHF iter  16:  -435.56170933911920    1.13687e-13   4.77309e-10 DIIS
   @DF-RHF iter  17:  -435.56170933912068   -1.47793e-12   2.03798e-10 DIIS
   @DF-RHF iter  18:  -435.56170933911977    9.09495e-13   4.99785e-11 DIIS
  Energy and wave function converged.


  ==> Post-Iterations <==

    Orbital Energies [Eh]
    ---------------------

    Doubly Occupied:                                                      

       1A    -20.631496     2A    -20.516157     3A    -15.629516  
       4A    -11.378502     5A    -11.341151     6A    -11.286927  
       7A    -11.255999     8A    -11.234532     9A    -11.222208  
      10A     -1.468090    11A     -1.334228    12A     -1.232608  
      13A     -1.086210    14A     -1.072806    15A     -0.988333  
      16A     -0.851414    17A     -0.810138    18A     -0.768142  
      19A     -0.740885    20A     -0.693029    21A     -0.661885  
      22A     -0.652268    23A     -0.632962    24A     -0.604081  
      25A     -0.574935    26A     -0.567397    27A     -0.554580  
      28A     -0.539067    29A     -0.534605    30A     -0.426991  
      31A     -0.421068    32A     -0.398608    33A     -0.295098  

    Virtual:                                                              

      34A      0.020620    35A      0.030402    36A      0.038092  
      37A      0.040519    38A      0.045799    39A      0.053315  
      40A      0.066049    41A      0.079933    42A      0.087963  
      43A      0.095073    44A      0.098916    45A      0.103449  
      46A      0.105298    47A      0.114225    48A      0.115914  
      49A      0.117998    50A      0.124032    51A      0.124507  
      52A      0.132844    53A      0.136474    54A      0.142394  
      55A      0.144395    56A      0.150800    57A      0.154792  
      58A      0.160737    59A      0.166135    60A      0.171827  
      61A      0.180068    62A      0.187582    63A      0.203769  
      64A      0.204786    65A      0.213659    66A      0.217861  
      67A      0.221187    68A      0.234876    69A      0.241094  
      70A      0.247025    71A      0.248746    72A      0.258291  
      73A      0.265724    74A      0.273012    75A      0.276840  
      76A      0.282579    77A      0.288746    78A      0.295461  
      79A      0.297326    80A      0.308212    81A      0.311119  
      82A      0.314719    83A      0.315225    84A      0.324896  
      85A      0.328339    86A      0.340693    87A      0.343034  
      88A      0.348150    89A      0.354505    90A      0.356819  
      91A      0.361233    92A      0.362425    93A      0.372537  
      94A      0.374558    95A      0.380890    96A      0.393186  
      97A      0.394919    98A      0.404163    99A      0.411529  
     100A      0.416084   101A      0.421695   102A      0.432265  
     103A      0.434056   104A      0.443494   105A      0.444529  
     106A      0.450026   107A      0.454356   108A      0.461797  
     109A      0.465956   110A      0.469629   111A      0.471221  
     112A      0.479240   113A      0.479685   114A      0.488613  
     115A      0.497137   116A      0.499703   117A      0.508876  
     118A      0.516317   119A      0.517757   120A      0.518472  
     121A      0.530554   122A      0.534900   123A      0.541577  
     124A      0.550013   125A      0.553753   126A      0.556898  
     127A      0.567976   128A      0.574256   129A      0.582015  
     130A      0.592082   131A      0.598967   132A      0.601053  
     133A      0.608703   134A      0.626500   135A      0.628849  
     136A      0.635801   137A      0.638341   138A      0.655765  
     139A      0.665326   140A      0.668828   141A      0.682121  
     142A      0.698185   143A      0.708409   144A      0.713731  
     145A      0.716491   146A      0.720896   147A      0.730913  
     148A      0.746758   149A      0.751362   150A      0.761845  
     151A      0.772772   152A      0.778445   153A      0.785595  
     154A      0.793441   155A      0.803731   156A      0.807159  
     157A      0.817159   158A      0.824112   159A      0.830428  
     160A      0.839025   161A      0.843526   162A      0.852617  
     163A      0.861532   164A      0.868932   165A      0.873767  
     166A      0.879523   167A      0.887324   168A      0.896853  
     169A      0.902311   170A      0.913211   171A      0.918023  
     172A      0.925780   173A      0.935825   174A      0.942722  
     175A      0.947186   176A      0.953679   177A      0.959390  
     178A      0.968361   179A      0.976052   180A      0.981686  
     181A      0.985180   182A      0.995338   183A      0.998049  
     184A      1.012562   185A      1.016254   186A      1.021820  
     187A      1.032578   188A      1.039166   189A      1.040927  
     190A      1.048145   191A      1.049328   192A      1.057241  
     193A      1.060285   194A      1.068166   195A      1.078495  
     196A      1.084031   197A      1.095016   198A      1.098082  
     199A      1.105116   200A      1.110028   201A      1.123272  
     202A      1.124647   203A      1.130054   204A      1.133908  
     205A      1.144852   206A      1.148326   207A      1.159405  
     208A      1.173592   209A      1.177587   210A      1.179096  
     211A      1.190590   212A      1.200475   213A      1.206236  
     214A      1.210299   215A      1.215837   216A      1.221495  
     217A      1.233661   218A      1.238499   219A      1.250860  
     220A      1.262230   221A      1.266904   222A      1.271026  
     223A      1.276163   224A      1.286642   225A      1.298782  
     226A      1.310466   227A      1.312796   228A      1.339561  
     229A      1.345652   230A      1.368078   231A      1.370961  
     232A      1.379331   233A      1.393619   234A      1.399865  
     235A      1.407706   236A      1.419383   237A      1.427158  
     238A      1.431486   239A      1.433810   240A      1.455494  
     241A      1.468328   242A      1.473640   243A      1.481988  
     244A      1.483346   245A      1.500517   246A      1.513240  
     247A      1.526558   248A      1.528137   249A      1.546994  
     250A      1.554622   251A      1.565553   252A      1.576997  
     253A      1.593915   254A      1.599185   255A      1.609749  
     256A      1.615517   257A      1.621573   258A      1.646282  
     259A      1.657014   260A      1.660654   261A      1.670552  
     262A      1.683691   263A      1.695257   264A      1.708571  
     265A      1.716942   266A      1.718673   267A      1.731326  
     268A      1.746087   269A      1.748060   270A      1.758854  
     271A      1.766169   272A      1.788228   273A      1.790285  
     274A      1.814381   275A      1.817631   276A      1.836936  
     277A      1.844832   278A      1.861327   279A      1.866707  
     280A      1.876007   281A      1.882327   282A      1.898939  
     283A      1.914118   284A      1.923137   285A      1.923790  
     286A      1.932110   287A      1.942204   288A      1.956399  
     289A      1.966269   290A      1.982496   291A      1.996502  
     292A      1.997391   293A      2.007355   294A      2.009126  
     295A      2.021138   296A      2.032764   297A      2.043601  
     298A      2.058663   299A      2.067438   300A      2.071433  
     301A      2.100641   302A      2.103070   303A      2.132573  
     304A      2.137198   305A      2.149450   306A      2.157259  
     307A      2.178476   308A      2.189583   309A      2.201280  
     310A      2.241986   311A      2.244943   312A      2.259218  
     313A      2.276061   314A      2.284538   315A      2.306726  
     316A      2.311813   317A      2.338455   318A      2.347413  
     319A      2.371588   320A      2.388367   321A      2.414735  
     322A      2.434908   323A      2.447770   324A      2.454270  
     325A      2.460545   326A      2.468927   327A      2.494878  
     328A      2.506059   329A      2.511500   330A      2.526859  
     331A      2.563187   332A      2.571664   333A      2.579819  
     334A      2.596613   335A      2.612516   336A      2.622274  
     337A      2.652864   338A      2.658704   339A      2.665420  
     340A      2.684294   341A      2.725808   342A      2.752171  
     343A      2.760827   344A      2.776724   345A      2.795390  
     346A      2.821007   347A      2.847094   348A      2.883557  
     349A      2.891646   350A      2.905692   351A      2.931359  
     352A      2.944173   353A      2.970046   354A      2.998736  
     355A      3.007284   356A      3.023534   357A      3.054301  
     358A      3.076860   359A      3.088721   360A      3.112235  
     361A      3.128482   362A      3.165577   363A      3.179647  
     364A      3.215920   365A      3.233937   366A      3.250605  
     367A      3.257093   368A      3.275884   369A      3.294467  
     370A      3.303458   371A      3.321154   372A      3.342108  
     373A      3.384717   374A      3.392797   375A      3.412409  
     376A      3.416900   377A      3.430582   378A      3.449572  
     379A      3.455926   380A      3.462620   381A      3.475551  
     382A      3.486620   383A      3.521660   384A      3.534006  
     385A      3.549155   386A      3.571219   387A      3.576543  
     388A      3.600272   389A      3.609057   390A      3.624213  
     391A      3.631380   392A      3.635161   393A      3.649589  
     394A      3.658652   395A      3.663350   396A      3.670857  
     397A      3.703043   398A      3.710213   399A      3.741160  
     400A      3.752620   401A      3.768058   402A      3.785020  
     403A      3.796277   404A      3.822887   405A      3.839167  
     406A      3.847266   407A      3.864224   408A      3.883412  
     409A      3.885162   410A      3.896034   411A      3.903778  
     412A      3.926330   413A      3.937171   414A      3.946617  
     415A      3.961948   416A      3.976761   417A      3.995331  
     418A      4.012350   419A      4.014220   420A      4.033223  
     421A      4.062668   422A      4.065628   423A      4.077930  
     424A      4.086135   425A      4.093285   426A      4.109983  
     427A      4.129003   428A      4.145048   429A      4.159172  
     430A      4.170204   431A      4.188260   432A      4.196560  
     433A      4.208498   434A      4.216721   435A      4.236066  
     436A      4.250923   437A      4.261888   438A      4.279820  
     439A      4.294760   440A      4.300935   441A      4.312349  
     442A      4.320236   443A      4.340037   444A      4.345369  
     445A      4.376904   446A      4.385847   447A      4.413145  
     448A      4.430586   449A      4.440715   450A      4.457923  
     451A      4.459727   452A      4.476339   453A      4.499377  
     454A      4.517241   455A      4.540977   456A      4.558244  
     457A      4.575812   458A      4.607361   459A      4.617263  
     460A      4.636329   461A      4.662272   462A      4.682277  
     463A      4.711017   464A      4.748061   465A      4.763865  
     466A      4.766048   467A      4.797145   468A      4.803877  
     469A      4.820560   470A      4.853809   471A      4.860548  
     472A      4.861752   473A      4.868810   474A      4.889698  
     475A      4.917690   476A      4.940965   477A      4.962938  
     478A      4.985052   479A      4.993633   480A      5.034287  
     481A      5.049068   482A      5.082698   483A      5.085000  
     484A      5.092396   485A      5.098839   486A      5.115597  
     487A      5.145768   488A      5.158712   489A      5.168221  
     490A      5.187168   491A      5.199230   492A      5.218850  
     493A      5.231618   494A      5.270074   495A      5.289911  
     496A      5.347169   497A      5.373497   498A      5.427341  
     499A      5.447595   500A      5.475134   501A      5.496535  
     502A      5.508405   503A      5.551876   504A      5.573905  
     505A      5.600019   506A      5.629330   507A      5.644747  
     508A      5.665050   509A      5.706369   510A      5.726266  
     511A      5.745909   512A      5.766547   513A      5.846181  
     514A      5.849128   515A      5.893517   516A      5.922887  
     517A      5.949556   518A      5.980824   519A      6.061598  
     520A      6.109063   521A      6.125752   522A      6.152916  
     523A      6.169196   524A      6.185914   525A      6.251551  
     526A      6.279265   527A      6.339357   528A      6.389452  
     529A      6.467764   530A      6.495041   531A      6.544900  
     532A      6.639484   533A      6.678777   534A      6.695678  
     535A      6.712479   536A      6.725725   537A      6.748847  
     538A      6.838586   539A      6.857148   540A      6.872231  
     541A      6.914435   542A      6.947380   543A      6.983347  
     544A      7.016497   545A      7.046241   546A      7.062606  
     547A      7.088499   548A      7.097038   549A      7.124327  
     550A      7.370017   551A      7.390881   552A      7.407369  
     553A      7.446531   554A      7.499808   555A      7.529227  
     556A      7.568624   557A      7.597843   558A      7.679074  
     559A      7.683397   560A      7.736430   561A      7.859085  
     562A      7.928295   563A      7.957448   564A      8.056022  
     565A      8.363007   566A      8.519620   567A     14.143736  
     568A     14.970390   569A     16.722404   570A     17.230136  
     571A     18.148471   572A     18.426735   573A     18.738333  
     574A     19.668647   575A     20.561752  

    Final Occupation by Irrep:
              A 
    DOCC [    33 ]

  @DF-RHF Final Energy:  -435.56170933911977

   => Energetics <=

    Nuclear Repulsion Energy =            426.6522150217043645
    One-Electron Energy =               -1439.6160142157730206
    Two-Electron Energy =                 577.4020898549488265
    Total Energy =                       -435.5617093391198296

Computation Completed

*** tstop() called on node37.bme.utexas.edu at Tue Feb  2 13:54:00 2021
Module time:
	user time   =     265.22 seconds =       4.42 minutes
	system time =      62.65 seconds =       1.04 minutes
	total time  =         81 seconds =       1.35 minutes
Total time:
	user time   =     265.22 seconds =       4.42 minutes
	system time =      62.65 seconds =       1.04 minutes
	total time  =         81 seconds =       1.35 minutes
   => Loading Basis Set <=

    Name: (AUG-CC-PVTZ AUX)
    Role: RIFIT
    Keyword: DF_BASIS_MP2
    atoms 1-2   entry O          line   264 file /home/xy3866/psi4conda/share/psi4/basis/aug-cc-pvtz-ri.gbs 
    atoms 3     entry N          line   206 file /home/xy3866/psi4conda/share/psi4/basis/aug-cc-pvtz-ri.gbs 
    atoms 4-9   entry C          line   148 file /home/xy3866/psi4conda/share/psi4/basis/aug-cc-pvtz-ri.gbs 
    atoms 10-16 entry H          line    30 file /home/xy3866/psi4conda/share/psi4/basis/aug-cc-pvtz-ri.gbs 


*** tstart() called on node37.bme.utexas.edu
*** at Tue Feb  2 13:54:00 2021


  //>>>>>>>>>>>>>>>>>>>>>>>>>>>>>>>>>>>//
  //               DFMP2               //
  //<<<<<<<<<<<<<<<<<<<<<<<<<<<<<<<<<<<//

	 --------------------------------------------------------
	                          DF-MP2                         
	      2nd-Order Density-Fitted Moller-Plesset Theory     
	              RMP2 Wavefunction,   8 Threads             
	                                                         
	        Rob Parrish, Justin Turney, Andy Simmonett,      
	           Ed Hohenstein, and C. David Sherrill          
	 --------------------------------------------------------

   => Auxiliary Basis Set <=

  Basis Set: (AUG-CC-PVTZ AUX)
    Blend: AUG-CC-PVTZ-RI
    Number of shells: 350
    Number of basis function: 1276
    Number of Cartesian functions: 1609
    Spherical Harmonics?: true
    Max angular momentum: 4

	 --------------------------------------------------------
	                 NBF =   575, NAUX =  1276
	 --------------------------------------------------------
	   CLASS    FOCC     OCC    AOCC    AVIR     VIR    FVIR
	   PAIRS       0      33      33     542     542       0
	 --------------------------------------------------------

  DFHelper Memory: AOs need 2.989 GiB; user supplied 22.352 GiB. Using in-core AOs.


         ------------------------------------------------------------
                                     CPHF                           
                                  Rob Parrish                       
         ------------------------------------------------------------

  ==> Geometry <==

    Molecular point group: c1
    Full point group: C1

    Geometry (in Angstrom), charge = 0, multiplicity = 1:

       Center              X                  Y                   Z               Mass       
    ------------   -----------------  -----------------  -----------------  -----------------
         O           -1.465918105174    -1.170843869312    -0.009002403891    15.994914619570
         O            1.806852894826     1.388120130688    -0.020000403891    15.994914619570
         N            0.775799894826    -0.650770869312    -0.019993403891    14.003074004430
         C           -0.532185105174    -0.175176869312    -0.004544403891    12.000000000000
         C           -1.117637105174     1.060923130688     0.011954596109    12.000000000000
         C            1.967106194826     0.040162630688    -0.018723503891    12.000000000000
         C           -2.526537105174     0.806659130688     0.019021596109    12.000000000000
         C           -2.693332105174    -0.545800869312     0.006243596109    12.000000000000
         C            3.204318894826    -0.584093869312     0.031608596109    12.000000000000
         H            0.881425894826    -1.658276869312    -0.019855403891     1.007825032230
         H           -0.599470105174     2.005732130688     0.016821596109     1.007825032230
         H           -3.316897105174     1.544790130688     0.031945596109     1.007825032230
         H           -3.546879105174    -1.205770869312     0.005983596109     1.007825032230
         H            3.466956894826    -0.795593869312     1.072603596109     1.007825032230
         H            3.976081894826     0.056268130688    -0.395423403891     1.007825032230
         H            3.169629894826    -1.529369869312    -0.516465403891     1.007825032230

  Nuclear repulsion =  426.652215021704365
  Reference energy  = -435.561709339119773

  ==> Basis Set <==

  Basis Set: AUG-CC-PVTZ
    Blend: AUG-CC-PVTZ
    Number of shells: 189
    Number of basis function: 575
    Number of Cartesian functions: 670
    Spherical Harmonics?: true
    Max angular momentum: 3

  ==> CGRSolver (by Rob Parrish) <==

   Number of roots    =         1
   Preconditioning    =    JACOBI
   Convergence cutoff =     1E-06
   Maximum iterations =       100

  ==> CPHFRHamiltonian (by Rob Parrish) <== 

  ==> MemDFJK: Density-Fitted J/K Matrices <==

    J tasked:                   Yes
    K tasked:                   Yes
    wK tasked:                   No
    OpenMP threads:               8
    Memory [MiB]:             22888
    Algorithm:                 Disk
    Schwarz Cutoff:           1E-12
    Mask sparsity (%):       6.7097
    Fitting Condition:        1E-10

   => Auxiliary Basis Set <=

  Basis Set: (AUG-CC-PVTZ AUX)
    Blend: AUG-CC-PVTZ-JKFIT
    Number of shells: 368
    Number of basis function: 1258
    Number of Cartesian functions: 1564
    Spherical Harmonics?: true
    Max angular momentum: 4

  ==> CPHF Iterations <==

  => Iterations <=

             Iter  Converged  Remaining    Residual
  CGR           1          0          1   1.437E-01
  CGR           2          0          1   5.533E-02
  CGR           3          0          1   2.488E-02
  CGR           4          0          1   8.702E-03
  CGR           5          0          1   3.617E-03
  CGR           6          0          1   1.568E-03
  CGR           7          0          1   5.855E-04
  CGR           8          0          1   2.211E-04
  CGR           9          0          1   6.630E-05
  CGR          10          0          1   2.429E-05
  CGR          11          0          1   1.060E-05
  CGR          12          0          1   3.971E-06
  CGR          13          0          1   1.789E-06
  CGR          14          1          0   6.095E-07

    CGRSolver converged.

	-----------------------------------------------------------
	 ==================> DF-MP2 Energies <==================== 
	-----------------------------------------------------------
	 Reference Energy          =    -435.5617093391197727 [Eh]
	 Singles Energy            =      -0.0000000000000000 [Eh]
	 Same-Spin Energy          =      -0.4512633451065313 [Eh]
	 Opposite-Spin Energy      =      -1.3771217054939238 [Eh]
	 Correlation Energy        =      -1.8283850506004551 [Eh]
	 Total Energy              =    -437.3900943897202183 [Eh]
	-----------------------------------------------------------
	 ================> DF-SCS-MP2 Energies <================== 
	-----------------------------------------------------------
	 SCS Same-Spin Scale       =       0.3333333333333333 [-]
	 SCS Opposite-Spin Scale   =       1.2000000000000000 [-]
	 SCS Same-Spin Energy      =      -0.1504211150355104 [Eh]
	 SCS Opposite-Spin Energy  =      -1.6525460465927084 [Eh]
	 SCS Correlation Energy    =      -1.8029671616282188 [Eh]
	 SCS Total Energy          =    -437.3646765007479758 [Eh]
	-----------------------------------------------------------



Properties will be evaluated at   0.000000,  -0.000000,  -0.000000 [a0]

Properties computed using the MP2 density matrix

  Nuclear Dipole Moment: [e a0]
     X:     3.7782      Y:    -1.4803      Z:     0.1833

  Electronic Dipole Moment: [e a0]
     X:    -3.6878      Y:     0.0927      Z:    -0.1419

  Dipole Moment: [e a0]
     X:     0.0904      Y:    -1.3876      Z:     0.0414     Total:     1.3912

  Dipole Moment: [D]
     X:     0.2298      Y:    -3.5270      Z:     0.1052     Total:     3.5361


*** tstop() called on node37.bme.utexas.edu at Tue Feb  2 13:56:37 2021
Module time:
	user time   =     747.57 seconds =      12.46 minutes
	system time =      90.28 seconds =       1.50 minutes
	total time  =        157 seconds =       2.62 minutes
Total time:
	user time   =    1012.96 seconds =      16.88 minutes
	system time =     152.94 seconds =       2.55 minutes
	total time  =        238 seconds =       3.97 minutes

    Psi4 stopped on: Tuesday, 02 February 2021 01:56PM
    Psi4 wall time for execution: 0:03:59.01

*** Psi4 exiting successfully. Buy a developer a beer!
