9256                                                                    
Freq      RMP2-FC                                                     6-31G(d)            
Number of atoms                            I                8
Info1-9                                    I   N=           9
          20          18        1002           0           0         100
           6           2           1
Charge                                     I                0
Multiplicity                               I                1
Number of electrons                        I               44
Number of alpha electrons                  I               22
Number of beta electrons                   I               22
Number of basis functions                  I               85
Number of independent functions            I               85
Number of point charges in /Mol/           I                0
Number of translation vectors              I                0
Atomic numbers                             I   N=           8
          16           7           6           6           6           1
           1           1
Nuclear charges                            R   N=           8
  1.60000000E+01  7.00000000E+00  6.00000000E+00  6.00000000E+00  6.00000000E+00
  1.00000000E+00  1.00000000E+00  1.00000000E+00
Current cartesian coordinates              R   N=          24
  2.23558867E+00  7.70071160E-02 -4.21547453E-04 -2.39196129E+00 -1.47141750E+00
  4.73862126E-04 -1.21758770E-01  2.29719534E+00 -5.76006916E-05 -2.43879998E+00
  1.12331753E+00  4.41589182E-04 -3.49269552E-02 -2.26743041E+00  8.98785952E-05
  2.91329979E-01  4.29892834E+00 -2.10373012E-04 -4.24254232E+00  2.09495542E+00
  7.51744554E-04  4.98436936E-01 -4.24456983E+00  4.31503177E-05
Force Field                                I                0
Int Atom Types                             I   N=           8
           0           0           0           0           0           0
           0           0
MM charges                                 R   N=           8
  0.00000000E+00  0.00000000E+00  0.00000000E+00  0.00000000E+00  0.00000000E+00
  0.00000000E+00  0.00000000E+00  0.00000000E+00
Integer atomic weights                     I   N=           8
          32          14          12          12          12           1
           1           1
Real atomic weights                        R   N=           8
  3.19720718E+01  1.40030740E+01  1.20000000E+01  1.20000000E+01  1.20000000E+01
  1.00782504E+00  1.00782504E+00  1.00782504E+00
Atom fragment info                         I   N=           8
           0           0           0           0           0           0
           0           0
Atom residue num                           I   N=           8
           0           0           0           0           0           0
           0           0
Nuclear spins                              I   N=           8
           0           2           0           0           0           1
           1           1
Nuclear ZEff                               R   N=           8
 -1.36000000E+01 -4.55000000E+00 -3.60000000E+00 -3.60000000E+00 -3.60000000E+00
 -1.00000000E+00 -1.00000000E+00 -1.00000000E+00
Nuclear QMom                               R   N=           8
  0.00000000E+00  2.04400000E+00  0.00000000E+00  0.00000000E+00  0.00000000E+00
  0.00000000E+00  0.00000000E+00  0.00000000E+00
Nuclear GFac                               R   N=           8
  0.00000000E+00  4.03761000E-01  0.00000000E+00  0.00000000E+00  0.00000000E+00
  2.79284600E+00  2.79284600E+00  2.79284600E+00
MicOpt                                     I   N=           8
          -1          -1          -1          -1          -1          -1
          -1          -1
Number of contracted shells                I               27
Number of primitive shells                 I               73
Pure/Cartesian d shells                    I                1
Pure/Cartesian f shells                    I                0
Highest angular momentum                   I                2
Largest degree of contraction              I                6
Shell types                                I   N=          27
           0          -1          -1          -1           2           0
          -1          -1           2           0          -1          -1
           2           0          -1          -1           2           0
          -1          -1           2           0           0           0
           0           0           0
Number of primitives per shell             I   N=          27
           6           6           3           1           1           6
           3           1           1           6           3           1
           1           6           3           1           1           6
           3           1           1           3           1           3
           1           3           1
Shell to atom map                          I   N=          27
           1           1           1           1           1           2
           2           2           2           3           3           3
           3           4           4           4           4           5
           5           5           5           6           6           7
           7           8           8
Primitive exponents                        R   N=          73
  2.19171000E+04  3.30149000E+03  7.54146000E+02  2.12711000E+02  6.79896000E+01
  2.30515000E+01  4.23735000E+02  1.00710000E+02  3.21599000E+01  1.18079000E+01
  4.63110000E+00  1.87025000E+00  2.61584000E+00  9.22167000E-01  3.41287000E-01
  1.17167000E-01  6.50000000E-01  4.17351146E+03  6.27457911E+02  1.42902093E+02
  4.02343293E+01  1.28202129E+01  4.39043701E+00  1.16263619E+01  2.71627981E+00
  7.72218397E-01  2.12031498E-01  8.00000000E-01  3.04752488E+03  4.57369518E+02
  1.03948685E+02  2.92101553E+01  9.28666296E+00  3.16392696E+00  7.86827235E+00
  1.88128854E+00  5.44249258E-01  1.68714478E-01  8.00000000E-01  3.04752488E+03
  4.57369518E+02  1.03948685E+02  2.92101553E+01  9.28666296E+00  3.16392696E+00
  7.86827235E+00  1.88128854E+00  5.44249258E-01  1.68714478E-01  8.00000000E-01
  3.04752488E+03  4.57369518E+02  1.03948685E+02  2.92101553E+01  9.28666296E+00
  3.16392696E+00  7.86827235E+00  1.88128854E+00  5.44249258E-01  1.68714478E-01
  8.00000000E-01  1.87311370E+01  2.82539436E+00  6.40121692E-01  1.61277759E-01
  1.87311370E+01  2.82539436E+00  6.40121692E-01  1.61277759E-01  1.87311370E+01
  2.82539436E+00  6.40121692E-01  1.61277759E-01
Contraction coefficients                   R   N=          73
  1.86924085E-03  1.42303065E-02  6.96962317E-02  2.38487108E-01  4.83307220E-01
  3.38074154E-01 -2.37677050E-03 -3.16930067E-02 -1.13317024E-01  5.60900118E-02
  5.92255124E-01  4.55006095E-01 -2.50373114E-01  6.69567631E-02  1.05450627E+00
  1.00000000E+00  1.00000000E+00  1.83477216E-03  1.39946270E-02  6.85865518E-02
  2.32240873E-01  4.69069948E-01  3.60455199E-01 -1.14961182E-01 -1.69117479E-01
  1.14585195E+00  1.00000000E+00  1.00000000E+00  1.83473713E-03  1.40373228E-02
  6.88426223E-02  2.32184443E-01  4.67941348E-01  3.62311985E-01 -1.19332420E-01
 -1.60854152E-01  1.14345644E+00  1.00000000E+00  1.00000000E+00  1.83473713E-03
  1.40373228E-02  6.88426223E-02  2.32184443E-01  4.67941348E-01  3.62311985E-01
 -1.19332420E-01 -1.60854152E-01  1.14345644E+00  1.00000000E+00  1.00000000E+00
  1.83473713E-03  1.40373228E-02  6.88426223E-02  2.32184443E-01  4.67941348E-01
  3.62311985E-01 -1.19332420E-01 -1.60854152E-01  1.14345644E+00  1.00000000E+00
  1.00000000E+00  3.34946043E-02  2.34726953E-01  8.13757326E-01  1.00000000E+00
  3.34946043E-02  2.34726953E-01  8.13757326E-01  1.00000000E+00  3.34946043E-02
  2.34726953E-01  8.13757326E-01  1.00000000E+00
P(S=P) Contraction coefficients            R   N=          73
  0.00000000E+00  0.00000000E+00  0.00000000E+00  0.00000000E+00  0.00000000E+00
  0.00000000E+00  4.06100998E-03  3.06812999E-02  1.30451999E-01  3.27204999E-01
  4.52850998E-01  2.56041999E-01 -1.45104895E-02  3.10262776E-01  7.54482456E-01
  1.00000000E+00  0.00000000E+00  0.00000000E+00  0.00000000E+00  0.00000000E+00
  0.00000000E+00  0.00000000E+00  0.00000000E+00  6.75797439E-02  3.23907296E-01
  7.40895140E-01  1.00000000E+00  0.00000000E+00  0.00000000E+00  0.00000000E+00
  0.00000000E+00  0.00000000E+00  0.00000000E+00  0.00000000E+00  6.89990666E-02
  3.16423961E-01  7.44308291E-01  1.00000000E+00  0.00000000E+00  0.00000000E+00
  0.00000000E+00  0.00000000E+00  0.00000000E+00  0.00000000E+00  0.00000000E+00
  6.89990666E-02  3.16423961E-01  7.44308291E-01  1.00000000E+00  0.00000000E+00
  0.00000000E+00  0.00000000E+00  0.00000000E+00  0.00000000E+00  0.00000000E+00
  0.00000000E+00  6.89990666E-02  3.16423961E-01  7.44308291E-01  1.00000000E+00
  0.00000000E+00  0.00000000E+00  0.00000000E+00  0.00000000E+00  0.00000000E+00
  0.00000000E+00  0.00000000E+00  0.00000000E+00  0.00000000E+00  0.00000000E+00
  0.00000000E+00  0.00000000E+00  0.00000000E+00
Coordinates of each shell                  R   N=          81
  2.23558867E+00  7.70071160E-02 -4.21547453E-04  2.23558867E+00  7.70071160E-02
 -4.21547453E-04  2.23558867E+00  7.70071160E-02 -4.21547453E-04  2.23558867E+00
  7.70071160E-02 -4.21547453E-04  2.23558867E+00  7.70071160E-02 -4.21547453E-04
 -2.39196129E+00 -1.47141750E+00  4.73862126E-04 -2.39196129E+00 -1.47141750E+00
  4.73862126E-04 -2.39196129E+00 -1.47141750E+00  4.73862126E-04 -2.39196129E+00
 -1.47141750E+00  4.73862126E-04 -1.21758770E-01  2.29719534E+00 -5.76006916E-05
 -1.21758770E-01  2.29719534E+00 -5.76006916E-05 -1.21758770E-01  2.29719534E+00
 -5.76006916E-05 -1.21758770E-01  2.29719534E+00 -5.76006916E-05 -2.43879998E+00
  1.12331753E+00  4.41589182E-04 -2.43879998E+00  1.12331753E+00  4.41589182E-04
 -2.43879998E+00  1.12331753E+00  4.41589182E-04 -2.43879998E+00  1.12331753E+00
  4.41589182E-04 -3.49269552E-02 -2.26743041E+00  8.98785952E-05 -3.49269552E-02
 -2.26743041E+00  8.98785952E-05 -3.49269552E-02 -2.26743041E+00  8.98785952E-05
 -3.49269552E-02 -2.26743041E+00  8.98785952E-05  2.91329979E-01  4.29892834E+00
 -2.10373012E-04  2.91329979E-01  4.29892834E+00 -2.10373012E-04 -4.24254232E+00
  2.09495542E+00  7.51744554E-04 -4.24254232E+00  2.09495542E+00  7.51744554E-04
  4.98436936E-01 -4.24456983E+00  4.31503177E-05  4.98436936E-01 -4.24456983E+00
  4.31503177E-05
Constraint Structure                       R   N=          24
  2.23558867E+00  7.70071160E-02 -4.21547453E-04 -2.39196129E+00 -1.47141750E+00
  4.73862126E-04 -1.21758770E-01  2.29719534E+00 -5.76006916E-05 -2.43879998E+00
  1.12331753E+00  4.41589182E-04 -3.49269552E-02 -2.26743041E+00  8.98785952E-05
  2.91329979E-01  4.29892834E+00 -2.10373012E-04 -4.24254232E+00  2.09495542E+00
  7.51744554E-04  4.98436936E-01 -4.24456983E+00  4.31503177E-05
Num ILSW                                   I              100
ILSW                                       I   N=         100
           0           1           0           0           2           0
           0           0           0           0           0          -1
           0           0           0           0           0           0
           0           0           0           0           1           0
           1           0           0           0           0           0
           0           0      100000           0          -1           0
           0           0           0           0           0           0
           0           0           0           1           1           0
           0           0           1           0           0           0
           0           0           4          40           0           0
           0           0           0           0           0           0
           0           0           0           0           0           0
           0           0           0           0           0           0
           0           0           0           0           0           0
           0           0           0           0           0           0
           0           0           0           0           0           0
           0           0           0           0
Num RLSW                                   I               40
RLSW                                       R   N=          40
  1.00000000E+00  1.00000000E+00  1.00000000E+00  1.00000000E+00  1.00000000E+00
  0.00000000E+00  0.00000000E+00  1.00000000E+00  0.00000000E+00  0.00000000E+00
  0.00000000E+00  0.00000000E+00  1.00000000E+00  0.00000000E+00  0.00000000E+00
  0.00000000E+00  0.00000000E+00  1.00000000E+00  0.00000000E+00  0.00000000E+00
  0.00000000E+00  0.00000000E+00  1.00000000E+00  0.00000000E+00  0.00000000E+00
  0.00000000E+00  0.00000000E+00  1.00000000E+00  0.00000000E+00  0.00000000E+00
  0.00000000E+00  0.00000000E+00  0.00000000E+00  0.00000000E+00  0.00000000E+00
  0.00000000E+00  0.00000000E+00  0.00000000E+00  1.00000000E+00  1.00000000E+00
MxBond                                     I                3
NBond                                      I   N=           8
           2           2           3           3           3           1
           1           1
IBond                                      I   N=          24
           3           5           0           4           5           0
           1           4           6           2           3           7
           1           2           8           3           0           0
           4           0           0           5           0           0
RBond                                      R   N=          24
  1.00000000E+00  1.00000000E+00  0.00000000E+00  1.00000000E+00  1.50000000E+00
  0.00000000E+00  1.00000000E+00  1.50000000E+00  1.00000000E+00  1.00000000E+00
  1.50000000E+00  1.00000000E+00  1.00000000E+00  1.50000000E+00  1.00000000E+00
  1.00000000E+00  0.00000000E+00  0.00000000E+00  1.00000000E+00  0.00000000E+00
  0.00000000E+00  1.00000000E+00  0.00000000E+00  0.00000000E+00
Virial Ratio                               R      2.001060025059156E+00
SCF Energy                                 R     -5.672855024970363E+02
MP2 Energy                                 R     -5.679580363379233E+02
Total Energy                               R     -5.679580363379233E+02
Post-SCF wavefunction norm                 R      1.585698858692057E+00
RMS Force                                  R      2.966916510151466E-06
RMS Density                                R      1.116233296582237E-09
External E-field                           R   N=          35
  0.00000000E+00  0.00000000E+00  0.00000000E+00  0.00000000E+00  0.00000000E+00
  0.00000000E+00  0.00000000E+00  0.00000000E+00  0.00000000E+00  0.00000000E+00
  0.00000000E+00  0.00000000E+00  0.00000000E+00  0.00000000E+00  0.00000000E+00
  0.00000000E+00  0.00000000E+00  0.00000000E+00  0.00000000E+00  0.00000000E+00
  0.00000000E+00  0.00000000E+00  0.00000000E+00  0.00000000E+00  0.00000000E+00
  0.00000000E+00  0.00000000E+00  0.00000000E+00  0.00000000E+00  0.00000000E+00
  0.00000000E+00  0.00000000E+00  0.00000000E+00  0.00000000E+00  0.00000000E+00
IOpCl                                      I                0
IROHF                                      I                0
Alpha Orbital Energies                     R   N=          85
 -9.19876162E+01 -1.55802587E+01 -1.13128822E+01 -1.12733657E+01 -1.12708095E+01
 -8.99899233E+00 -6.68140565E+00 -6.68047374E+00 -6.67893408E+00 -1.27855678E+00
 -1.06952417E+00 -1.00167051E+00 -8.01167572E-01 -7.74777026E-01 -6.95005540E-01
 -5.92732020E-01 -5.68087481E-01 -5.57062171E-01 -5.07390987E-01 -4.33268187E-01
 -3.89306219E-01 -3.39770175E-01  1.14976796E-01  1.68576798E-01  2.15537965E-01
  2.47779077E-01  2.63172638E-01  2.96119459E-01  3.13689665E-01  3.82635496E-01
  4.20866460E-01  4.73373544E-01  5.27100370E-01  5.62890614E-01  5.72733382E-01
  6.44281774E-01  7.33515695E-01  7.73962767E-01  7.74255563E-01  7.93246986E-01
  8.30705160E-01  8.81369161E-01  9.05688189E-01  1.00034965E+00  1.00251499E+00
  1.02494919E+00  1.04465998E+00  1.05059607E+00  1.07999372E+00  1.11837063E+00
  1.11884882E+00  1.15970608E+00  1.21672823E+00  1.25525701E+00  1.29500324E+00
  1.31614972E+00  1.32536803E+00  1.42975646E+00  1.59483499E+00  1.62017696E+00
  1.69629307E+00  1.70568046E+00  1.79302326E+00  2.00663531E+00  2.03449157E+00
  2.15035025E+00  2.20864836E+00  2.28814666E+00  2.34311981E+00  2.53101562E+00
  2.54570773E+00  2.55430194E+00  2.62041984E+00  2.68032830E+00  2.81157257E+00
  2.84023102E+00  2.89525748E+00  2.99943151E+00  3.30305724E+00  3.34029361E+00
  4.33981193E+00  4.35695569E+00  4.49852209E+00  4.65269886E+00  4.75049029E+00
Alpha MO coefficients                      R   N=        7225
  9.96255159E-01  1.42604864E-02 -8.57054397E-05  2.91016285E-06  1.62489262E-08
 -1.99859424E-02  1.51802511E-04 -2.18433215E-05 -2.80971763E-08  2.43409458E-03
 -9.94005501E-05  9.28630502E-06  1.88518685E-08  6.90054683E-03  6.92548453E-03
  6.91799711E-03  8.44245527E-06  3.22534790E-09 -2.16193657E-09 -1.30391655E-05
 -5.87688350E-05 -3.28337792E-05  6.65187790E-06  4.62861987E-09  4.46344213E-04
  8.31848319E-05  8.47416761E-05 -1.01518590E-08 -3.99344853E-05 -1.03196262E-06
 -5.01224601E-05 -4.04090870E-07 -1.05957509E-09 -1.48859212E-09  1.18055376E-05
  9.01396003E-05  3.44960972E-05 -3.23834461E-05 -5.43525129E-09  3.00972902E-04
 -1.25052418E-04 -4.34670022E-04  4.25621228E-08 -5.26470436E-06 -9.81537959E-06
 -1.45031475E-05  6.60342656E-05 -4.91239919E-09 -1.34000567E-08  1.24277364E-05
  2.78639542E-05 -1.42258191E-05 -2.03658019E-05  4.34042522E-09 -6.86649955E-04
 -4.62566663E-04  2.87217177E-04  7.91892016E-08  1.25486650E-05  1.79677965E-05
  2.40726893E-05 -2.18252121E-05  3.65088331E-09  3.79354392E-09  1.37431811E-05
  1.04692360E-04  6.25102216E-05  4.58787046E-05 -1.37055520E-08 -1.81355739E-04
  5.99684010E-05  8.76684092E-05 -1.44646344E-08 -5.56296527E-06 -7.85679361E-06
 -7.51035818E-06 -5.32749293E-05  2.31615211E-09  1.01935242E-08  2.04670707E-05
  8.80787280E-05 -3.50800696E-05 -1.56312476E-04  2.69671705E-06 -2.37544995E-05
  9.74854703E-07 -5.64342802E-06 -1.91995938E-05 -2.38889475E-05  4.06398321E-09
  7.99208542E-05  1.35814191E-04  1.75074454E-04 -2.95645920E-08 -5.10773130E-04
  2.71616629E-04 -2.56123032E-05 -5.36467762E-08 -8.79637905E-05 -4.49981969E-05
 -4.35506324E-05 -6.52052751E-05  1.35332505E-08  1.23634493E-08  9.95211034E-01
  2.46924793E-02  1.70627963E-03  1.12025497E-03 -3.14213823E-07 -4.74280716E-03
 -1.89156976E-03 -1.43133618E-03  3.55138178E-07 -2.70399326E-03 -2.82233526E-03
 -3.20017117E-03 -9.19358004E-05 -1.00694489E-07  4.58131611E-09 -9.40829361E-07
 -4.32312879E-05  6.68673007E-05  3.05848696E-05 -1.21529437E-08 -8.94864094E-04
  4.47992075E-04  6.42451625E-04 -1.14557646E-07  6.85549503E-06  1.63386774E-05
 -3.26965938E-05 -3.91879323E-05 -8.66229298E-09  8.88065965E-09  8.88424531E-06
  3.59800383E-04 -1.59158290E-05 -1.30561859E-04  6.95222669E-09  2.81008822E-03
  1.14292845E-03 -9.15366073E-04 -2.08750307E-07 -7.04643869E-05 -4.92927772E-04
 -9.01299192E-05  1.77240627E-05 -9.28137282E-09  3.40083472E-09  2.89973284E-05
  3.66173448E-04 -3.04049374E-05 -3.29506376E-05  8.68794785E-09  2.34084922E-03
 -6.94370195E-04  1.14510959E-03  7.97672740E-08 -5.54500963E-04 -1.48955395E-04
 -4.26147524E-05  1.96494451E-04  9.49406267E-08 -3.43796808E-08 -3.96405652E-05
 -1.84454504E-04  2.42251447E-06  2.59924574E-04  2.92617698E-05  2.29136449E-04
 -7.68309330E-06 -1.38957182E-05  2.47203795E-05 -5.70229119E-06 -4.41216105E-09
  2.98948894E-04 -3.49312322E-04 -7.42142147E-05  6.88977585E-08  4.43333250E-03
 -2.16276111E-03 -1.10143926E-03  4.43607408E-07 -1.87948057E-04 -2.10297016E-04
 -1.77138524E-04 -1.75594409E-04  9.74178979E-09  3.57032696E-08 -3.47254211E-04
  2.14060086E-04  3.15690099E-05 -8.35401692E-05 -5.12865582E-09 -3.25478167E-04
 -5.20610319E-04 -4.14302260E-04  8.47474157E-08 -2.54931790E-04 -2.62043704E-04
  1.45840589E-04 -1.37677160E-05  7.46677688E-08  1.33800370E-08 -1.87867520E-04
  2.17438408E-04  5.67330370E-05 -7.03457040E-05 -7.19781200E-09 -3.71116940E-03
  4.15839699E-04  1.79968420E-03 -1.59588410E-07  4.18087280E-05  2.16505184E-04
  1.25316791E-04 -1.30358870E-05  2.02381183E-08  1.41483648E-09 -3.07940415E-04
 -3.55204364E-04 -2.53672432E-05 -5.45231345E-05  2.72175113E-09  2.60767103E-03
  2.45241863E-03 -8.94827048E-04 -4.39181162E-07  7.38977159E-05  1.96862875E-04
 -8.51113433E-05 -9.07895500E-05 -3.44311473E-08  8.34457910E-09  9.95763127E-01
  2.71453950E-02  6.14268330E-05  6.25311415E-04 -4.37719537E-08 -1.05317944E-02
 -1.31244435E-03 -1.39656364E-03  3.05956712E-07 -1.45462969E-03 -1.66389528E-03
 -2.23071147E-03 -3.34636221E-04 -1.50701928E-07  3.86987044E-08 -6.42822440E-05
 -3.12070238E-04  1.15850318E-04  9.42453566E-04 -1.92400879E-04  1.50198560E-03
 -1.03736856E-05 -2.80997825E-05 -3.66523642E-06 -1.74382128E-05  1.53103856E-09
 -3.05884029E-04  1.16398450E-05  1.60704640E-04 -8.92573621E-09  1.78392503E-03
 -9.41032116E-04  3.95422349E-04  1.60615673E-07  4.81464051E-05 -2.38719712E-05
 -9.97409971E-05 -3.56273811E-05 -3.03903468E-08  5.71280114E-09 -2.30049088E-04
  3.09782672E-04 -3.66375807E-05  6.21986305E-06  7.22841383E-09 -3.06966173E-04
 -3.33044274E-04 -6.74982348E-04  4.44097846E-08 -1.73581690E-04 -5.26850582E-04
  1.75846203E-04  3.79624952E-05  6.91925704E-08  1.82421056E-09  2.71422739E-01
  7.51763643E-03  3.36297441E-04 -1.21840335E-04 -5.84780150E-08 -6.36197587E-04
 -1.57976816E-03  8.27201637E-04  2.64475238E-07 -7.85781242E-04 -7.11041169E-04
 -6.04719948E-04  1.17677259E-05  4.37659813E-08  3.71983805E-09  9.57808151E-01
  2.60554186E-02  2.42791872E-04 -5.67522608E-04 -4.89327550E-08 -7.99192689E-03
 -3.10192665E-04 -9.16922999E-04  1.14836156E-07 -1.65170337E-03 -1.50600836E-03
 -2.34637749E-03  2.66853093E-05 -1.56540462E-07 -2.71356113E-08  3.50931992E-04
 -8.75776583E-05 -1.24153570E-04  7.68171329E-07  1.95963359E-08 -2.47063421E-04
 -3.76412240E-04  9.19351455E-04  6.10898545E-08  1.41623142E-04  1.44311751E-04
  1.96285084E-05 -1.24773335E-04 -2.41740244E-08  1.88702423E-08 -1.70864041E-04
 -2.01239947E-05 -1.99751855E-04  1.86024742E-03  8.49635124E-05  5.57753285E-04
 -5.57097148E-06 -2.70517289E-06  1.86394110E-05 -7.21663850E-06 -3.37967298E-09
  4.48182559E-04 -3.32986582E-04  1.80756534E-04  5.69530710E-08  4.01809909E-03
 -2.02236475E-03  7.95263633E-04  3.54160379E-07 -2.60429683E-04 -2.45490832E-04
 -1.59367654E-04  1.60420672E-04  1.68723460E-08 -2.66096514E-08  9.16741178E-05
 -9.39904338E-05  2.99910098E-05 -7.78443542E-06 -4.01660576E-09 -8.02327955E-04
  9.33355959E-06 -1.57335986E-04  4.91881263E-09  1.33959606E-04  2.84628053E-04
 -3.70004688E-05  4.65935621E-05 -3.99782649E-08 -1.58387375E-08  9.58019538E-01
  2.66361934E-02  4.35613069E-04 -5.64235610E-04 -5.10961889E-08 -1.39942636E-02
  3.65777813E-04  2.44245810E-03 -1.76084086E-07 -1.54658356E-03 -1.50179157E-03
 -2.11539724E-03  2.81389425E-04 -1.37711700E-07 -7.95452286E-08 -2.71897361E-01
 -7.66669072E-03 -2.42012312E-04  1.69380994E-04  5.02698525E-08  7.27001395E-03
  2.45212515E-03  1.76082815E-04 -5.00646589E-07  1.42438963E-04  1.89289964E-04
  5.72389205E-04 -3.96723640E-05  9.87089790E-08  2.11008441E-08  2.39875715E-04
  1.75371216E-04 -3.35637041E-06  4.26208877E-05  1.78167244E-09 -1.76326402E-03
 -1.88236512E-04 -7.18948799E-04  5.05873701E-08  2.08345348E-05  1.86060289E-04
  1.01988253E-04  9.93021718E-07  1.72201573E-08 -5.22978052E-09 -2.13454186E-04
  1.29586204E-03  5.26067314E-05 -1.72527064E-04 -2.53758632E-05 -7.08441811E-06
 -2.81776735E-01  1.03025930E+00 -4.64449451E-03  1.15342214E-04  8.87162106E-07
  2.42340536E-02 -2.06027122E-03  1.07388532E-04  3.87081747E-07 -5.58978458E-03
  7.23736847E-04 -1.17026565E-05 -1.37725724E-07 -8.63679775E-04 -9.02942134E-04
 -1.54528722E-03 -4.90584442E-05 -1.46371802E-07 -1.90137835E-08  3.41359896E-05
  6.56531949E-05  3.98595001E-05 -1.06151324E-04  7.19332995E-11 -1.71824733E-03
 -1.67511785E-04 -2.61687094E-04  6.27678317E-09  1.64775285E-04  1.64350954E-05
  4.71375079E-05  1.45544884E-05 -3.00496612E-08 -4.25376918E-09 -1.76353428E-04
  4.84040495E-04  2.83262612E-05 -2.29367790E-05 -5.42219779E-09 -1.76721753E-03
  4.82245197E-04  2.87410390E-03 -2.09744831E-07 -3.39123059E-04 -3.37983712E-04
  1.04795983E-04  1.96591117E-04  9.10378327E-08 -1.51345716E-08 -6.46688417E-05
 -4.47877920E-04 -3.76788771E-05  1.67931318E-04 -1.04886691E-09  3.37548707E-03
  2.92715166E-03 -1.79833561E-03 -5.03375667E-07  9.32215398E-05 -2.17428072E-05
 -1.59745803E-04 -2.87235556E-06 -5.71837660E-08 -2.90304430E-09 -1.78991535E-04
  4.07863313E-04 -1.01975447E-04 -4.36047368E-06  2.35358823E-08  5.19967136E-04
 -2.17619403E-04 -1.13940326E-03  7.47503205E-08 -2.99176507E-04 -3.49314733E-04
  8.73437322E-05 -2.42100431E-04  8.99182012E-08  6.34343415E-08 -1.92208920E-04
 -9.93039167E-04  1.76226049E-04  1.22808962E-03 -1.16037627E-04 -4.15336028E-04
 -6.35091922E-05  2.88812223E-04  6.20864390E-02  9.90929658E-01 -5.16190512E-05
 -7.99943779E-05  1.33376044E-03  2.41368429E-02 -1.22037819E-06 -3.22357363E-04
 -1.18956007E-04 -5.13968768E-03  2.28766828E-07  5.15814460E-06  3.11693854E-05
  1.20740281E-04 -1.55374871E-03  8.43839694E-08  2.95970165E-07  1.45174336E-04
  6.38228483E-04 -6.70456025E-05  1.22664486E-04  8.05337691E-09 -5.51247162E-03
 -1.14907274E-03 -2.54020913E-03  2.61123788E-07  1.57080967E-04  8.82838926E-05
  3.50930253E-04 -1.42866889E-05  3.75140853E-08  4.28114934E-09 -1.36787247E-04
  5.88605142E-04 -1.53732991E-04  8.50386148E-05  2.50757616E-08 -2.80137054E-03
 -2.99813922E-04  3.37669882E-03 -6.35327598E-08 -6.20054643E-04 -8.50530914E-05
  1.80546872E-04  2.55707341E-04  1.64976949E-07 -3.48443372E-08 -1.97521256E-05
 -2.26666324E-04  3.51484431E-05 -6.51936566E-05 -8.46881573E-09  4.58612681E-03
  2.33193734E-03 -2.81508042E-03 -4.10079768E-07  1.14157531E-04  2.45414833E-04
 -7.13714674E-05  9.54706463E-05 -5.06382411E-08 -1.93107709E-08  1.91207683E-04
 -4.91098671E-04  1.44675683E-04  1.90539469E-04 -3.42681681E-08  2.03101933E-03
  6.06800537E-04  2.68785077E-03 -2.27835797E-07  6.12840623E-04  2.70218949E-04
 -1.46369942E-04  3.67350696E-04 -1.75369623E-07 -9.21405938E-08 -2.43924010E-04
 -2.43300535E-04  1.36513849E-04  9.21643705E-04  1.54655082E-04  9.19104573E-06
 -1.61602754E-03  6.17504850E-03  9.91134877E-01 -6.20301673E-02 -1.86912546E-04
 -3.92290149E-03  2.35975540E-02 -1.65851950E-03 -4.44143379E-06 -5.35756774E-03
 -2.36948761E-03  3.46167018E-04  4.50502379E-07 -5.84748681E-04  8.44006573E-04
  1.59779126E-03  1.71173262E-04  4.69581179E-07 -2.33742170E-09 -2.06612100E-06
  6.40512814E-05 -1.33847413E-04  8.88294934E-05  1.81668467E-08  4.17509225E-04
 -6.98992217E-04  2.86035081E-04  1.52874830E-07 -2.38705589E-04  1.23946937E-04
 -2.49970308E-05 -1.25323980E-04  5.55072165E-08  1.76340822E-08  9.68568678E-05
 -9.25667572E-04  6.92385793E-05  2.88997718E-05 -1.18343889E-08  6.22985522E-03
 -5.53159153E-05 -6.35479782E-03  2.62850026E-07  1.00535618E-04  4.46732502E-04
 -3.23076902E-04 -1.69306436E-04 -8.89046306E-08 -6.25535861E-09  8.67900097E-05
  5.72372385E-04 -1.87234258E-04 -2.27395411E-04  4.64729362E-08 -5.67602739E-03
 -4.32489061E-03  2.52797110E-03  7.50968655E-07 -2.29049624E-04  4.54980365E-05
  1.16008533E-04  4.07896488E-05  7.47004948E-08 -1.02881832E-08  7.23779077E-05
 -7.30069734E-04  1.42275039E-04 -1.07354578E-05 -3.30937825E-08  3.50894864E-03
  2.21790106E-04  4.11976233E-03 -1.84855033E-07 -2.06317071E-05  4.34160499E-04
 -2.81206754E-04  1.43323820E-04 -5.54420912E-08 -5.82086682E-08  1.09481674E-04
  2.49273270E-03 -2.09513417E-04 -1.60257076E-03 -2.80560773E-06  1.88839579E-03
  8.50070442E-10 -2.58502136E-09  1.89898284E-04  3.98680627E-05  9.93739050E-01
  1.99301541E-09  3.97923704E-06  8.33805460E-07  2.08171267E-02 -1.49056407E-08
 -9.71858533E-07 -2.03521154E-07 -5.13311949E-03 -1.30040193E-07 -1.25828005E-09
  1.27122687E-07 -1.60624662E-08 -3.85082490E-04  1.78573103E-05  1.19939507E-09
  3.95550619E-09 -2.26656496E-09 -8.66344751E-10 -1.11546679E-05 -3.05147409E-08
 -6.16007630E-09  6.57589526E-09  6.54683853E-05  9.97234350E-09  7.97704867E-09
 -1.01755371E-08  4.11587234E-09  2.91694253E-05  2.43627923E-05  2.51291948E-11
  5.54909989E-10 -2.92337854E-08 -5.42728118E-09 -1.52088474E-04 -1.53703677E-08
  6.44906587E-08  1.40493906E-08  2.81859949E-04 -6.75598340E-08  1.70638239E-08
  5.12906522E-08  3.88958721E-08 -2.04570729E-04  2.47931904E-04 -7.11272464E-10
 -1.73066513E-09 -6.50546242E-09 -3.23405270E-10 -3.49510686E-05  2.21859117E-08
  5.67949917E-08  1.21411933E-08  2.11050861E-04  1.48113186E-08 -5.47066264E-09
 -1.44718335E-08 -2.19195292E-09  4.57188673E-05 -1.76963609E-05  5.55890204E-10
 -3.72408001E-09 -3.15432878E-08 -2.80811401E-09 -1.67876144E-04  4.11935736E-08
  5.99162088E-08  1.77749663E-08  3.44619759E-04 -6.39131880E-08 -1.45071325E-08
  7.82141019E-08 -5.34418257E-08 -1.97581214E-04 -2.49511173E-04 -7.01820456E-11
  1.75303382E-09  3.69662258E-10  1.83661442E-09  1.54771113E-10 -1.20913291E-08
  1.86012874E-02 -8.52206146E-02  3.24014836E-02  5.44197524E-03 -6.25987299E-06
  1.60237831E-01 -7.10569996E-02 -1.33034708E-02  1.37590235E-05  1.04702334E-02
  1.25254076E-02  3.89435320E-03 -2.45151172E-06  1.67905225E-02  6.55110580E-03
 -7.81574070E-03  4.97690364E-03 -5.52672588E-06 -1.53121752E-06 -1.51587435E-01
  3.10832074E-01  1.01827809E-01  5.96460809E-02 -1.87739445E-05  3.05046400E-01
  4.50781849E-02  3.44962298E-02 -8.35819820E-06  7.80565441E-03  6.08442480E-03
 -1.21922277E-02  7.36372364E-04 -4.00131740E-06 -5.01329220E-07 -5.39473007E-02
  9.83628144E-02 -2.07590656E-02 -4.95334089E-02  5.82388739E-06  7.99581326E-02
  9.91882770E-05 -2.48056793E-02  9.07068242E-07  4.97534201E-03  5.24649957E-03
 -5.39821837E-03  2.06836760E-03 -2.38363992E-06 -8.93819279E-07 -9.08993739E-02