
    -----------------------------------------------------------------------
          Psi4: An Open-Source Ab Initio Electronic Structure Package
                               Psi4 1.3.2 release

                         Git: Rev {HEAD} ecbda83 


    R. M. Parrish, L. A. Burns, D. G. A. Smith, A. C. Simmonett,
    A. E. DePrince III, E. G. Hohenstein, U. Bozkaya, A. Yu. Sokolov,
    R. Di Remigio, R. M. Richard, J. F. Gonthier, A. M. James,
    H. R. McAlexander, A. Kumar, M. Saitow, X. Wang, B. P. Pritchard,
    P. Verma, H. F. Schaefer III, K. Patkowski, R. A. King, E. F. Valeev,
    F. A. Evangelista, J. M. Turney, T. D. Crawford, and C. D. Sherrill,
    J. Chem. Theory Comput. 13(7) pp 3185--3197 (2017).
    (doi: 10.1021/acs.jctc.7b00174)


                         Additional Contributions by
    P. Kraus, H. Kruse, M. H. Lechner, M. C. Schieber, R. A. Shaw,
    A. Alenaizan, R. Galvelis, Z. L. Glick, S. Lehtola, and J. P. Misiewicz

    -----------------------------------------------------------------------


    Psi4 started on: Wednesday, 04 November 2020 04:38PM

    Process ID: 18951
    Host:       node142.bme.utexas.edu
    PSIDATADIR: /home/xy3866/psi4conda/share/psi4
    Memory:     500.0 MiB
    Threads:    8
    
  ==> Input File <==

--------------------------------------------------------------------------
#psi4
#
memory 32 gb

molecule  {
-1 1
  P       -0.0010900    -1.0890910     0.0004590
  O       -1.1370987    -0.0575206     0.6398908
  O        1.1506610    -0.0285350    -0.5585640
  O        0.4533267    -1.7654309     1.2674582
  O       -0.5057790    -1.8082590    -1.2231120
  C       -1.8201030     0.7715450    -0.4363210
  C        1.8136140     0.7766970     0.4358730
  C       -2.6746040     1.7890640     0.2877210
  C        2.6862580     1.7776730    -0.2896530
  H       -1.0739810     1.2667980    -1.0678550
  H       -2.4287840     0.1238470    -1.0755890
  H        1.0642060     1.2858700     1.0522800
  H        2.4084330     0.1312990     1.0903160
  H       -3.2148500     2.4129370    -0.4309050
  H       -3.4044660     1.2870150     0.9274370
  H       -2.0509410     2.4359130     0.9094240
  H        3.2222650     2.4062160     0.4280610
  H        3.4201870     1.2611760    -0.9129680
  H        2.0763540     2.4215040    -0.9279010
units angstrom
no_reorient  #important for SAPT in psi4, default
symmetry c1  #important for SAPT in psi4, default
}

set PROPERTIES_ORIGIN ["COM"]
properties('MP2/aug-cc-pvtz', properties = ['dipole'])
--------------------------------------------------------------------------

  Memory set to  29.802 GiB by Python driver.
    SCF Algorithm Type (re)set to DF.

*** tstart() called on node142.bme.utexas.edu
*** at Wed Nov  4 16:38:24 2020

   => Loading Basis Set <=

    Name: AUG-CC-PVTZ
    Role: ORBITAL
    Keyword: BASIS
    atoms 1     entry P          line   820 file /home/xy3866/psi4conda/share/psi4/basis/aug-cc-pvtz.gbs 
    atoms 2-5   entry O          line   327 file /home/xy3866/psi4conda/share/psi4/basis/aug-cc-pvtz.gbs 
    atoms 6-9   entry C          line   235 file /home/xy3866/psi4conda/share/psi4/basis/aug-cc-pvtz.gbs 
    atoms 10-19 entry H          line    36 file /home/xy3866/psi4conda/share/psi4/basis/aug-cc-pvtz.gbs 


         ---------------------------------------------------------
                                   SCF
               by Justin Turney, Rob Parrish, Andy Simmonett
                          and Daniel G. A. Smith
                              RHF Reference
                        8 Threads,  30517 MiB Core
         ---------------------------------------------------------

  ==> Geometry <==

    Molecular point group: c1
    Full point group: C1

    Geometry (in Angstrom), charge = -1, multiplicity = 1:

       Center              X                  Y                   Z               Mass       
    ------------   -----------------  -----------------  -----------------  -----------------
         P            0.002669068084    -0.986232495192    -0.012531942323    30.973761998420
         O           -1.133339631916     0.045337904808     0.626899857677    15.994914619570
         O            1.154420068084     0.074323504808    -0.571554942323    15.994914619570
         O            0.457085768084    -1.662572395192     1.254467257677    15.994914619570
         O           -0.502019931916    -1.705400495192    -1.236102942323    15.994914619570
         C           -1.816343931916     0.874403504808    -0.449311942323    12.000000000000
         C            1.817373068084     0.879555504808     0.422882057677    12.000000000000
         C           -2.670844931916     1.891922504808     0.274730057677    12.000000000000
         C            2.690017068084     1.880531504808    -0.302643942323    12.000000000000
         H           -1.070221931916     1.369656504808    -1.080845942323     1.007825032230
         H           -2.425024931916     0.226705504808    -1.088579942323     1.007825032230
         H            1.067965068084     1.388728504808     1.039289057677     1.007825032230
         H            2.412192068084     0.234157504808     1.077325057677     1.007825032230
         H           -3.211090931916     2.515795504808    -0.443895942323     1.007825032230
         H           -3.400706931916     1.389873504808     0.914446057677     1.007825032230
         H           -2.047181931916     2.538771504808     0.896433057677     1.007825032230
         H            3.226024068084     2.509074504808     0.415070057677     1.007825032230
         H            3.423946068084     1.364034504808    -0.925958942323     1.007825032230
         H            2.080113068084     2.524362504808    -0.940891942323     1.007825032230

  Running in c1 symmetry.

  Rotational constants: A =      0.05043  B =      0.03796  C =      0.02692 [cm^-1]
  Rotational constants: A =   1511.83940  B =   1138.03977  C =    807.09173 [MHz]
  Nuclear repulsion =  612.084072883663566

  Charge       = -1
  Multiplicity = 1
  Electrons    = 82
  Nalpha       = 41
  Nbeta        = 41

  ==> Algorithm <==

  SCF Algorithm Type is DF.
  DIIS enabled.
  MOM disabled.
  Fractional occupation disabled.
  Guess Type is SAD.
  Energy threshold   = 1.00e-10
  Density threshold  = 1.00e-10
  Integral threshold = 0.00e+00

  ==> Primary Basis <==

  Basis Set: AUG-CC-PVTZ
    Blend: AUG-CC-PVTZ
    Number of shells: 218
    Number of basis function: 648
    Number of Cartesian functions: 749
    Spherical Harmonics?: true
    Max angular momentum: 3

   => Loading Basis Set <=

    Name: (AUG-CC-PVTZ AUX)
    Role: JKFIT
    Keyword: DF_BASIS_SCF
    atoms 1     entry P          line   644 file /home/xy3866/psi4conda/share/psi4/basis/aug-cc-pvtz-jkfit.gbs 
    atoms 2-5   entry O          line   286 file /home/xy3866/psi4conda/share/psi4/basis/aug-cc-pvtz-jkfit.gbs 
    atoms 6-9   entry C          line   162 file /home/xy3866/psi4conda/share/psi4/basis/aug-cc-pvtz-jkfit.gbs 
    atoms 10-19 entry H          line    70 file /home/xy3866/psi4conda/share/psi4/basis/aug-cc-pvtz-jkfit.gbs 

  ==> Pre-Iterations <==

   -------------------------------------------------------
    Irrep   Nso     Nmo     Nalpha   Nbeta   Ndocc  Nsocc
   -------------------------------------------------------
     A        648     648       0       0       0       0
   -------------------------------------------------------
    Total     648     648      41      41      41       0
   -------------------------------------------------------

  ==> Integral Setup <==

  DFHelper Memory: AOs need 4.332 GiB; user supplied 22.352 GiB. Using in-core AOs.

  ==> MemDFJK: Density-Fitted J/K Matrices <==

    J tasked:                   Yes
    K tasked:                   Yes
    wK tasked:                   No
    OpenMP threads:               8
    Memory [MiB]:             22888
    Algorithm:                 Disk
    Schwarz Cutoff:           1E-12
    Mask sparsity (%):       6.4867
    Fitting Condition:        1E-10

   => Auxiliary Basis Set <=

  Basis Set: (AUG-CC-PVTZ AUX)
    Blend: AUG-CC-PVTZ-JKFIT
    Number of shells: 422
    Number of basis function: 1438
    Number of Cartesian functions: 1778
    Spherical Harmonics?: true
    Max angular momentum: 4

  Minimum eigenvalue in the overlap matrix is 7.5928428131E-06.
  Using Symmetric Orthogonalization.

  SCF Guess: Superposition of Atomic Densities via on-the-fly atomic UHF.

  ==> Iterations <==

                           Total Energy        Delta E     RMS |[F,P]|

   @DF-RHF iter SAD:  -796.32432988025528   -7.96324e+02   0.00000e+00 
   @DF-RHF iter   1:  -797.42148838061655   -1.09716e+00   1.45612e-03 DIIS
   @DF-RHF iter   2:  -797.70661292944953   -2.85125e-01   9.12126e-04 DIIS
   @DF-RHF iter   3:  -797.82317006970698   -1.16557e-01   1.24488e-04 DIIS
   @DF-RHF iter   4:  -797.82711077816498   -3.94071e-03   4.89496e-05 DIIS
   @DF-RHF iter   5:  -797.82769752497427   -5.86747e-04   1.22263e-05 DIIS
   @DF-RHF iter   6:  -797.82773335396723   -3.58290e-05   3.87445e-06 DIIS
   @DF-RHF iter   7:  -797.82773794996183   -4.59599e-06   1.01314e-06 DIIS
   @DF-RHF iter   8:  -797.82773835783848   -4.07877e-07   3.25512e-07 DIIS
   @DF-RHF iter   9:  -797.82773840902655   -5.11881e-08   1.27190e-07 DIIS
   @DF-RHF iter  10:  -797.82773841696076   -7.93420e-09   3.93758e-08 DIIS
   @DF-RHF iter  11:  -797.82773841754499   -5.84237e-10   1.60334e-08 DIIS
   @DF-RHF iter  12:  -797.82773841760945   -6.44604e-11   3.64048e-09 DIIS
   @DF-RHF iter  13:  -797.82773841761377   -4.32010e-12   9.26321e-10 DIIS
   @DF-RHF iter  14:  -797.82773841761355    2.27374e-13   3.93939e-10 DIIS
   @DF-RHF iter  15:  -797.82773841761707   -3.52429e-12   1.64900e-10 DIIS
   @DF-RHF iter  16:  -797.82773841761673    3.41061e-13   4.65818e-11 DIIS
  Energy and wave function converged.


  ==> Post-Iterations <==

    Orbital Energies [Eh]
    ---------------------

    Doubly Occupied:                                                      

       1A    -79.876511     2A    -20.406167     3A    -20.404012  
       4A    -20.307772     5A    -20.296371     6A    -11.149851  
       7A    -11.144482     8A    -11.106533     9A    -11.104953  
      10A     -7.392216    11A     -5.291005    12A     -5.290296  
      13A     -5.288748    14A     -1.228118    15A     -1.174157  
      16A     -1.094494    17A     -1.058516    18A     -0.895614  
      19A     -0.891818    20A     -0.713407    21A     -0.711601  
      22A     -0.593573    23A     -0.532098    24A     -0.525039  
      25A     -0.504705    26A     -0.454790    27A     -0.450485  
      28A     -0.437312    29A     -0.422597    30A     -0.417748  
      31A     -0.397803    32A     -0.395285    33A     -0.367087  
      34A     -0.363484    35A     -0.331082    36A     -0.311619  
      37A     -0.306624    38A     -0.282008    39A     -0.265330  
      40A     -0.247570    41A     -0.234867  

    Virtual:                                                              

      42A      0.101044    43A      0.108579    44A      0.118985  
      45A      0.125640    46A      0.127473    47A      0.133974  
      48A      0.144823    49A      0.145654    50A      0.161780  
      51A      0.165199    52A      0.178552    53A      0.188793  
      54A      0.191643    55A      0.206194    56A      0.212394  
      57A      0.219478    58A      0.222117    59A      0.227709  
      60A      0.232837    61A      0.241484    62A      0.241682  
      63A      0.243709    64A      0.244743    65A      0.255539  
      66A      0.260909    67A      0.267512    68A      0.290696  
      69A      0.294831    70A      0.304188    71A      0.309593  
      72A      0.315408    73A      0.323226    74A      0.325473  
      75A      0.338615    76A      0.353115    77A      0.353721  
      78A      0.357070    79A      0.370455    80A      0.375234  
      81A      0.380540    82A      0.387695    83A      0.390623  
      84A      0.398416    85A      0.403486    86A      0.407395  
      87A      0.408778    88A      0.413270    89A      0.423289  
      90A      0.431909    91A      0.432814    92A      0.433795  
      93A      0.439005    94A      0.444786    95A      0.449443  
      96A      0.451858    97A      0.456614    98A      0.457923  
      99A      0.466879   100A      0.476566   101A      0.479792  
     102A      0.483591   103A      0.486052   104A      0.491412  
     105A      0.494858   106A      0.507050   107A      0.509136  
     108A      0.517595   109A      0.521735   110A      0.524590  
     111A      0.532191   112A      0.535547   113A      0.536388  
     114A      0.544647   115A      0.549106   116A      0.549838  
     117A      0.553361   118A      0.557625   119A      0.560389  
     120A      0.569017   121A      0.574666   122A      0.579637  
     123A      0.584396   124A      0.586039   125A      0.593777  
     126A      0.596407   127A      0.602341   128A      0.608532  
     129A      0.612749   130A      0.628497   131A      0.631087  
     132A      0.633206   133A      0.641680   134A      0.644161  
     135A      0.648149   136A      0.650765   137A      0.654859  
     138A      0.655468   139A      0.667671   140A      0.672772  
     141A      0.676542   142A      0.682020   143A      0.688809  
     144A      0.699901   145A      0.704503   146A      0.707273  
     147A      0.714889   148A      0.719463   149A      0.720585  
     150A      0.727575   151A      0.730113   152A      0.749111  
     153A      0.756123   154A      0.759918   155A      0.764202  
     156A      0.765467   157A      0.783227   158A      0.798496  
     159A      0.815520   160A      0.829148   161A      0.838016  
     162A      0.853828   163A      0.878396   164A      0.886363  
     165A      0.898662   166A      0.910129   167A      0.914330  
     168A      0.919398   169A      0.925353   170A      0.928749  
     171A      0.945865   172A      0.947953   173A      0.951551  
     174A      0.952242   175A      0.962505   176A      0.971646  
     177A      0.971992   178A      0.974502   179A      0.982377  
     180A      1.000595   181A      1.006201   182A      1.008942  
     183A      1.009868   184A      1.013736   185A      1.018665  
     186A      1.024695   187A      1.030950   188A      1.034082  
     189A      1.041261   190A      1.045160   191A      1.055289  
     192A      1.061028   193A      1.062558   194A      1.073576  
     195A      1.081107   196A      1.088921   197A      1.092002  
     198A      1.096031   199A      1.098391   200A      1.104998  
     201A      1.111434   202A      1.128455   203A      1.135012  
     204A      1.142776   205A      1.145683   206A      1.148512  
     207A      1.153639   208A      1.164586   209A      1.167983  
     210A      1.173023   211A      1.177247   212A      1.184798  
     213A      1.190584   214A      1.205208   215A      1.208012  
     216A      1.215382   217A      1.218167   218A      1.222425  
     219A      1.226120   220A      1.238683   221A      1.242518  
     222A      1.249583   223A      1.255488   224A      1.260560  
     225A      1.261703   226A      1.272554   227A      1.274705  
     228A      1.283315   229A      1.291508   230A      1.295795  
     231A      1.309025   232A      1.309321   233A      1.311074  
     234A      1.316370   235A      1.323958   236A      1.339266  
     237A      1.340065   238A      1.342952   239A      1.354264  
     240A      1.361811   241A      1.369920   242A      1.376949  
     243A      1.378298   244A      1.391967   245A      1.394525  
     246A      1.405202   247A      1.413531   248A      1.419135  
     249A      1.422954   250A      1.427065   251A      1.435555  
     252A      1.450848   253A      1.457288   254A      1.469847  
     255A      1.486483   256A      1.497173   257A      1.502127  
     258A      1.504178   259A      1.510127   260A      1.528801  
     261A      1.530467   262A      1.533122   263A      1.546126  
     264A      1.562159   265A      1.567746   266A      1.592496  
     267A      1.600355   268A      1.611386   269A      1.629614  
     270A      1.638357   271A      1.641115   272A      1.644690  
     273A      1.668882   274A      1.671019   275A      1.679613  
     276A      1.698393   277A      1.701952   278A      1.711275  
     279A      1.720763   280A      1.725911   281A      1.740610  
     282A      1.744720   283A      1.755341   284A      1.768366  
     285A      1.770264   286A      1.773717   287A      1.779889  
     288A      1.783462   289A      1.792711   290A      1.798050  
     291A      1.800038   292A      1.823082   293A      1.826730  
     294A      1.829026   295A      1.838076   296A      1.848974  
     297A      1.853994   298A      1.863095   299A      1.866215  
     300A      1.871950   301A      1.876153   302A      1.884021  
     303A      1.891605   304A      1.907087   305A      1.917786  
     306A      1.919031   307A      1.941625   308A      1.951509  
     309A      1.956921   310A      1.969718   311A      1.972518  
     312A      1.980935   313A      1.982839   314A      1.993975  
     315A      2.008070   316A      2.011431   317A      2.027490  
     318A      2.031960   319A      2.045183   320A      2.068463  
     321A      2.073237   322A      2.087056   323A      2.089971  
     324A      2.100583   325A      2.107317   326A      2.114150  
     327A      2.130648   328A      2.133063   329A      2.142669  
     330A      2.147208   331A      2.155435   332A      2.164481  
     333A      2.183787   334A      2.201688   335A      2.213613  
     336A      2.228094   337A      2.230327   338A      2.261102  
     339A      2.272625   340A      2.277727   341A      2.287967  
     342A      2.315497   343A      2.319506   344A      2.321858  
     345A      2.326845   346A      2.340000   347A      2.348685  
     348A      2.360071   349A      2.381143   350A      2.385344  
     351A      2.392241   352A      2.397627   353A      2.405752  
     354A      2.409325   355A      2.419501   356A      2.430467  
     357A      2.441373   358A      2.444491   359A      2.453998  
     360A      2.465660   361A      2.493475   362A      2.497697  
     363A      2.504668   364A      2.537427   365A      2.554892  
     366A      2.559131   367A      2.573138   368A      2.583371  
     369A      2.597108   370A      2.626158   371A      2.629716  
     372A      2.647945   373A      2.655476   374A      2.685766  
     375A      2.709299   376A      2.717795   377A      2.733764  
     378A      2.741989   379A      2.751738   380A      2.763052  
     381A      2.774589   382A      2.798715   383A      2.812898  
     384A      2.824620   385A      2.830251   386A      2.864396  
     387A      2.879490   388A      2.886885   389A      2.900626  
     390A      2.906712   391A      2.919812   392A      2.937965  
     393A      2.960830   394A      2.966873   395A      2.977734  
     396A      2.995304   397A      3.020592   398A      3.048540  
     399A      3.063054   400A      3.068362   401A      3.103172  
     402A      3.119510   403A      3.125359   404A      3.146609  
     405A      3.165733   406A      3.179286   407A      3.200346  
     408A      3.206334   409A      3.218938   410A      3.259704  
     411A      3.326899   412A      3.344668   413A      3.376084  
     414A      3.389017   415A      3.398217   416A      3.417812  
     417A      3.439134   418A      3.440215   419A      3.481579  
     420A      3.490228   421A      3.516051   422A      3.535348  
     423A      3.561074   424A      3.569579   425A      3.586021  
     426A      3.588557   427A      3.601436   428A      3.619788  
     429A      3.633831   430A      3.638368   431A      3.644855  
     432A      3.680981   433A      3.688080   434A      3.707464  
     435A      3.720464   436A      3.730079   437A      3.745975  
     438A      3.757908   439A      3.772175   440A      3.777549  
     441A      3.805184   442A      3.812451   443A      3.830130  
     444A      3.836086   445A      3.847275   446A      3.863092  
     447A      3.870682   448A      3.889512   449A      3.891799  
     450A      3.911843   451A      3.930197   452A      3.936804  
     453A      3.958258   454A      3.972854   455A      3.982629  
     456A      3.990248   457A      3.994974   458A      4.005577  
     459A      4.025606   460A      4.036520   461A      4.047272  
     462A      4.062622   463A      4.075805   464A      4.082108  
     465A      4.091046   466A      4.100264   467A      4.110189  
     468A      4.130141   469A      4.133310   470A      4.161224  
     471A      4.172239   472A      4.187689   473A      4.204007  
     474A      4.215459   475A      4.246929   476A      4.254745  
     477A      4.264365   478A      4.274548   479A      4.285360  
     480A      4.303121   481A      4.322827   482A      4.348245  
     483A      4.363807   484A      4.373799   485A      4.376467  
     486A      4.385292   487A      4.405369   488A      4.416743  
     489A      4.422326   490A      4.455281   491A      4.480083  
     492A      4.503217   493A      4.512683   494A      4.550311  
     495A      4.553286   496A      4.581681   497A      4.602315  
     498A      4.636972   499A      4.649942   500A      4.657951  
     501A      4.679189   502A      4.694042   503A      4.704867  
     504A      4.720713   505A      4.744547   506A      4.760464  
     507A      4.781111   508A      4.789080   509A      4.808357  
     510A      4.819691   511A      4.869126   512A      4.913379  
     513A      4.929246   514A      4.944988   515A      4.962908  
     516A      4.973811   517A      4.981884   518A      4.989562  
     519A      4.996522   520A      5.016541   521A      5.060330  
     522A      5.084391   523A      5.086579   524A      5.105541  
     525A      5.111547   526A      5.132015   527A      5.138089  
     528A      5.151300   529A      5.175397   530A      5.182459  
     531A      5.196265   532A      5.225179   533A      5.244543  
     534A      5.273225   535A      5.286529   536A      5.297299  
     537A      5.299594   538A      5.305693   539A      5.337166  
     540A      5.350751   541A      5.357966   542A      5.396766  
     543A      5.416076   544A      5.455847   545A      5.476671  
     546A      5.482004   547A      5.506708   548A      5.515643  
     549A      5.527016   550A      5.530720   551A      5.559853  
     552A      5.579400   553A      5.587367   554A      5.614580  
     555A      5.640310   556A      5.664793   557A      5.689203  
     558A      5.698476   559A      5.722141   560A      5.746481  
     561A      5.798165   562A      5.860727   563A      5.871481  
     564A      5.884000   565A      5.913252   566A      5.931267  
     567A      5.935921   568A      5.951174   569A      5.958010  
     570A      6.080242   571A      6.118606   572A      6.130152  
     573A      6.140804   574A      6.167581   575A      6.196163  
     576A      6.274705   577A      6.283102   578A      6.298388  
     579A      6.301115   580A      6.349192   581A      6.356824  
     582A      6.473323   583A      6.487905   584A      6.515652  
     585A      6.611975   586A      6.848129   587A      6.853029  
     588A      6.876120   589A      6.904417   590A      6.909253  
     591A      6.931370   592A      6.953891   593A      6.983211  
     594A      6.991476   595A      6.992625   596A      7.057314  
     597A      7.069168   598A      7.079368   599A      7.099173  
     600A      7.132051   601A      7.138019   602A      7.148299  
     603A      7.160060   604A      7.173451   605A      7.176099  
     606A      7.189025   607A      7.204625   608A      7.233156  
     609A      7.261467   610A      7.289238   611A      7.307890  
     612A      7.319183   613A      7.371217   614A      7.388545  
     615A      7.433946   616A      7.490136   617A      7.505186  
     618A      7.522543   619A      7.525461   620A      7.581782  
     621A      7.607575   622A      7.616608   623A      7.638705  
     624A      7.674113   625A      7.694035   626A      7.727270  
     627A      7.749202   628A      7.777841   629A      7.836319  
     630A      7.910785   631A      7.912777   632A      7.960043  
     633A      7.999742   634A      8.021237   635A      8.087181  
     636A      8.202130   637A      8.268827   638A      8.342862  
     639A      8.399177   640A     11.132641   641A     12.687561  
     642A     13.534835   643A     14.982848   644A     15.601822  
     645A     17.840099   646A     17.985940   647A     18.483428  
     648A     18.670256  

    Final Occupation by Irrep:
              A 
    DOCC [    41 ]

  @DF-RHF Final Energy:  -797.82773841761673

   => Energetics <=

    Nuclear Repulsion Energy =            612.0840728836635662
    One-Electron Energy =               -2330.4881289135523730
    Two-Electron Energy =                 920.5763176122720779
    Total Energy =                       -797.8277384176167288

Computation Completed

*** tstop() called on node142.bme.utexas.edu at Wed Nov  4 16:40:31 2020
Module time:
	user time   =     582.64 seconds =       9.71 minutes
	system time =      56.30 seconds =       0.94 minutes
	total time  =        127 seconds =       2.12 minutes
Total time:
	user time   =     582.64 seconds =       9.71 minutes
	system time =      56.30 seconds =       0.94 minutes
	total time  =        127 seconds =       2.12 minutes
   => Loading Basis Set <=

    Name: (AUG-CC-PVTZ AUX)
    Role: RIFIT
    Keyword: DF_BASIS_MP2
    atoms 1     entry P          line   590 file /home/xy3866/psi4conda/share/psi4/basis/aug-cc-pvtz-ri.gbs 
    atoms 2-5   entry O          line   264 file /home/xy3866/psi4conda/share/psi4/basis/aug-cc-pvtz-ri.gbs 
    atoms 6-9   entry C          line   148 file /home/xy3866/psi4conda/share/psi4/basis/aug-cc-pvtz-ri.gbs 
    atoms 10-19 entry H          line    30 file /home/xy3866/psi4conda/share/psi4/basis/aug-cc-pvtz-ri.gbs 


*** tstart() called on node142.bme.utexas.edu
*** at Wed Nov  4 16:40:32 2020


  //>>>>>>>>>>>>>>>>>>>>>>>>>>>>>>>>>>>//
  //               DFMP2               //
  //<<<<<<<<<<<<<<<<<<<<<<<<<<<<<<<<<<<//

	 --------------------------------------------------------
	                          DF-MP2                         
	      2nd-Order Density-Fitted Moller-Plesset Theory     
	              RMP2 Wavefunction,   8 Threads             
	                                                         
	        Rob Parrish, Justin Turney, Andy Simmonett,      
	           Ed Hohenstein, and C. David Sherrill          
	 --------------------------------------------------------

   => Auxiliary Basis Set <=

  Basis Set: (AUG-CC-PVTZ AUX)
    Blend: AUG-CC-PVTZ-RI
    Number of shells: 401
    Number of basis function: 1455
    Number of Cartesian functions: 1829
    Spherical Harmonics?: true
    Max angular momentum: 4

	 --------------------------------------------------------
	                 NBF =   648, NAUX =  1455
	 --------------------------------------------------------
	   CLASS    FOCC     OCC    AOCC    AVIR     VIR    FVIR
	   PAIRS       0      41      41     607     607       0
	 --------------------------------------------------------

  DFHelper Memory: AOs need 4.332 GiB; user supplied 22.352 GiB. Using in-core AOs.


         ------------------------------------------------------------
                                     CPHF                           
                                  Rob Parrish                       
         ------------------------------------------------------------

  ==> Geometry <==

    Molecular point group: c1
    Full point group: C1

    Geometry (in Angstrom), charge = -1, multiplicity = 1:

       Center              X                  Y                   Z               Mass       
    ------------   -----------------  -----------------  -----------------  -----------------
         P            0.002669068084    -0.986232495192    -0.012531942323    30.973761998420
         O           -1.133339631916     0.045337904808     0.626899857677    15.994914619570
         O            1.154420068084     0.074323504808    -0.571554942323    15.994914619570
         O            0.457085768084    -1.662572395192     1.254467257677    15.994914619570
         O           -0.502019931916    -1.705400495192    -1.236102942323    15.994914619570
         C           -1.816343931916     0.874403504808    -0.449311942323    12.000000000000
         C            1.817373068084     0.879555504808     0.422882057677    12.000000000000
         C           -2.670844931916     1.891922504808     0.274730057677    12.000000000000
         C            2.690017068084     1.880531504808    -0.302643942323    12.000000000000
         H           -1.070221931916     1.369656504808    -1.080845942323     1.007825032230
         H           -2.425024931916     0.226705504808    -1.088579942323     1.007825032230
         H            1.067965068084     1.388728504808     1.039289057677     1.007825032230
         H            2.412192068084     0.234157504808     1.077325057677     1.007825032230
         H           -3.211090931916     2.515795504808    -0.443895942323     1.007825032230
         H           -3.400706931916     1.389873504808     0.914446057677     1.007825032230
         H           -2.047181931916     2.538771504808     0.896433057677     1.007825032230
         H            3.226024068084     2.509074504808     0.415070057677     1.007825032230
         H            3.423946068084     1.364034504808    -0.925958942323     1.007825032230
         H            2.080113068084     2.524362504808    -0.940891942323     1.007825032230

  Nuclear repulsion =  612.084072883663339
  Reference energy  = -797.827738417616729

  ==> Basis Set <==

  Basis Set: AUG-CC-PVTZ
    Blend: AUG-CC-PVTZ
    Number of shells: 218
    Number of basis function: 648
    Number of Cartesian functions: 749
    Spherical Harmonics?: true
    Max angular momentum: 3

  ==> CGRSolver (by Rob Parrish) <==

   Number of roots    =         1
   Preconditioning    =    JACOBI
   Convergence cutoff =     1E-06
   Maximum iterations =       100

  ==> CPHFRHamiltonian (by Rob Parrish) <== 

  ==> MemDFJK: Density-Fitted J/K Matrices <==

    J tasked:                   Yes
    K tasked:                   Yes
    wK tasked:                   No
    OpenMP threads:               8
    Memory [MiB]:             22888
    Algorithm:                 Disk
    Schwarz Cutoff:           1E-12
    Mask sparsity (%):       6.4867
    Fitting Condition:        1E-10

   => Auxiliary Basis Set <=

  Basis Set: (AUG-CC-PVTZ AUX)
    Blend: AUG-CC-PVTZ-JKFIT
    Number of shells: 422
    Number of basis function: 1438
    Number of Cartesian functions: 1778
    Spherical Harmonics?: true
    Max angular momentum: 4

  ==> CPHF Iterations <==

  => Iterations <=

             Iter  Converged  Remaining    Residual
  CGR           1          0          1   8.114E-02
  CGR           2          0          1   1.902E-02
  CGR           3          0          1   7.329E-03
  CGR           4          0          1   2.275E-03
  CGR           5          0          1   8.644E-04
  CGR           6          0          1   2.256E-04
  CGR           7          0          1   7.322E-05
  CGR           8          0          1   2.533E-05
  CGR           9          0          1   7.977E-06
  CGR          10          0          1   3.070E-06
  CGR          11          1          0   7.645E-07

    CGRSolver converged.

	-----------------------------------------------------------
	 ==================> DF-MP2 Energies <==================== 
	-----------------------------------------------------------
	 Reference Energy          =    -797.8277384176167288 [Eh]
	 Singles Energy            =      -0.0000000000000000 [Eh]
	 Same-Spin Energy          =      -0.4988256772402869 [Eh]
	 Opposite-Spin Energy      =      -1.5481748654165342 [Eh]
	 Correlation Energy        =      -2.0470005426568210 [Eh]
	 Total Energy              =    -799.8747389602735893 [Eh]
	-----------------------------------------------------------
	 ================> DF-SCS-MP2 Energies <================== 
	-----------------------------------------------------------
	 SCS Same-Spin Scale       =       0.3333333333333333 [-]
	 SCS Opposite-Spin Scale   =       1.2000000000000000 [-]
	 SCS Same-Spin Energy      =      -0.1662752257467623 [Eh]
	 SCS Opposite-Spin Energy  =      -1.8578098384998409 [Eh]
	 SCS Correlation Energy    =      -2.0240850642466031 [Eh]
	 SCS Total Energy          =    -799.8518234818633346 [Eh]
	-----------------------------------------------------------



Properties will be evaluated at   0.000000,  -0.000000,  -0.000000 [a0]

Properties computed using the MP2 density matrix

  Nuclear Dipole Moment: [e a0]
     X:     0.0499      Y:    15.9486      Z:    -0.1171

  Electronic Dipole Moment: [e a0]
     X:    -0.0500      Y:   -12.9850      Z:    -0.0085

  Dipole Moment: [e a0]
     X:    -0.0001      Y:     2.9636      Z:    -0.1256     Total:     2.9663

  Dipole Moment: [D]
     X:    -0.0002      Y:     7.5328      Z:    -0.3193     Total:     7.5396


*** tstop() called on node142.bme.utexas.edu at Wed Nov  4 16:46:37 2020
Module time:
	user time   =    2022.96 seconds =      33.72 minutes
	system time =      74.99 seconds =       1.25 minutes
	total time  =        365 seconds =       6.08 minutes
Total time:
	user time   =    2606.90 seconds =      43.45 minutes
	system time =     131.45 seconds =       2.19 minutes
	total time  =        493 seconds =       8.22 minutes

    Psi4 stopped on: Wednesday, 04 November 2020 04:46PM
    Psi4 wall time for execution: 0:08:12.94

*** Psi4 exiting successfully. Buy a developer a beer!
