opt=Tight                                                               
Freq      RMP2-FC                                                     6-31G(d)            
Number of atoms                            I               13
Info1-9                                    I   N=           9
          22          22        1002           0           0         100
           6           2           1
Charge                                     I                1
Multiplicity                               I                1
Number of electrons                        I               54
Number of alpha electrons                  I               27
Number of beta electrons                   I               27
Number of basis functions                  I              130
Number of independent functions            I              130
Number of point charges in /Mol/           I                0
Number of translation vectors              I                0
Atomic numbers                             I   N=          13
           7           7           6           6           6           6
           6           6           1           1           1           1
           1
Nuclear charges                            R   N=          13
  7.00000000E+00  7.00000000E+00  6.00000000E+00  6.00000000E+00  6.00000000E+00
  6.00000000E+00  6.00000000E+00  6.00000000E+00  1.00000000E+00  1.00000000E+00
  1.00000000E+00  1.00000000E+00  1.00000000E+00
Current cartesian coordinates              R   N=          39
 -3.66182715E+00 -1.74802771E-06 -1.27517571E-05 -5.80453429E+00  1.04214661E-06
 -2.16470366E-05 -1.03154148E+00 -7.75302784E-07 -3.39776617E-06  1.76282219E-01
  2.35277572E+00  7.29675059E-07  1.76283798E-01 -2.35277646E+00  7.33140394E-07
  2.80529832E+00  2.30408343E+00  1.00745977E-05  2.80529987E+00 -2.30408237E+00
  1.00689058E-05  4.10486762E+00  9.62987578E-07  1.46891486E-05 -8.94094441E-01
  4.10189048E+00 -3.05014907E-06 -8.94091674E-01 -4.10189195E+00 -3.04151457E-06
  3.83827663E+00  4.07554254E+00  1.37824562E-05  3.83827935E+00 -4.07554080E+00
  1.37749883E-05  6.15721815E+00  1.65214108E-06  2.19395663E-05
Force Field                                I                0
Int Atom Types                             I   N=          13
           0           0           0           0           0           0
           0           0           0           0           0           0
           0
MM charges                                 R   N=          13
  0.00000000E+00  0.00000000E+00  0.00000000E+00  0.00000000E+00  0.00000000E+00
  0.00000000E+00  0.00000000E+00  0.00000000E+00  0.00000000E+00  0.00000000E+00
  0.00000000E+00  0.00000000E+00  0.00000000E+00
Integer atomic weights                     I   N=          13
          14          14          12          12          12          12
          12          12           1           1           1           1
           1
Real atomic weights                        R   N=          13
  1.40030740E+01  1.40030740E+01  1.20000000E+01  1.20000000E+01  1.20000000E+01
  1.20000000E+01  1.20000000E+01  1.20000000E+01  1.00782504E+00  1.00782504E+00
  1.00782504E+00  1.00782504E+00  1.00782504E+00
Atom fragment info                         I   N=          13
           0           0           0           0           0           0
           0           0           0           0           0           0
           0
Atom residue num                           I   N=          13
           0           0           0           0           0           0
           0           0           0           0           0           0
           0
Nuclear spins                              I   N=          13
           2           2           0           0           0           0
           0           0           1           1           1           1
           1
Nuclear ZEff                               R   N=          13
 -4.55000000E+00 -4.55000000E+00 -3.60000000E+00 -3.60000000E+00 -3.60000000E+00
 -3.60000000E+00 -3.60000000E+00 -3.60000000E+00 -1.00000000E+00 -1.00000000E+00
 -1.00000000E+00 -1.00000000E+00 -1.00000000E+00
Nuclear QMom                               R   N=          13
  2.04400000E+00  2.04400000E+00  0.00000000E+00  0.00000000E+00  0.00000000E+00
  0.00000000E+00  0.00000000E+00  0.00000000E+00  0.00000000E+00  0.00000000E+00
  0.00000000E+00  0.00000000E+00  0.00000000E+00
Nuclear GFac                               R   N=          13
  4.03761000E-01  4.03761000E-01  0.00000000E+00  0.00000000E+00  0.00000000E+00
  0.00000000E+00  0.00000000E+00  0.00000000E+00  2.79284600E+00  2.79284600E+00
  2.79284600E+00  2.79284600E+00  2.79284600E+00
MicOpt                                     I   N=          13
          -1          -1          -1          -1          -1          -1
          -1          -1          -1          -1          -1          -1
          -1
Number of contracted shells                I               42
Number of primitive shells                 I              108
Pure/Cartesian d shells                    I                1
Pure/Cartesian f shells                    I                0
Highest angular momentum                   I                2
Largest degree of contraction              I                6
Shell types                                I   N=          42
           0          -1          -1           2           0          -1
          -1           2           0          -1          -1           2
           0          -1          -1           2           0          -1
          -1           2           0          -1          -1           2
           0          -1          -1           2           0          -1
          -1           2           0           0           0           0
           0           0           0           0           0           0
Number of primitives per shell             I   N=          42
           6           3           1           1           6           3
           1           1           6           3           1           1
           6           3           1           1           6           3
           1           1           6           3           1           1
           6           3           1           1           6           3
           1           1           3           1           3           1
           3           1           3           1           3           1
Shell to atom map                          I   N=          42
           1           1           1           1           2           2
           2           2           3           3           3           3
           4           4           4           4           5           5
           5           5           6           6           6           6
           7           7           7           7           8           8
           8           8           9           9          10          10
          11          11          12          12          13          13
Primitive exponents                        R   N=         108
  4.17351146E+03  6.27457911E+02  1.42902093E+02  4.02343293E+01  1.28202129E+01
  4.39043701E+00  1.16263619E+01  2.71627981E+00  7.72218397E-01  2.12031498E-01
  8.00000000E-01  4.17351146E+03  6.27457911E+02  1.42902093E+02  4.02343293E+01
  1.28202129E+01  4.39043701E+00  1.16263619E+01  2.71627981E+00  7.72218397E-01
  2.12031498E-01  8.00000000E-01  3.04752488E+03  4.57369518E+02  1.03948685E+02
  2.92101553E+01  9.28666296E+00  3.16392696E+00  7.86827235E+00  1.88128854E+00
  5.44249258E-01  1.68714478E-01  8.00000000E-01  3.04752488E+03  4.57369518E+02
  1.03948685E+02  2.92101553E+01  9.28666296E+00  3.16392696E+00  7.86827235E+00
  1.88128854E+00  5.44249258E-01  1.68714478E-01  8.00000000E-01  3.04752488E+03
  4.57369518E+02  1.03948685E+02  2.92101553E+01  9.28666296E+00  3.16392696E+00
  7.86827235E+00  1.88128854E+00  5.44249258E-01  1.68714478E-01  8.00000000E-01
  3.04752488E+03  4.57369518E+02  1.03948685E+02  2.92101553E+01  9.28666296E+00
  3.16392696E+00  7.86827235E+00  1.88128854E+00  5.44249258E-01  1.68714478E-01
  8.00000000E-01  3.04752488E+03  4.57369518E+02  1.03948685E+02  2.92101553E+01
  9.28666296E+00  3.16392696E+00  7.86827235E+00  1.88128854E+00  5.44249258E-01
  1.68714478E-01  8.00000000E-01  3.04752488E+03  4.57369518E+02  1.03948685E+02
  2.92101553E+01  9.28666296E+00  3.16392696E+00  7.86827235E+00  1.88128854E+00
  5.44249258E-01  1.68714478E-01  8.00000000E-01  1.87311370E+01  2.82539436E+00
  6.40121692E-01  1.61277759E-01  1.87311370E+01  2.82539436E+00  6.40121692E-01
  1.61277759E-01  1.87311370E+01  2.82539436E+00  6.40121692E-01  1.61277759E-01
  1.87311370E+01  2.82539436E+00  6.40121692E-01  1.61277759E-01  1.87311370E+01
  2.82539436E+00  6.40121692E-01  1.61277759E-01
Contraction coefficients                   R   N=         108
  1.83477216E-03  1.39946270E-02  6.85865518E-02  2.32240873E-01  4.69069948E-01
  3.60455199E-01 -1.14961182E-01 -1.69117479E-01  1.14585195E+00  1.00000000E+00
  1.00000000E+00  1.83477216E-03  1.39946270E-02  6.85865518E-02  2.32240873E-01
  4.69069948E-01  3.60455199E-01 -1.14961182E-01 -1.69117479E-01  1.14585195E+00
  1.00000000E+00  1.00000000E+00  1.83473713E-03  1.40373228E-02  6.88426223E-02
  2.32184443E-01  4.67941348E-01  3.62311985E-01 -1.19332420E-01 -1.60854152E-01
  1.14345644E+00  1.00000000E+00  1.00000000E+00  1.83473713E-03  1.40373228E-02
  6.88426223E-02  2.32184443E-01  4.67941348E-01  3.62311985E-01 -1.19332420E-01
 -1.60854152E-01  1.14345644E+00  1.00000000E+00  1.00000000E+00  1.83473713E-03
  1.40373228E-02  6.88426223E-02  2.32184443E-01  4.67941348E-01  3.62311985E-01
 -1.19332420E-01 -1.60854152E-01  1.14345644E+00  1.00000000E+00  1.00000000E+00
  1.83473713E-03  1.40373228E-02  6.88426223E-02  2.32184443E-01  4.67941348E-01
  3.62311985E-01 -1.19332420E-01 -1.60854152E-01  1.14345644E+00  1.00000000E+00
  1.00000000E+00  1.83473713E-03  1.40373228E-02  6.88426223E-02  2.32184443E-01
  4.67941348E-01  3.62311985E-01 -1.19332420E-01 -1.60854152E-01  1.14345644E+00
  1.00000000E+00  1.00000000E+00  1.83473713E-03  1.40373228E-02  6.88426223E-02
  2.32184443E-01  4.67941348E-01  3.62311985E-01 -1.19332420E-01 -1.60854152E-01
  1.14345644E+00  1.00000000E+00  1.00000000E+00  3.34946043E-02  2.34726953E-01
  8.13757326E-01  1.00000000E+00  3.34946043E-02  2.34726953E-01  8.13757326E-01
  1.00000000E+00  3.34946043E-02  2.34726953E-01  8.13757326E-01  1.00000000E+00
  3.34946043E-02  2.34726953E-01  8.13757326E-01  1.00000000E+00  3.34946043E-02
  2.34726953E-01  8.13757326E-01  1.00000000E+00
P(S=P) Contraction coefficients            R   N=         108
  0.00000000E+00  0.00000000E+00  0.00000000E+00  0.00000000E+00  0.00000000E+00
  0.00000000E+00  6.75797439E-02  3.23907296E-01  7.40895140E-01  1.00000000E+00
  0.00000000E+00  0.00000000E+00  0.00000000E+00  0.00000000E+00  0.00000000E+00
  0.00000000E+00  0.00000000E+00  6.75797439E-02  3.23907296E-01  7.40895140E-01
  1.00000000E+00  0.00000000E+00  0.00000000E+00  0.00000000E+00  0.00000000E+00
  0.00000000E+00  0.00000000E+00  0.00000000E+00  6.89990666E-02  3.16423961E-01
  7.44308291E-01  1.00000000E+00  0.00000000E+00  0.00000000E+00  0.00000000E+00
  0.00000000E+00  0.00000000E+00  0.00000000E+00  0.00000000E+00  6.89990666E-02
  3.16423961E-01  7.44308291E-01  1.00000000E+00  0.00000000E+00  0.00000000E+00
  0.00000000E+00  0.00000000E+00  0.00000000E+00  0.00000000E+00  0.00000000E+00
  6.89990666E-02  3.16423961E-01  7.44308291E-01  1.00000000E+00  0.00000000E+00
  0.00000000E+00  0.00000000E+00  0.00000000E+00  0.00000000E+00  0.00000000E+00
  0.00000000E+00  6.89990666E-02  3.16423961E-01  7.44308291E-01  1.00000000E+00
  0.00000000E+00  0.00000000E+00  0.00000000E+00  0.00000000E+00  0.00000000E+00
  0.00000000E+00  0.00000000E+00  6.89990666E-02  3.16423961E-01  7.44308291E-01
  1.00000000E+00  0.00000000E+00  0.00000000E+00  0.00000000E+00  0.00000000E+00
  0.00000000E+00  0.00000000E+00  0.00000000E+00  6.89990666E-02  3.16423961E-01
  7.44308291E-01  1.00000000E+00  0.00000000E+00  0.00000000E+00  0.00000000E+00
  0.00000000E+00  0.00000000E+00  0.00000000E+00  0.00000000E+00  0.00000000E+00
  0.00000000E+00  0.00000000E+00  0.00000000E+00  0.00000000E+00  0.00000000E+00
  0.00000000E+00  0.00000000E+00  0.00000000E+00  0.00000000E+00  0.00000000E+00
  0.00000000E+00  0.00000000E+00  0.00000000E+00
Coordinates of each shell                  R   N=         126
 -3.66182715E+00 -1.74802771E-06 -1.27517571E-05 -3.66182715E+00 -1.74802771E-06
 -1.27517571E-05 -3.66182715E+00 -1.74802771E-06 -1.27517571E-05 -3.66182715E+00
 -1.74802771E-06 -1.27517571E-05 -5.80453429E+00  1.04214661E-06 -2.16470366E-05
 -5.80453429E+00  1.04214661E-06 -2.16470366E-05 -5.80453429E+00  1.04214661E-06
 -2.16470366E-05 -5.80453429E+00  1.04214661E-06 -2.16470366E-05 -1.03154148E+00
 -7.75302784E-07 -3.39776617E-06 -1.03154148E+00 -7.75302784E-07 -3.39776617E-06
 -1.03154148E+00 -7.75302784E-07 -3.39776617E-06 -1.03154148E+00 -7.75302784E-07
 -3.39776617E-06  1.76282219E-01  2.35277572E+00  7.29675059E-07  1.76282219E-01
  2.35277572E+00  7.29675059E-07  1.76282219E-01  2.35277572E+00  7.29675059E-07
  1.76282219E-01  2.35277572E+00  7.29675059E-07  1.76283798E-01 -2.35277646E+00
  7.33140394E-07  1.76283798E-01 -2.35277646E+00  7.33140394E-07  1.76283798E-01
 -2.35277646E+00  7.33140394E-07  1.76283798E-01 -2.35277646E+00  7.33140394E-07
  2.80529832E+00  2.30408343E+00  1.00745977E-05  2.80529832E+00  2.30408343E+00
  1.00745977E-05  2.80529832E+00  2.30408343E+00  1.00745977E-05  2.80529832E+00
  2.30408343E+00  1.00745977E-05  2.80529987E+00 -2.30408237E+00  1.00689058E-05
  2.80529987E+00 -2.30408237E+00  1.00689058E-05  2.80529987E+00 -2.30408237E+00
  1.00689058E-05  2.80529987E+00 -2.30408237E+00  1.00689058E-05  4.10486762E+00
  9.62987578E-07  1.46891486E-05  4.10486762E+00  9.62987578E-07  1.46891486E-05
  4.10486762E+00  9.62987578E-07  1.46891486E-05  4.10486762E+00  9.62987578E-07
  1.46891486E-05 -8.94094441E-01  4.10189048E+00 -3.05014907E-06 -8.94094441E-01
  4.10189048E+00 -3.05014907E-06 -8.94091674E-01 -4.10189195E+00 -3.04151457E-06
 -8.94091674E-01 -4.10189195E+00 -3.04151457E-06  3.83827663E+00  4.07554254E+00
  1.37824562E-05  3.83827663E+00  4.07554254E+00  1.37824562E-05  3.83827935E+00
 -4.07554080E+00  1.37749883E-05  3.83827935E+00 -4.07554080E+00  1.37749883E-05
  6.15721815E+00  1.65214108E-06  2.19395663E-05  6.15721815E+00  1.65214108E-06
  2.19395663E-05
Constraint Structure                       R   N=          39
 -3.66182715E+00 -1.74802771E-06 -1.27517571E-05 -5.80453429E+00  1.04214661E-06
 -2.16470366E-05 -1.03154148E+00 -7.75302784E-07 -3.39776617E-06  1.76282219E-01
  2.35277572E+00  7.29675059E-07  1.76283798E-01 -2.35277646E+00  7.33140394E-07
  2.80529832E+00  2.30408343E+00  1.00745977E-05  2.80529987E+00 -2.30408237E+00
  1.00689058E-05  4.10486762E+00  9.62987578E-07  1.46891486E-05 -8.94094441E-01
  4.10189048E+00 -3.05014907E-06 -8.94091674E-01 -4.10189195E+00 -3.04151457E-06
  3.83827663E+00  4.07554254E+00  1.37824562E-05  3.83827935E+00 -4.07554080E+00
  1.37749883E-05  6.15721815E+00  1.65214108E-06  2.19395663E-05
Num ILSW                                   I              100
ILSW                                       I   N=         100
           0           1           0           0           2           0
           0           0           0           0           0          -1
           0           0           0           0           0           0
           0           0           0           0           1           0
           1           0           0           0           0           0
           0           0      100000           0          -1           0
           0           0           0           0           0           0
           0           0           0           1           1           0
           0           0           1           0           0           0
           0           0           4          40           0           0
           0           0           0           0           0           0
           0           0           0           0           0           0
           0           0           0           0           0           0
           0           0           0           0           0           0
           0           0           0           0           0           0
           0           0           0           0           0           0
           0           0           0           0
Num RLSW                                   I               40
RLSW                                       R   N=          40
  1.00000000E+00  1.00000000E+00  1.00000000E+00  1.00000000E+00  1.00000000E+00
  0.00000000E+00  0.00000000E+00  1.00000000E+00  0.00000000E+00  0.00000000E+00
  0.00000000E+00  0.00000000E+00  1.00000000E+00  0.00000000E+00  0.00000000E+00
  0.00000000E+00  0.00000000E+00  1.00000000E+00  0.00000000E+00  0.00000000E+00
  0.00000000E+00  0.00000000E+00  1.00000000E+00  0.00000000E+00  0.00000000E+00
  0.00000000E+00  0.00000000E+00  1.00000000E+00  0.00000000E+00  0.00000000E+00
  0.00000000E+00  0.00000000E+00  0.00000000E+00  0.00000000E+00  0.00000000E+00
  0.00000000E+00  0.00000000E+00  0.00000000E+00  1.00000000E+00  1.00000000E+00
MxBond                                     I                3
NBond                                      I   N=          13
           2           1           3           3           3           3
           3           3           1           1           1           1
           1
IBond                                      I   N=          39
           2           3           0           1           0           0
           1           4           5           3           6           9
           3           7          10           4           8          11
           5           8          12           6           7          13
           4           0           0           5           0           0
           6           0           0           7           0           0
           8           0           0
RBond                                      R   N=          39
  3.00000000E+00  1.00000000E+00  0.00000000E+00  3.00000000E+00  0.00000000E+00
  0.00000000E+00  1.00000000E+00  1.50000000E+00  1.50000000E+00  1.50000000E+00
  1.50000000E+00  1.00000000E+00  1.50000000E+00  1.50000000E+00  1.00000000E+00
  1.50000000E+00  1.50000000E+00  1.00000000E+00  1.50000000E+00  1.50000000E+00
  1.00000000E+00  1.50000000E+00  1.50000000E+00  1.00000000E+00  1.00000000E+00
  0.00000000E+00  0.00000000E+00  1.00000000E+00  0.00000000E+00  0.00000000E+00
  1.00000000E+00  0.00000000E+00  0.00000000E+00  1.00000000E+00  0.00000000E+00
  0.00000000E+00  1.00000000E+00  0.00000000E+00  0.00000000E+00
Virial Ratio                               R      2.003726725847831E+00
SCF Energy                                 R     -3.388132636603141E+02
MP2 Energy                                 R     -3.398896211953600E+02
Total Energy                               R     -3.398896211953600E+02
Post-SCF wavefunction norm                 R      1.672713607038123E+00
RMS Force                                  R      1.628707877264162E-07
RMS Density                                R      4.187957800628319E-10
External E-field                           R   N=          35
  0.00000000E+00  0.00000000E+00  0.00000000E+00  0.00000000E+00  0.00000000E+00
  0.00000000E+00  0.00000000E+00  0.00000000E+00  0.00000000E+00  0.00000000E+00
  0.00000000E+00  0.00000000E+00  0.00000000E+00  0.00000000E+00  0.00000000E+00
  0.00000000E+00  0.00000000E+00  0.00000000E+00  0.00000000E+00  0.00000000E+00
  0.00000000E+00  0.00000000E+00  0.00000000E+00  0.00000000E+00  0.00000000E+00
  0.00000000E+00  0.00000000E+00  0.00000000E+00  0.00000000E+00  0.00000000E+00
  0.00000000E+00  0.00000000E+00  0.00000000E+00  0.00000000E+00  0.00000000E+00
IOpCl                                      I                0
IROHF                                      I                0
Alpha Orbital Energies                     R   N=         130
 -1.58463762E+01 -1.58253045E+01 -1.13668750E+01 -1.13103208E+01 -1.13102932E+01
 -1.12925505E+01 -1.12788012E+01 -1.12787462E+01 -1.56434406E+00 -1.24633552E+00
 -1.14132103E+00 -1.07413680E+00 -9.84033116E-01 -8.90036855E-01 -8.25055993E-01
 -7.68513169E-01 -7.34009811E-01 -7.31850357E-01 -7.27421458E-01 -6.55383541E-01
 -6.53188984E-01 -6.40212541E-01 -5.62603194E-01 -5.50808926E-01 -5.46498271E-01
 -3.95532952E-01 -3.82508787E-01  1.83812419E-03  4.90375921E-02  9.98089752E-02
  1.47454581E-01  2.05067266E-01  2.70937437E-01  2.78307746E-01  3.14453879E-01
  3.18868798E-01  3.23431568E-01  3.37739539E-01  3.88718510E-01  4.32263762E-01
  4.62113377E-01  4.92631527E-01  5.01207425E-01  6.02130319E-01  6.27015216E-01
  6.69428359E-01  6.94409551E-01  7.35459733E-01  7.51782879E-01  7.56427735E-01
  7.75209538E-01  7.83702459E-01  7.90904365E-01  8.01483609E-01  8.03060890E-01
  8.28774132E-01  8.49873569E-01  8.66730186E-01  8.88351748E-01  9.00671392E-01
  9.55588816E-01  9.82154325E-01  1.02099152E+00  1.06481574E+00  1.07522508E+00
  1.09329630E+00  1.09337953E+00  1.10676100E+00  1.11992890E+00  1.16019952E+00
  1.16468493E+00  1.20993908E+00  1.22106893E+00  1.32368830E+00  1.32981627E+00
  1.38225582E+00  1.39793986E+00  1.43765433E+00  1.50385598E+00  1.54795786E+00
  1.61084964E+00  1.61297403E+00  1.64944212E+00  1.65938526E+00  1.66096350E+00
  1.69161601E+00  1.69964898E+00  1.71718289E+00  1.73597093E+00  1.93137965E+00
  2.03991287E+00  2.04234021E+00  2.05350729E+00  2.10397205E+00  2.12245710E+00
  2.15885342E+00  2.17463576E+00  2.22215882E+00  2.23990088E+00  2.31404323E+00
  2.36068239E+00  2.36424304E+00  2.42228892E+00  2.42237940E+00  2.42283723E+00
  2.54242828E+00  2.58082258E+00  2.59027797E+00  2.74899164E+00  2.75140009E+00
  2.81656657E+00  2.88057677E+00  2.93549040E+00  2.97069602E+00  2.99310155E+00
  3.02881485E+00  3.05404000E+00  3.06405892E+00  3.20981196E+00  3.45787667E+00
  3.48789359E+00  3.69784884E+00  3.83117985E+00  4.38341267E+00  4.46884627E+00
  4.48912605E+00  4.52406375E+00  4.69640372E+00  4.81165706E+00  5.11937498E+00
Alpha MO coefficients                      R   N=       16900
  9.92983421E-01  2.44775173E-02 -6.25137704E-04  2.03428688E-09 -2.91599972E-09
 -1.98868882E-03 -9.21392589E-04 -2.20500149E-09 -2.97566667E-09 -2.28912885E-03
 -3.68304351E-03 -3.74513680E-03 -1.30738928E-09  6.65009519E-09 -1.40778743E-13
  6.34691093E-02  1.32395961E-03 -5.95762744E-05  3.82179933E-10 -3.57422633E-10
  3.23513514E-04  5.89124357E-05  9.98263155E-10 -2.57813841E-11 -5.32977191E-04
 -2.70787379E-04 -2.66957597E-04  9.61892626E-10 -1.45941003E-09  1.88395421E-14
  4.12507482E-06  1.75524687E-04  1.48698060E-04 -2.14011835E-11  4.84564051E-10
  6.82621241E-04 -1.83459820E-03  3.33513990E-09 -6.69273521E-09 -4.10565833E-04
 -7.86193652E-05 -7.78541770E-05 -4.30548911E-10 -1.22466955E-09 -9.58143466E-15
 -7.48298750E-06 -6.51703042E-05  2.59315330E-05  9.14104942E-06  8.59616187E-11
  3.42708506E-04  2.49442063E-04 -5.21563926E-04  9.70327264E-10 -3.78488735E-05
  6.82478045E-05 -3.77736657E-05 -2.63598942E-05  2.06622892E-12 -1.09377968E-10
 -7.48303907E-06 -6.51706795E-05  2.59313673E-05 -9.14102872E-06  8.60490910E-11
  3.42714816E-04  2.49440892E-04  5.21566646E-04  9.69197238E-10 -3.78486637E-05
  6.82476793E-05 -3.77737315E-05  2.63597215E-05  1.99837451E-12  1.09205477E-10
 -9.68042005E-06 -3.75299477E-05  2.24506184E-05  1.50534524E-05  7.59335307E-11
 -7.70605657E-05 -7.91874716E-05 -2.67436077E-05 -2.86735045E-10  4.55464302E-06
 -9.91994314E-06 -2.92914235E-05 -6.39207455E-06  1.38112359E-10 -2.78929046E-11
 -9.68039375E-06 -3.75297969E-05  2.24507443E-05 -1.50533628E-05  7.58119727E-11
 -7.70619853E-05 -7.91869813E-05  2.67424289E-05 -2.86679946E-10  4.55453833E-06
 -9.91989922E-06 -2.92913688E-05  6.39207297E-06  1.38037126E-10  2.78137252E-11
 -3.75452912E-06 -1.42477255E-05  1.42709809E-05 -4.71636677E-11  4.44195653E-11
  5.89274542E-05 -1.59570115E-05 -2.10621730E-10 -3.47123965E-11 -4.95760169E-06
  3.15880608E-07 -1.33429068E-05  1.42812794E-11  3.02915585E-11  1.96115083E-14
  1.87212955E-06  2.56064843E-04  1.87211588E-06  2.56064979E-04  4.19708623E-06
  6.26502330E-05  4.19702267E-06  6.26499176E-05 -4.30712550E-06  1.92717197E-05
 -6.41638786E-02 -1.74180360E-03  6.81239731E-04 -1.20006650E-09  2.99816743E-09
  9.21786147E-04  2.50173491E-03 -2.93349400E-09  9.73902281E-09 -1.94845443E-03
  1.15532288E-04  1.04021227E-04  2.43096070E-09 -9.62779564E-09 -1.47949221E-14
  9.93310046E-01  2.35495917E-02  3.38160360E-03 -4.80236196E-09  1.42126460E-08
  1.36275597E-03  2.50860998E-04 -3.40388789E-10  1.21491816E-09 -1.41763777E-03
 -3.57780769E-03 -3.46120542E-03 -3.22372192E-09  9.82990855E-09  2.31438569E-13
  2.75379346E-05 -2.83328591E-05 -2.56912561E-04 -5.33439308E-10 -7.71189872E-10
 -2.63365230E-03  5.77147428E-04  5.89837564E-09  1.73251532E-09  5.63089870E-04
 -3.11561343E-05  4.56673768E-05  1.00310463E-09  1.98869099E-09  3.75116369E-14
 -3.96723615E-06 -9.41939935E-07 -4.50709610E-05 -7.25506808E-06 -1.48271545E-10
  8.58237182E-04  3.39199596E-04 -4.25326425E-04  1.30420710E-09  3.46607849E-06
 -3.49551826E-05  1.13900002E-05  2.98983407E-05 -3.10991321E-11  7.39970146E-11
 -3.96732559E-06 -9.42487598E-07 -4.50714022E-05  7.25539128E-06 -1.48354328E-10
  8.58247827E-04  3.39200063E-04  4.25330814E-04  1.30255926E-09  3.46618427E-06
 -3.49549213E-05  1.13898360E-05 -2.98984271E-05 -3.12025088E-11 -7.40071434E-11
  1.31729534E-05  6.61150906E-05  5.61730891E-07 -9.62113499E-06 -8.81098823E-12
 -8.88608238E-04  3.56253015E-04  4.44663957E-04  1.26547716E-09 -5.51761902E-06
  5.17939369E-06  2.69987520E-05  6.39581213E-06 -1.29922412E-10  1.94181574E-11
  1.31730228E-05  6.61154656E-05  5.61861936E-07  9.62124310E-06 -8.79426973E-12
 -8.88612008E-04  3.56255422E-04 -4.44665511E-04  1.26349702E-09 -5.51770318E-06
  5.17945052E-06  2.69988954E-05 -6.39576248E-06 -1.29804092E-10 -1.96237534E-11
 -5.15819790E-06 -3.22357984E-05 -8.47050337E-06 -1.10927322E-10 -3.82164692E-11
  7.06980993E-04 -4.31939289E-04 -1.42658405E-10 -1.52154931E-09 -7.13361851E-07
  7.08501976E-06 -4.74398098E-06  2.50636617E-11  1.59011202E-11 -2.19403117E-14
  3.47078079E-05  1.58554339E-04  3.47079488E-05  1.58554777E-04 -1.52245540E-05
 -1.55201049E-04 -1.52246311E-05 -1.55201711E-04  1.54143104E-05  8.79108611E-05
 -2.41343751E-04  5.95561786E-04  4.26419580E-04 -9.92710575E-10  1.82728109E-09
  2.22459050E-03 -1.11459272E-02  9.51190654E-09 -4.32734835E-08 -1.57537172E-03
 -2.82993695E-06  1.46794967E-04 -1.17087229E-09 -6.79435299E-09  1.21428824E-13
  1.28218093E-04  6.94237299E-04  1.83811285E-04 -8.97886345E-10  1.07106859E-09
 -1.04144123E-02 -4.19292700E-03  7.05162373E-09 -1.84202274E-08  3.26037764E-04
  1.31907800E-04  1.12875163E-04 -8.15414960E-10  1.15609083E-09 -2.39286209E-14
  9.95610467E-01  2.75773332E-02 -2.18377494E-03 -9.91349553E-11 -7.76913227E-09
 -7.61084076E-03 -8.00910908E-03 -2.10143349E-08 -2.67247575E-08 -7.51995245E-04
 -1.40649316E-03 -2.22450222E-03  1.98481997E-10  5.92729489E-09 -6.83950710E-13
  9.73578492E-03 -5.89435609E-05  3.28097565E-05  1.39228419E-04  9.91383506E-11
  5.75959446E-03  1.06169821E-03 -3.23366732E-03  3.49907238E-09 -4.02696226E-04
 -2.59507822E-04 -2.08552782E-04 -1.55596679E-04 -7.56361625E-10 -4.66821631E-10
  9.73578332E-03 -5.89423189E-05  3.28107726E-05 -1.39228732E-04  9.97749306E-11
  5.75956615E-03  1.06169764E-03  3.23365561E-03  3.49172251E-09 -4.02696926E-04
 -2.59507633E-04 -2.08552554E-04  1.55596900E-04 -7.56677902E-10  4.67021373E-10
  2.41953746E-05 -1.55855015E-04  4.17621224E-05  4.66814096E-05  1.47341111E-10
 -2.23826249E-03  3.98239709E-04  5.02147168E-04  1.54047091E-09  1.40335236E-04
  4.72139330E-05 -4.92627544E-05  5.39183609E-05  7.55232632E-10  1.80738871E-10
  2.41951852E-05 -1.55855763E-04  4.17617105E-05 -4.66816811E-05  1.47341734E-10
 -2.23825481E-03  3.98237048E-04 -5.02141564E-04  1.53529086E-09  1.40335596E-04
  4.72137518E-05 -4.92629987E-05 -5.39183299E-05  7.55050878E-10 -1.81581908E-10
 -1.78629311E-04 -2.18766367E-04  8.87759709E-05  2.75442524E-10  3.17683500E-10
  1.62099984E-03 -1.21115851E-03  4.42047926E-10 -4.36007974E-09 -5.04888631E-06
 -2.36203718E-06 -1.07792635E-04 -8.08823404E-11  4.20328832E-10 -9.92858242E-14
  4.00378389E-05  8.17028435E-04  4.00378097E-05  8.17026712E-04 -1.22179326E-07
  1.33702727E-04 -1.21925461E-07  1.33704330E-04  3.78253719E-05  3.93754321E-04
  4.95287232E-09 -2.46740670E-08  4.17945878E-09 -2.62859464E-06 -1.78826605E-13
  1.15040887E-07 -3.47548336E-07 -4.41664305E-05 -7.30837555E-13  7.12389226E-08
  1.84459848E-08 -1.22294407E-08  6.97083061E-05  2.00633376E-13  2.36532735E-10
  4.17933504E-10 -4.11648312E-09 -3.14400745E-08  1.02547942E-05 -1.50853074E-13
 -3.41189359E-07 -1.52944657E-07 -3.10420733E-05 -9.72138949E-13 -2.28764030E-08
  7.34837997E-09  1.04739271E-08  9.59464108E-06 -3.13761844E-13  5.35555596E-11
 -3.18866980E-06 -1.27213331E-07 -3.12216224E-08 -2.70952374E-04  1.26559995E-13
  2.33458112E-06  5.21600902E-07  2.05529320E-03  1.35243187E-12 -1.16996891E-07
 -1.85388541E-07 -3.94232202E-08 -2.11840911E-04 -4.24925488E-13 -6.90648343E-10
  7.04070490E-01  1.95969255E-02 -3.83987126E-05 -5.01046157E-04 -1.10314348E-10
 -9.21514199E-03 -5.88503773E-04  1.48269311E-03 -2.19952033E-09 -1.13054622E-03
 -1.21608099E-03 -1.66965417E-03  4.71415502E-05  2.19826567E-09  1.52864113E-10
 -7.03761936E-01 -1.95883306E-02  3.83725618E-05 -5.00841289E-04  1.12418330E-10
  9.20959043E-03  5.87821382E-04  1.48133299E-03  2.18799061E-09  1.13008571E-03
  1.21562116E-03  1.66892688E-03  4.71046356E-05 -2.19584020E-09  1.53511918E-10
  1.35208386E-02  2.65568247E-04  7.79583763E-05  2.16851276E-05  2.78192208E-10