
    -----------------------------------------------------------------------
          Psi4: An Open-Source Ab Initio Electronic Structure Package
                               Psi4 1.3.2 release

                         Git: Rev {HEAD} ecbda83 


    R. M. Parrish, L. A. Burns, D. G. A. Smith, A. C. Simmonett,
    A. E. DePrince III, E. G. Hohenstein, U. Bozkaya, A. Yu. Sokolov,
    R. Di Remigio, R. M. Richard, J. F. Gonthier, A. M. James,
    H. R. McAlexander, A. Kumar, M. Saitow, X. Wang, B. P. Pritchard,
    P. Verma, H. F. Schaefer III, K. Patkowski, R. A. King, E. F. Valeev,
    F. A. Evangelista, J. M. Turney, T. D. Crawford, and C. D. Sherrill,
    J. Chem. Theory Comput. 13(7) pp 3185--3197 (2017).
    (doi: 10.1021/acs.jctc.7b00174)


                         Additional Contributions by
    P. Kraus, H. Kruse, M. H. Lechner, M. C. Schieber, R. A. Shaw,
    A. Alenaizan, R. Galvelis, Z. L. Glick, S. Lehtola, and J. P. Misiewicz

    -----------------------------------------------------------------------


    Psi4 started on: Tuesday, 02 February 2021 03:58AM

    Process ID: 10821
    Host:       node37.bme.utexas.edu
    PSIDATADIR: /home/xy3866/psi4conda/share/psi4
    Memory:     500.0 MiB
    Threads:    8
    
  ==> Input File <==

--------------------------------------------------------------------------
#psi4
#
memory 32 gb

molecule  {
0 1
  O       -0.7670850     1.7208920    -0.4354900
  N        1.6863020     0.4747470     0.1388600
  N       -1.9291830    -0.1915810     0.0453950
  N        0.7639310    -1.5088640    -0.3477740
  C        0.4938923    -0.1751832    -0.0762601
  C       -0.7756170     0.5047820    -0.1623390
  C        2.7114570    -0.4276410     0.0208990
  C        1.8666300     1.8964630     0.4257140
  C       -3.1904980     0.5035560    -0.1598940
  C       -2.0503370    -1.5461500     0.5645390
  C        2.1210610    -1.6392390    -0.2794470
  H        3.7418240    -0.1353950     0.1686580
  H        1.1394670     2.2188990     1.1681400
  H        2.8785810     2.0278530     0.8121890
  H        1.7220340     2.4842350    -0.4794890
  H       -3.8467550    -0.1153850    -0.7799180
  H       -2.9915450     1.4520350    -0.6543500
  H       -3.6876690     0.6913720     0.7990550
  H       -1.0742680    -1.9474190     0.8155770
  H       -2.5092790    -2.1983750    -0.1864030
  H       -2.6938370    -1.5270200     1.4518100
  H        2.6051200    -2.5920870    -0.4498700
units angstrom
no_reorient  #important for SAPT in psi4, default
symmetry c1  #important for SAPT in psi4, default
}

set PROPERTIES_ORIGIN ["COM"]
properties('MP2/aug-cc-pvtz', properties = ['dipole'])
--------------------------------------------------------------------------

  Memory set to  29.802 GiB by Python driver.
    SCF Algorithm Type (re)set to DF.

*** tstart() called on node37.bme.utexas.edu
*** at Tue Feb  2 03:58:42 2021

   => Loading Basis Set <=

    Name: AUG-CC-PVTZ
    Role: ORBITAL
    Keyword: BASIS
    atoms 1     entry O          line   327 file /home/xy3866/psi4conda/share/psi4/basis/aug-cc-pvtz.gbs 
    atoms 2-4   entry N          line   281 file /home/xy3866/psi4conda/share/psi4/basis/aug-cc-pvtz.gbs 
    atoms 5-11  entry C          line   235 file /home/xy3866/psi4conda/share/psi4/basis/aug-cc-pvtz.gbs 
    atoms 12-22 entry H          line    36 file /home/xy3866/psi4conda/share/psi4/basis/aug-cc-pvtz.gbs 


         ---------------------------------------------------------
                                   SCF
               by Justin Turney, Rob Parrish, Andy Simmonett
                          and Daniel G. A. Smith
                              RHF Reference
                        8 Threads,  30517 MiB Core
         ---------------------------------------------------------

  ==> Geometry <==

    Molecular point group: c1
    Full point group: C1

    Geometry (in Angstrom), charge = 0, multiplicity = 1:

       Center              X                  Y                   Z               Mass       
    ------------   -----------------  -----------------  -----------------  -----------------
         O           -0.795778342058     1.720091463195    -0.418698623469    15.994914619570
         N            1.657608657942     0.473946463195     0.155651376531    14.003074004430
         N           -1.957876342058    -0.192381536805     0.062186376531    14.003074004430
         N            0.735237657942    -1.509664536805    -0.330982623469    14.003074004430
         C            0.465198957942    -0.175983736805    -0.059468723469    12.000000000000
         C           -0.804310342058     0.503981463195    -0.145547623469    12.000000000000
         C            2.682763657942    -0.428441536805     0.037690376531    12.000000000000
         C            1.837936657942     1.895662463195     0.442505376531    12.000000000000
         C           -3.219191342058     0.502755463195    -0.143102623469    12.000000000000
         C           -2.079030342058    -1.546950536805     0.581330376531    12.000000000000
         C            2.092367657942    -1.640039536805    -0.262655623469    12.000000000000
         H            3.713130657942    -0.136195536805     0.185449376531     1.007825032230
         H            1.110773657942     2.218098463195     1.184931376531     1.007825032230
         H            2.849887657942     2.027052463195     0.828980376531     1.007825032230
         H            1.693340657942     2.483434463195    -0.462697623469     1.007825032230
         H           -3.875448342058    -0.116185536805    -0.763126623469     1.007825032230
         H           -3.020238342058     1.451234463195    -0.637558623469     1.007825032230
         H           -3.716362342058     0.690571463195     0.815846376531     1.007825032230
         H           -1.102961342058    -1.948219536805     0.832368376531     1.007825032230
         H           -2.537972342058    -2.199175536805    -0.169611623469     1.007825032230
         H           -2.722530342058    -1.527820536805     1.468601376531     1.007825032230
         H            2.576426657942    -2.592887536805    -0.433078623469     1.007825032230

  Running in c1 symmetry.

  Rotational constants: A =      0.06722  B =      0.02896  C =      0.02124 [cm^-1]
  Rotational constants: A =   2015.28423  B =    868.08804  C =    636.76046 [MHz]
  Nuclear repulsion =  628.957413236675734

  Charge       = 0
  Multiplicity = 1
  Electrons    = 82
  Nalpha       = 41
  Nbeta        = 41

  ==> Algorithm <==

  SCF Algorithm Type is DF.
  DIIS enabled.
  MOM disabled.
  Fractional occupation disabled.
  Guess Type is SAD.
  Energy threshold   = 1.00e-10
  Density threshold  = 1.00e-10
  Integral threshold = 0.00e+00

  ==> Primary Basis <==

  Basis Set: AUG-CC-PVTZ
    Blend: AUG-CC-PVTZ
    Number of shells: 253
    Number of basis function: 759
    Number of Cartesian functions: 880
    Spherical Harmonics?: true
    Max angular momentum: 3

   => Loading Basis Set <=

    Name: (AUG-CC-PVTZ AUX)
    Role: JKFIT
    Keyword: DF_BASIS_SCF
    atoms 1     entry O          line   286 file /home/xy3866/psi4conda/share/psi4/basis/aug-cc-pvtz-jkfit.gbs 
    atoms 2-4   entry N          line   224 file /home/xy3866/psi4conda/share/psi4/basis/aug-cc-pvtz-jkfit.gbs 
    atoms 5-11  entry C          line   162 file /home/xy3866/psi4conda/share/psi4/basis/aug-cc-pvtz-jkfit.gbs 
    atoms 12-22 entry H          line    70 file /home/xy3866/psi4conda/share/psi4/basis/aug-cc-pvtz-jkfit.gbs 

  ==> Pre-Iterations <==

   -------------------------------------------------------
    Irrep   Nso     Nmo     Nalpha   Nbeta   Ndocc  Nsocc
   -------------------------------------------------------
     A        759     759       0       0       0       0
   -------------------------------------------------------
    Total     759     759      41      41      41       0
   -------------------------------------------------------

  ==> Integral Setup <==

  DFHelper Memory: AOs need 6.735 GiB; user supplied 22.352 GiB. Using in-core AOs.

  ==> MemDFJK: Density-Fitted J/K Matrices <==

    J tasked:                   Yes
    K tasked:                   Yes
    wK tasked:                   No
    OpenMP threads:               8
    Memory [MiB]:             22888
    Algorithm:                 Disk
    Schwarz Cutoff:           1E-12
    Mask sparsity (%):       7.3018
    Fitting Condition:        1E-10

   => Auxiliary Basis Set <=

  Basis Set: (AUG-CC-PVTZ AUX)
    Blend: AUG-CC-PVTZ-JKFIT
    Number of shells: 484
    Number of basis function: 1650
    Number of Cartesian functions: 2046
    Spherical Harmonics?: true
    Max angular momentum: 4

  Minimum eigenvalue in the overlap matrix is 1.1552800601E-06.
  Using Symmetric Orthogonalization.

  SCF Guess: Superposition of Atomic Densities via on-the-fly atomic UHF.

  ==> Iterations <==

                           Total Energy        Delta E     RMS |[F,P]|

   @DF-RHF iter SAD:  -509.30126493635180   -5.09301e+02   0.00000e+00 
   @DF-RHF iter   1:  -509.55862747664958   -2.57363e-01   9.52072e-04 DIIS
   @DF-RHF iter   2:  -509.78943592476577   -2.30808e-01   5.20204e-04 DIIS
   @DF-RHF iter   3:  -509.84678047180722   -5.73445e-02   1.34534e-04 DIIS
   @DF-RHF iter   4:  -509.85246166666025   -5.68119e-03   4.72107e-05 DIIS
   @DF-RHF iter   5:  -509.85327422319142   -8.12557e-04   1.08362e-05 DIIS
   @DF-RHF iter   6:  -509.85334418835237   -6.99652e-05   5.48820e-06 DIIS
   @DF-RHF iter   7:  -509.85336364194711   -1.94536e-05   1.96687e-06 DIIS
   @DF-RHF iter   8:  -509.85336795417368   -4.31223e-06   7.84902e-07 DIIS
   @DF-RHF iter   9:  -509.85336857586219   -6.21689e-07   3.38444e-07 DIIS
   @DF-RHF iter  10:  -509.85336866159059   -8.57284e-08   1.27516e-07 DIIS
   @DF-RHF iter  11:  -509.85336867266943   -1.10788e-08   5.12261e-08 DIIS
   @DF-RHF iter  12:  -509.85336867457852   -1.90909e-09   2.01819e-08 DIIS
   @DF-RHF iter  13:  -509.85336867500757   -4.29054e-10   8.49536e-09 DIIS
   @DF-RHF iter  14:  -509.85336867507630   -6.87237e-11   3.91373e-09 DIIS
   @DF-RHF iter  15:  -509.85336867509307   -1.67688e-11   1.98629e-09 DIIS
   @DF-RHF iter  16:  -509.85336867509909   -6.02540e-12   7.87613e-10 DIIS
   @DF-RHF iter  17:  -509.85336867509596    3.12639e-12   3.38111e-10 DIIS
   @DF-RHF iter  18:  -509.85336867509636   -3.97904e-13   1.01428e-10 DIIS
   @DF-RHF iter  19:  -509.85336867509886   -2.50111e-12   5.51301e-11 DIIS
  Energy and wave function converged.


  ==> Post-Iterations <==

    Orbital Energies [Eh]
    ---------------------

    Doubly Occupied:                                                      

       1A    -20.515865     2A    -15.639061     3A    -15.591450  
       4A    -15.564887     5A    -11.360227     6A    -11.305398  
       7A    -11.271972     8A    -11.271213     9A    -11.254510  
      10A    -11.253668    11A    -11.252440    12A     -1.381006  
      13A     -1.337888    14A     -1.244973    15A     -1.180515  
      16A     -1.036239    17A     -0.977031    18A     -0.966049  
      19A     -0.939432    20A     -0.839259    21A     -0.808707  
      22A     -0.741096    23A     -0.709883    24A     -0.664070  
      25A     -0.656432    26A     -0.647286    27A     -0.639659  
      28A     -0.605040    29A     -0.590023    30A     -0.576488  
      31A     -0.563778    32A     -0.557138    33A     -0.553600  
      34A     -0.552496    35A     -0.526202    36A     -0.522278  
      37A     -0.444268    38A     -0.431349    39A     -0.388524  
      40A     -0.372690    41A     -0.319335  

    Virtual:                                                              

      42A      0.025770    43A      0.031433    44A      0.034982  
      45A      0.040591    46A      0.047002    47A      0.047832  
      48A      0.053315    49A      0.060167    50A      0.064640  
      51A      0.068920    52A      0.076013    53A      0.081534  
      54A      0.085486    55A      0.099542    56A      0.105260  
      57A      0.107674    58A      0.113413    59A      0.115645  
      60A      0.116887    61A      0.120552    62A      0.123822  
      63A      0.124822    64A      0.128263    65A      0.138544  
      66A      0.140528    67A      0.141488    68A      0.147198  
      69A      0.154633    70A      0.158346    71A      0.160513  
      72A      0.161889    73A      0.168960    74A      0.174694  
      75A      0.177863    76A      0.180743    77A      0.188355  
      78A      0.201144    79A      0.203007    80A      0.214559  
      81A      0.219825    82A      0.221239    83A      0.230057  
      84A      0.235543    85A      0.241705    86A      0.243685  
      87A      0.247477    88A      0.251912    89A      0.254178  
      90A      0.260868    91A      0.264122    92A      0.267465  
      93A      0.276521    94A      0.281890    95A      0.286065  
      96A      0.289044    97A      0.291485    98A      0.297699  
      99A      0.301739   100A      0.315000   101A      0.322564  
     102A      0.324607   103A      0.328263   104A      0.331171  
     105A      0.335387   106A      0.341267   107A      0.343141  
     108A      0.351665   109A      0.354776   110A      0.358576  
     111A      0.361946   112A      0.364758   113A      0.369766  
     114A      0.373330   115A      0.379212   116A      0.381268  
     117A      0.381465   118A      0.386486   119A      0.389494  
     120A      0.396466   121A      0.399378   122A      0.403524  
     123A      0.411648   124A      0.413454   125A      0.413735  
     126A      0.426612   127A      0.428429   128A      0.433173  
     129A      0.436267   130A      0.442506   131A      0.447562  
     132A      0.449569   133A      0.453520   134A      0.457156  
     135A      0.458219   136A      0.465118   137A      0.470597  
     138A      0.474515   139A      0.477575   140A      0.481393  
     141A      0.484763   142A      0.488918   143A      0.490258  
     144A      0.496592   145A      0.499891   146A      0.503884  
     147A      0.506585   148A      0.508745   149A      0.512193  
     150A      0.517910   151A      0.519958   152A      0.528214  
     153A      0.530218   154A      0.533396   155A      0.538921  
     156A      0.539509   157A      0.545167   158A      0.550472  
     159A      0.557306   160A      0.560014   161A      0.566988  
     162A      0.571720   163A      0.572781   164A      0.580959  
     165A      0.586333   166A      0.592320   167A      0.594341  
     168A      0.605517   169A      0.607844   170A      0.611566  
     171A      0.623460   172A      0.625168   173A      0.635962  
     174A      0.640940   175A      0.646064   176A      0.646971  
     177A      0.658035   178A      0.666731   179A      0.678190  
     180A      0.679966   181A      0.690719   182A      0.693921  
     183A      0.704117   184A      0.708491   185A      0.709821  
     186A      0.715230   187A      0.725259   188A      0.735836  
     189A      0.741137   190A      0.748412   191A      0.752647  
     192A      0.761550   193A      0.768290   194A      0.776906  
     195A      0.780476   196A      0.787395   197A      0.798971  
     198A      0.803271   199A      0.807440   200A      0.820910  
     201A      0.826769   202A      0.832419   203A      0.834275  
     204A      0.840141   205A      0.845676   206A      0.850213  
     207A      0.852265   208A      0.862536   209A      0.868758  
     210A      0.871009   211A      0.875574   212A      0.886584  
     213A      0.889586   214A      0.894193   215A      0.896578  
     216A      0.906991   217A      0.911218   218A      0.915733  
     219A      0.923168   220A      0.926423   221A      0.927230  
     222A      0.937237   223A      0.940606   224A      0.946221  
     225A      0.950521   226A      0.954533   227A      0.959986  
     228A      0.966126   229A      0.967929   230A      0.976024  
     231A      0.979367   232A      0.985375   233A      0.996501  
     234A      0.999709   235A      1.002813   236A      1.004997  
     237A      1.014192   238A      1.017865   239A      1.024354  
     240A      1.030326   241A      1.036075   242A      1.041607  
     243A      1.047635   244A      1.052842   245A      1.060789  
     246A      1.062287   247A      1.067375   248A      1.068536  
     249A      1.077883   250A      1.080855   251A      1.084729  
     252A      1.088723   253A      1.093497   254A      1.095366  
     255A      1.105783   256A      1.109061   257A      1.116952  
     258A      1.119959   259A      1.135540   260A      1.143939  
     261A      1.144321   262A      1.151476   263A      1.157849  
     264A      1.163541   265A      1.168973   266A      1.173574  
     267A      1.184558   268A      1.187253   269A      1.190479  
     270A      1.195557   271A      1.203625   272A      1.204548  
     273A      1.211269   274A      1.219025   275A      1.223023  
     276A      1.236945   277A      1.240186   278A      1.245017  
     279A      1.250925   280A      1.255349   281A      1.268760  
     282A      1.272613   283A      1.280033   284A      1.281050  
     285A      1.298829   286A      1.307032   287A      1.308318  
     288A      1.318558   289A      1.324117   290A      1.331874  
     291A      1.338596   292A      1.347679   293A      1.353038  
     294A      1.369469   295A      1.371936   296A      1.378826  
     297A      1.383468   298A      1.392888   299A      1.395780  
     300A      1.406552   301A      1.412193   302A      1.418109  
     303A      1.427615   304A      1.433076   305A      1.439638  
     306A      1.446988   307A      1.452923   308A      1.456015  
     309A      1.464802   310A      1.470417   311A      1.472893  
     312A      1.483136   313A      1.489660   314A      1.497625  
     315A      1.501902   316A      1.509260   317A      1.515512  
     318A      1.521188   319A      1.529374   320A      1.532918  
     321A      1.541522   322A      1.560952   323A      1.562810  
     324A      1.568599   325A      1.576308   326A      1.578030  
     327A      1.593839   328A      1.597450   329A      1.611870  
     330A      1.615169   331A      1.626325   332A      1.631103  
     333A      1.631903   334A      1.637314   335A      1.646717  
     336A      1.660965   337A      1.662080   338A      1.672366  
     339A      1.676200   340A      1.677600   341A      1.688731  
     342A      1.694814   343A      1.704087   344A      1.705159  
     345A      1.707130   346A      1.712844   347A      1.719720  
     348A      1.725103   349A      1.737475   350A      1.743613  
     351A      1.746087   352A      1.749806   353A      1.753916  
     354A      1.766796   355A      1.779224   356A      1.780928  
     357A      1.791752   358A      1.799986   359A      1.812158  
     360A      1.820289   361A      1.825339   362A      1.835410  
     363A      1.844776   364A      1.850813   365A      1.856369  
     366A      1.867680   367A      1.873372   368A      1.879516  
     369A      1.882374   370A      1.896864   371A      1.901104  
     372A      1.914962   373A      1.916280   374A      1.928383  
     375A      1.930731   376A      1.946811   377A      1.959046  
     378A      1.965255   379A      1.977181   380A      1.983205  
     381A      1.986872   382A      2.010072   383A      2.021324  
     384A      2.028805   385A      2.037025   386A      2.047670  
     387A      2.054896   388A      2.063032   389A      2.070445  
     390A      2.087837   391A      2.094687   392A      2.098044  
     393A      2.108154   394A      2.113275   395A      2.119385  
     396A      2.129924   397A      2.138653   398A      2.142784  
     399A      2.170634   400A      2.174566   401A      2.189116  
     402A      2.194000   403A      2.203945   404A      2.217139  
     405A      2.221853   406A      2.227490   407A      2.242905  
     408A      2.256481   409A      2.260194   410A      2.265286  
     411A      2.276369   412A      2.281850   413A      2.294983  
     414A      2.304724   415A      2.316020   416A      2.331599  
     417A      2.337635   418A      2.341138   419A      2.351139  
     420A      2.357785   421A      2.379640   422A      2.393591  
     423A      2.397628   424A      2.420316   425A      2.431323  
     426A      2.433558   427A      2.437634   428A      2.446752  
     429A      2.453864   430A      2.470232   431A      2.476719  
     432A      2.499797   433A      2.506603   434A      2.518492  
     435A      2.529104   436A      2.538969   437A      2.554091  
     438A      2.560790   439A      2.578412   440A      2.593928  
     441A      2.595042   442A      2.612004   443A      2.628683  
     444A      2.633716   445A      2.650476   446A      2.663521  
     447A      2.674797   448A      2.687581   449A      2.693469  
     450A      2.709472   451A      2.716584   452A      2.741711  
     453A      2.762297   454A      2.772394   455A      2.786231  
     456A      2.803792   457A      2.837028   458A      2.850541  
     459A      2.872571   460A      2.875511   461A      2.890668  
     462A      2.899905   463A      2.920360   464A      2.941258  
     465A      2.971399   466A      2.995690   467A      3.009938  
     468A      3.030629   469A      3.068488   470A      3.078948  
     471A      3.093662   472A      3.104051   473A      3.140106  
     474A      3.149172   475A      3.188438   476A      3.191359  
     477A      3.212317   478A      3.233525   479A      3.247623  
     480A      3.270505   481A      3.305029   482A      3.335000  
     483A      3.341404   484A      3.348190   485A      3.362248  
     486A      3.384495   487A      3.394904   488A      3.407751  
     489A      3.438145   490A      3.451922   491A      3.468850  
     492A      3.490031   493A      3.491537   494A      3.512658  
     495A      3.528599   496A      3.541145   497A      3.547208  
     498A      3.562703   499A      3.567076   500A      3.581572  
     501A      3.600616   502A      3.614761   503A      3.628179  
     504A      3.635430   505A      3.639784   506A      3.643198  
     507A      3.659529   508A      3.672445   509A      3.681041  
     510A      3.701427   511A      3.705194   512A      3.709955  
     513A      3.728712   514A      3.732042   515A      3.751254  
     516A      3.752269   517A      3.766531   518A      3.774688  
     519A      3.784887   520A      3.795554   521A      3.809230  
     522A      3.817045   523A      3.824923   524A      3.832499  
     525A      3.841968   526A      3.847994   527A      3.853801  
     528A      3.866586   529A      3.877476   530A      3.892645  
     531A      3.897515   532A      3.901047   533A      3.914480  
     534A      3.921409   535A      3.926416   536A      3.943820  
     537A      3.946512   538A      3.954615   539A      3.965287  
     540A      3.967852   541A      3.980882   542A      3.990992  
     543A      4.003107   544A      4.023743   545A      4.030121  
     546A      4.033281   547A      4.036156   548A      4.050995  
     549A      4.077782   550A      4.089802   551A      4.098713  
     552A      4.102678   553A      4.107121   554A      4.113716  
     555A      4.119498   556A      4.128967   557A      4.139170  
     558A      4.146469   559A      4.154563   560A      4.164866  
     561A      4.178038   562A      4.188605   563A      4.200495  
     564A      4.208856   565A      4.219759   566A      4.223123  
     567A      4.236099   568A      4.242584   569A      4.261539  
     570A      4.265993   571A      4.273082   572A      4.282865  
     573A      4.286983   574A      4.297191   575A      4.311779  
     576A      4.333719   577A      4.336620   578A      4.346278  
     579A      4.358738   580A      4.366474   581A      4.396347  
     582A      4.403138   583A      4.408046   584A      4.419904  
     585A      4.435937   586A      4.445529   587A      4.454908  
     588A      4.467625   589A      4.474773   590A      4.495320  
     591A      4.503961   592A      4.516258   593A      4.525072  
     594A      4.542578   595A      4.551761   596A      4.569192  
     597A      4.585766   598A      4.594662   599A      4.634967  
     600A      4.642025   601A      4.652174   602A      4.659477  
     603A      4.678928   604A      4.697515   605A      4.706772  
     606A      4.712992   607A      4.734128   608A      4.752761  
     609A      4.754323   610A      4.768384   611A      4.779719  
     612A      4.798780   613A      4.838460   614A      4.844766  
     615A      4.856976   616A      4.864938   617A      4.873201  
     618A      4.889057   619A      4.904375   620A      4.916565  
     621A      4.924773   622A      4.939327   623A      4.951147  
     624A      4.963476   625A      4.975651   626A      4.982134  
     627A      5.004612   628A      5.010146   629A      5.024723  
     630A      5.058272   631A      5.073670   632A      5.085604  
     633A      5.099134   634A      5.116612   635A      5.127295  
     636A      5.130819   637A      5.142719   638A      5.157608  
     639A      5.170380   640A      5.192042   641A      5.203619  
     642A      5.211645   643A      5.214056   644A      5.236516  
     645A      5.262236   646A      5.276625   647A      5.290597  
     648A      5.292920   649A      5.318648   650A      5.321882  
     651A      5.347996   652A      5.354871   653A      5.367175  
     654A      5.401366   655A      5.421273   656A      5.437456  
     657A      5.448327   658A      5.479771   659A      5.492202  
     660A      5.517701   661A      5.527808   662A      5.535052  
     663A      5.556213   664A      5.564971   665A      5.574019  
     666A      5.588000   667A      5.608083   668A      5.644881  
     669A      5.651825   670A      5.672257   671A      5.684630  
     672A      5.706261   673A      5.729090   674A      5.733776  
     675A      5.758428   676A      5.763594   677A      5.777585  
     678A      5.797305   679A      5.819970   680A      5.834890  
     681A      5.863845   682A      5.869580   683A      5.879348  
     684A      5.889005   685A      5.904354   686A      5.912701  
     687A      5.936242   688A      5.953543   689A      5.964113  
     690A      5.970330   691A      5.987730   692A      6.006523  
     693A      6.040749   694A      6.070145   695A      6.118882  
     696A      6.135479   697A      6.157869   698A      6.164558  
     699A      6.174568   700A      6.183453   701A      6.197018  
     702A      6.210900   703A      6.238328   704A      6.278411  
     705A      6.280818   706A      6.321342   707A      6.324495  
     708A      6.348889   709A      6.395308   710A      6.404221  
     711A      6.418269   712A      6.473828   713A      6.535422  
     714A      6.586580   715A      6.626674   716A      6.633599  
     717A      6.664176   718A      6.728696   719A      6.763489  
     720A      6.767709   721A      6.781984   722A      6.814757  
     723A      6.827802   724A      6.854611   725A      6.883279  
     726A      6.895691   727A      6.910255   728A      6.943203  
     729A      6.975567   730A      6.985185   731A      7.010182  
     732A      7.057239   733A      7.076236   734A      7.106244  
     735A      7.108861   736A      7.133195   737A      7.156849  
     738A      7.211054   739A      7.281905   740A      7.306536  
     741A      7.359282   742A      7.517912   743A      7.549108  
     744A      7.795077   745A      7.812310   746A      7.855316  
     747A      7.990704   748A      8.134838   749A     15.231536  
     750A     16.423375   751A     16.510420   752A     17.206984  
     753A     18.080725   754A     18.474815   755A     18.663174  
     756A     18.871183   757A     19.444444   758A     20.505941  
     759A     21.059676  

    Final Occupation by Irrep:
              A 
    DOCC [    41 ]

  @DF-RHF Final Energy:  -509.85336867509886

   => Energetics <=

    Nuclear Repulsion Energy =            628.9574132366757340
    One-Electron Energy =               -1941.5147129907345516
    Two-Electron Energy =                 802.7039310789600677
    Total Energy =                       -509.8533686750988636

Computation Completed

*** tstop() called on node37.bme.utexas.edu at Tue Feb  2 04:02:01 2021
Module time:
	user time   =     638.52 seconds =      10.64 minutes
	system time =     153.16 seconds =       2.55 minutes
	total time  =        199 seconds =       3.32 minutes
Total time:
	user time   =     638.52 seconds =      10.64 minutes
	system time =     153.16 seconds =       2.55 minutes
	total time  =        199 seconds =       3.32 minutes
   => Loading Basis Set <=

    Name: (AUG-CC-PVTZ AUX)
    Role: RIFIT
    Keyword: DF_BASIS_MP2
    atoms 1     entry O          line   264 file /home/xy3866/psi4conda/share/psi4/basis/aug-cc-pvtz-ri.gbs 
    atoms 2-4   entry N          line   206 file /home/xy3866/psi4conda/share/psi4/basis/aug-cc-pvtz-ri.gbs 
    atoms 5-11  entry C          line   148 file /home/xy3866/psi4conda/share/psi4/basis/aug-cc-pvtz-ri.gbs 
    atoms 12-22 entry H          line    30 file /home/xy3866/psi4conda/share/psi4/basis/aug-cc-pvtz-ri.gbs 


*** tstart() called on node37.bme.utexas.edu
*** at Tue Feb  2 04:02:01 2021


  //>>>>>>>>>>>>>>>>>>>>>>>>>>>>>>>>>>>//
  //               DFMP2               //
  //<<<<<<<<<<<<<<<<<<<<<<<<<<<<<<<<<<<//

	 --------------------------------------------------------
	                          DF-MP2                         
	      2nd-Order Density-Fitted Moller-Plesset Theory     
	              RMP2 Wavefunction,   8 Threads             
	                                                         
	        Rob Parrish, Justin Turney, Andy Simmonett,      
	           Ed Hohenstein, and C. David Sherrill          
	 --------------------------------------------------------

   => Auxiliary Basis Set <=

  Basis Set: (AUG-CC-PVTZ AUX)
    Blend: AUG-CC-PVTZ-RI
    Number of shells: 462
    Number of basis function: 1672
    Number of Cartesian functions: 2101
    Spherical Harmonics?: true
    Max angular momentum: 4

	 --------------------------------------------------------
	                 NBF =   759, NAUX =  1672
	 --------------------------------------------------------
	   CLASS    FOCC     OCC    AOCC    AVIR     VIR    FVIR
	   PAIRS       0      41      41     718     718       0
	 --------------------------------------------------------

  DFHelper Memory: AOs need 6.735 GiB; user supplied 22.352 GiB. Using in-core AOs.


         ------------------------------------------------------------
                                     CPHF                           
                                  Rob Parrish                       
         ------------------------------------------------------------

  ==> Geometry <==

    Molecular point group: c1
    Full point group: C1

    Geometry (in Angstrom), charge = 0, multiplicity = 1:

       Center              X                  Y                   Z               Mass       
    ------------   -----------------  -----------------  -----------------  -----------------
         O           -0.795778342058     1.720091463195    -0.418698623469    15.994914619570
         N            1.657608657942     0.473946463195     0.155651376531    14.003074004430
         N           -1.957876342058    -0.192381536805     0.062186376531    14.003074004430
         N            0.735237657942    -1.509664536805    -0.330982623469    14.003074004430
         C            0.465198957942    -0.175983736805    -0.059468723469    12.000000000000
         C           -0.804310342058     0.503981463195    -0.145547623469    12.000000000000
         C            2.682763657942    -0.428441536805     0.037690376531    12.000000000000
         C            1.837936657942     1.895662463195     0.442505376531    12.000000000000
         C           -3.219191342058     0.502755463195    -0.143102623469    12.000000000000
         C           -2.079030342058    -1.546950536805     0.581330376531    12.000000000000
         C            2.092367657942    -1.640039536805    -0.262655623469    12.000000000000
         H            3.713130657942    -0.136195536805     0.185449376531     1.007825032230
         H            1.110773657942     2.218098463195     1.184931376531     1.007825032230
         H            2.849887657942     2.027052463195     0.828980376531     1.007825032230
         H            1.693340657942     2.483434463195    -0.462697623469     1.007825032230
         H           -3.875448342058    -0.116185536805    -0.763126623469     1.007825032230
         H           -3.020238342058     1.451234463195    -0.637558623469     1.007825032230
         H           -3.716362342058     0.690571463195     0.815846376531     1.007825032230
         H           -1.102961342058    -1.948219536805     0.832368376531     1.007825032230
         H           -2.537972342058    -2.199175536805    -0.169611623469     1.007825032230
         H           -2.722530342058    -1.527820536805     1.468601376531     1.007825032230
         H            2.576426657942    -2.592887536805    -0.433078623469     1.007825032230

  Nuclear repulsion =  628.957413236675848
  Reference energy  = -509.853368675098864

  ==> Basis Set <==

  Basis Set: AUG-CC-PVTZ
    Blend: AUG-CC-PVTZ
    Number of shells: 253
    Number of basis function: 759
    Number of Cartesian functions: 880
    Spherical Harmonics?: true
    Max angular momentum: 3

  ==> CGRSolver (by Rob Parrish) <==

   Number of roots    =         1
   Preconditioning    =    JACOBI
   Convergence cutoff =     1E-06
   Maximum iterations =       100

  ==> CPHFRHamiltonian (by Rob Parrish) <== 

  ==> MemDFJK: Density-Fitted J/K Matrices <==

    J tasked:                   Yes
    K tasked:                   Yes
    wK tasked:                   No
    OpenMP threads:               8
    Memory [MiB]:             22888
    Algorithm:                 Disk
    Schwarz Cutoff:           1E-12
    Mask sparsity (%):       7.3018
    Fitting Condition:        1E-10

   => Auxiliary Basis Set <=

  Basis Set: (AUG-CC-PVTZ AUX)
    Blend: AUG-CC-PVTZ-JKFIT
    Number of shells: 484
    Number of basis function: 1650
    Number of Cartesian functions: 2046
    Spherical Harmonics?: true
    Max angular momentum: 4

  ==> CPHF Iterations <==

  => Iterations <=

             Iter  Converged  Remaining    Residual
  CGR           1          0          1   1.167E-01
  CGR           2          0          1   3.871E-02
  CGR           3          0          1   1.686E-02
  CGR           4          0          1   6.158E-03
  CGR           5          0          1   2.702E-03
  CGR           6          0          1   1.263E-03
  CGR           7          0          1   4.921E-04
  CGR           8          0          1   1.703E-04
  CGR           9          0          1   5.223E-05
  CGR          10          0          1   2.030E-05
  CGR          11          0          1   8.513E-06
  CGR          12          0          1   3.292E-06
  CGR          13          0          1   1.262E-06
  CGR          14          1          0   4.472E-07

    CGRSolver converged.

	-----------------------------------------------------------
	 ==================> DF-MP2 Energies <==================== 
	-----------------------------------------------------------
	 Reference Energy          =    -509.8533686750988636 [Eh]
	 Singles Energy            =      -0.0000000000000000 [Eh]
	 Same-Spin Energy          =      -0.5455014771610098 [Eh]
	 Opposite-Spin Energy      =      -1.6980215187245427 [Eh]
	 Correlation Energy        =      -2.2435229958855523 [Eh]
	 Total Energy              =    -512.0968916709844052 [Eh]
	-----------------------------------------------------------
	 ================> DF-SCS-MP2 Energies <================== 
	-----------------------------------------------------------
	 SCS Same-Spin Scale       =       0.3333333333333333 [-]
	 SCS Opposite-Spin Scale   =       1.2000000000000000 [-]
	 SCS Same-Spin Energy      =      -0.1818338257203366 [Eh]
	 SCS Opposite-Spin Energy  =      -2.0376258224694510 [Eh]
	 SCS Correlation Energy    =      -2.2194596481897877 [Eh]
	 SCS Total Energy          =    -512.0728283232886042 [Eh]
	-----------------------------------------------------------



Properties will be evaluated at  -0.000000,   0.000000,   0.000000 [a0]

Properties computed using the MP2 density matrix

  Nuclear Dipole Moment: [e a0]
     X:    -4.7224      Y:     0.3399      Z:     2.6702

  Electronic Dipole Moment: [e a0]
     X:     5.0690      Y:    -0.3459      Z:    -1.9903

  Dipole Moment: [e a0]
     X:     0.3466      Y:    -0.0060      Z:     0.6799     Total:     0.7632

  Dipole Moment: [D]
     X:     0.8809      Y:    -0.0153      Z:     1.7282     Total:     1.9398


*** tstop() called on node37.bme.utexas.edu at Tue Feb  2 04:08:32 2021
Module time:
	user time   =    1892.81 seconds =      31.55 minutes
	system time =     225.17 seconds =       3.75 minutes
	total time  =        391 seconds =       6.52 minutes
Total time:
	user time   =    2531.55 seconds =      42.19 minutes
	system time =     378.33 seconds =       6.31 minutes
	total time  =        590 seconds =       9.83 minutes

    Psi4 stopped on: Tuesday, 02 February 2021 04:08AM
    Psi4 wall time for execution: 0:09:50.88

*** Psi4 exiting successfully. Buy a developer a beer!
