
    -----------------------------------------------------------------------
          Psi4: An Open-Source Ab Initio Electronic Structure Package
                               Psi4 1.3.2 release

                         Git: Rev {HEAD} ecbda83 


    R. M. Parrish, L. A. Burns, D. G. A. Smith, A. C. Simmonett,
    A. E. DePrince III, E. G. Hohenstein, U. Bozkaya, A. Yu. Sokolov,
    R. Di Remigio, R. M. Richard, J. F. Gonthier, A. M. James,
    H. R. McAlexander, A. Kumar, M. Saitow, X. Wang, B. P. Pritchard,
    P. Verma, H. F. Schaefer III, K. Patkowski, R. A. King, E. F. Valeev,
    F. A. Evangelista, J. M. Turney, T. D. Crawford, and C. D. Sherrill,
    J. Chem. Theory Comput. 13(7) pp 3185--3197 (2017).
    (doi: 10.1021/acs.jctc.7b00174)


                         Additional Contributions by
    P. Kraus, H. Kruse, M. H. Lechner, M. C. Schieber, R. A. Shaw,
    A. Alenaizan, R. Galvelis, Z. L. Glick, S. Lehtola, and J. P. Misiewicz

    -----------------------------------------------------------------------


    Psi4 started on: Tuesday, 02 February 2021 12:06AM

    Process ID: 37857
    Host:       node37.bme.utexas.edu
    PSIDATADIR: /home/xy3866/psi4conda/share/psi4
    Memory:     500.0 MiB
    Threads:    8
    
  ==> Input File <==

--------------------------------------------------------------------------
#psi4
#
memory 32 gb

molecule  {
0 1
  O       -0.7670850     1.7208920    -0.4354900
  N        1.6863020     0.4747470     0.1388600
  N       -1.9032451    -0.2308977     0.0521828
  N        0.7639310    -1.5088640    -0.3477740
  C        0.5182450    -0.2160980    -0.0822800
  C       -0.7756170     0.5047820    -0.1623390
  C        2.7114570    -0.4276410     0.0208990
  C        1.8666300     1.8964630     0.4257140
  C       -3.1904980     0.5035560    -0.1598940
  C       -2.0503370    -1.5461500     0.5645390
  C        2.1210610    -1.6392390    -0.2794470
  H        3.7418240    -0.1353950     0.1686580
  H        1.1394670     2.2188990     1.1681400
  H        2.8785810     2.0278530     0.8121890
  H        1.7220340     2.4842350    -0.4794890
  H       -3.8467550    -0.1153850    -0.7799180
  H       -2.9915450     1.4520350    -0.6543500
  H       -3.6876690     0.6913720     0.7990550
  H       -1.0742680    -1.9474190     0.8155770
  H       -2.5092790    -2.1983750    -0.1864030
  H       -2.6938370    -1.5270200     1.4518100
  H        2.6051200    -2.5920870    -0.4498700
units angstrom
no_reorient  #important for SAPT in psi4, default
symmetry c1  #important for SAPT in psi4, default
}

set PROPERTIES_ORIGIN ["COM"]
properties('MP2/aug-cc-pvtz', properties = ['dipole'])
--------------------------------------------------------------------------

  Memory set to  29.802 GiB by Python driver.
    SCF Algorithm Type (re)set to DF.

*** tstart() called on node37.bme.utexas.edu
*** at Tue Feb  2 00:06:52 2021

   => Loading Basis Set <=

    Name: AUG-CC-PVTZ
    Role: ORBITAL
    Keyword: BASIS
    atoms 1     entry O          line   327 file /home/xy3866/psi4conda/share/psi4/basis/aug-cc-pvtz.gbs 
    atoms 2-4   entry N          line   281 file /home/xy3866/psi4conda/share/psi4/basis/aug-cc-pvtz.gbs 
    atoms 5-11  entry C          line   235 file /home/xy3866/psi4conda/share/psi4/basis/aug-cc-pvtz.gbs 
    atoms 12-22 entry H          line    36 file /home/xy3866/psi4conda/share/psi4/basis/aug-cc-pvtz.gbs 


         ---------------------------------------------------------
                                   SCF
               by Justin Turney, Rob Parrish, Andy Simmonett
                          and Daniel G. A. Smith
                              RHF Reference
                        8 Threads,  30517 MiB Core
         ---------------------------------------------------------

  ==> Geometry <==

    Molecular point group: c1
    Full point group: C1

    Geometry (in Angstrom), charge = 0, multiplicity = 1:

       Center              X                  Y                   Z               Mass       
    ------------   -----------------  -----------------  -----------------  -----------------
         O           -0.800059757079     1.726894852165    -0.418847628852    15.994914619570
         N            1.653327242921     0.480749852165     0.155502371148    14.003074004430
         N           -1.936219857079    -0.224894847835     0.068825171148    14.003074004430
         N            0.730956242921    -1.502861147835    -0.331131628852    14.003074004430
         C            0.485270242921    -0.210095147835    -0.065637628852    12.000000000000
         C           -0.808591757079     0.510784852165    -0.145696628852    12.000000000000
         C            2.678482242921    -0.421638147835     0.037541371148    12.000000000000
         C            1.833655242921     1.902465852165     0.442356371148    12.000000000000
         C           -3.223472757079     0.509558852165    -0.143251628852    12.000000000000
         C           -2.083311757079    -1.540147147835     0.581181371148    12.000000000000
         C            2.088086242921    -1.633236147835    -0.262804628852    12.000000000000
         H            3.708849242921    -0.129392147835     0.185300371148     1.007825032230
         H            1.106492242921     2.224901852165     1.184782371148     1.007825032230
         H            2.845606242921     2.033855852165     0.828831371148     1.007825032230
         H            1.689059242921     2.490237852165    -0.462846628852     1.007825032230
         H           -3.879729757079    -0.109382147835    -0.763275628852     1.007825032230
         H           -3.024519757079     1.458037852165    -0.637707628852     1.007825032230
         H           -3.720643757079     0.697374852165     0.815697371148     1.007825032230
         H           -1.107242757079    -1.941416147835     0.832219371148     1.007825032230
         H           -2.542253757079    -2.192372147835    -0.169760628852     1.007825032230
         H           -2.726811757079    -1.521017147835     1.468452371148     1.007825032230
         H            2.572145242921    -2.586084147835    -0.433227628852     1.007825032230

  Running in c1 symmetry.

  Rotational constants: A =      0.06709  B =      0.02901  C =      0.02126 [cm^-1]
  Rotational constants: A =   2011.41998  B =    869.81546  C =    637.33645 [MHz]
  Nuclear repulsion =  629.147570942834477

  Charge       = 0
  Multiplicity = 1
  Electrons    = 82
  Nalpha       = 41
  Nbeta        = 41

  ==> Algorithm <==

  SCF Algorithm Type is DF.
  DIIS enabled.
  MOM disabled.
  Fractional occupation disabled.
  Guess Type is SAD.
  Energy threshold   = 1.00e-10
  Density threshold  = 1.00e-10
  Integral threshold = 0.00e+00

  ==> Primary Basis <==

  Basis Set: AUG-CC-PVTZ
    Blend: AUG-CC-PVTZ
    Number of shells: 253
    Number of basis function: 759
    Number of Cartesian functions: 880
    Spherical Harmonics?: true
    Max angular momentum: 3

   => Loading Basis Set <=

    Name: (AUG-CC-PVTZ AUX)
    Role: JKFIT
    Keyword: DF_BASIS_SCF
    atoms 1     entry O          line   286 file /home/xy3866/psi4conda/share/psi4/basis/aug-cc-pvtz-jkfit.gbs 
    atoms 2-4   entry N          line   224 file /home/xy3866/psi4conda/share/psi4/basis/aug-cc-pvtz-jkfit.gbs 
    atoms 5-11  entry C          line   162 file /home/xy3866/psi4conda/share/psi4/basis/aug-cc-pvtz-jkfit.gbs 
    atoms 12-22 entry H          line    70 file /home/xy3866/psi4conda/share/psi4/basis/aug-cc-pvtz-jkfit.gbs 

  ==> Pre-Iterations <==

   -------------------------------------------------------
    Irrep   Nso     Nmo     Nalpha   Nbeta   Ndocc  Nsocc
   -------------------------------------------------------
     A        759     759       0       0       0       0
   -------------------------------------------------------
    Total     759     759      41      41      41       0
   -------------------------------------------------------

  ==> Integral Setup <==

  DFHelper Memory: AOs need 6.736 GiB; user supplied 22.352 GiB. Using in-core AOs.

  ==> MemDFJK: Density-Fitted J/K Matrices <==

    J tasked:                   Yes
    K tasked:                   Yes
    wK tasked:                   No
    OpenMP threads:               8
    Memory [MiB]:             22888
    Algorithm:                 Disk
    Schwarz Cutoff:           1E-12
    Mask sparsity (%):       7.2893
    Fitting Condition:        1E-10

   => Auxiliary Basis Set <=

  Basis Set: (AUG-CC-PVTZ AUX)
    Blend: AUG-CC-PVTZ-JKFIT
    Number of shells: 484
    Number of basis function: 1650
    Number of Cartesian functions: 2046
    Spherical Harmonics?: true
    Max angular momentum: 4

  Minimum eigenvalue in the overlap matrix is 1.2338973529E-06.
  Using Symmetric Orthogonalization.

  SCF Guess: Superposition of Atomic Densities via on-the-fly atomic UHF.

  ==> Iterations <==

                           Total Energy        Delta E     RMS |[F,P]|

   @DF-RHF iter SAD:  -509.32671467227260   -5.09327e+02   0.00000e+00 
   @DF-RHF iter   1:  -509.56133762067060   -2.34623e-01   9.57342e-04 DIIS
   @DF-RHF iter   2:  -509.79313369159001   -2.31796e-01   5.21161e-04 DIIS
   @DF-RHF iter   3:  -509.85079861037622   -5.76649e-02   1.33138e-04 DIIS
   @DF-RHF iter   4:  -509.85635971919032   -5.56111e-03   4.69798e-05 DIIS
   @DF-RHF iter   5:  -509.85715531644951   -7.95597e-04   1.08999e-05 DIIS
   @DF-RHF iter   6:  -509.85722425571845   -6.89393e-05   5.45003e-06 DIIS
   @DF-RHF iter   7:  -509.85724323592706   -1.89802e-05   1.92865e-06 DIIS
   @DF-RHF iter   8:  -509.85724737096336   -4.13504e-06   8.34768e-07 DIIS
   @DF-RHF iter   9:  -509.85724798363208   -6.12669e-07   3.79036e-07 DIIS
   @DF-RHF iter  10:  -509.85724808360004   -9.99680e-08   1.25316e-07 DIIS
   @DF-RHF iter  11:  -509.85724809494650   -1.13465e-08   4.48333e-08 DIIS
   @DF-RHF iter  12:  -509.85724809654170   -1.59520e-09   1.73805e-08 DIIS
   @DF-RHF iter  13:  -509.85724809681824   -2.76543e-10   5.38888e-09 DIIS
   @DF-RHF iter  14:  -509.85724809685507   -3.68345e-11   2.39850e-09 DIIS
   @DF-RHF iter  15:  -509.85724809686280   -7.73070e-12   9.30566e-10 DIIS
   @DF-RHF iter  16:  -509.85724809686405   -1.25056e-12   4.31003e-10 DIIS
   @DF-RHF iter  17:  -509.85724809686235    1.70530e-12   1.53399e-10 DIIS
   @DF-RHF iter  18:  -509.85724809686280   -4.54747e-13   6.28989e-11 DIIS
  Energy and wave function converged.


  ==> Post-Iterations <==

    Orbital Energies [Eh]
    ---------------------

    Doubly Occupied:                                                      

       1A    -20.519797     2A    -15.632640     3A    -15.593286  
       4A    -15.560643     5A    -11.364227     6A    -11.303563  
       7A    -11.271728     8A    -11.268469     9A    -11.256574  
      10A    -11.252882    11A    -11.250655    12A     -1.380524  
      13A     -1.341189    14A     -1.248073    15A     -1.187889  
      16A     -1.030783    17A     -0.976144    18A     -0.968115  
      19A     -0.939324    20A     -0.830873    21A     -0.810121  
      22A     -0.741699    23A     -0.709496    24A     -0.662952  
      25A     -0.655807    26A     -0.645865    27A     -0.639706  
      28A     -0.604825    29A     -0.591670    30A     -0.578660  
      31A     -0.562463    32A     -0.555977    33A     -0.553729  
      34A     -0.551358    35A     -0.528074    36A     -0.523240  
      37A     -0.450535    38A     -0.428002    39A     -0.390720  
      40A     -0.374678    41A     -0.319701  

    Virtual:                                                              

      42A      0.026161    43A      0.031127    44A      0.035263  
      45A      0.040410    46A      0.047070    47A      0.047681  
      48A      0.053392    49A      0.060038    50A      0.064609  
      51A      0.068741    52A      0.075856    53A      0.081780  
      54A      0.088693    55A      0.099514    56A      0.107364  
      57A      0.108403    58A      0.113663    59A      0.116888  
      60A      0.118178    61A      0.120966    62A      0.123630  
      63A      0.125327    64A      0.128329    65A      0.138681  
      66A      0.140611    67A      0.141477    68A      0.147690  
      69A      0.154650    70A      0.157920    71A      0.160580  
      72A      0.161878    73A      0.168935    74A      0.174409  
      75A      0.177902    76A      0.180423    77A      0.187953  
      78A      0.200815    79A      0.202802    80A      0.215331  
      81A      0.219298    82A      0.221039    83A      0.229937  
      84A      0.235545    85A      0.241952    86A      0.243746  
      87A      0.247429    88A      0.251845    89A      0.254255  
      90A      0.260842    91A      0.263764    92A      0.267137  
      93A      0.276462    94A      0.281890    95A      0.285874  
      96A      0.288791    97A      0.291184    98A      0.297767  
      99A      0.302804   100A      0.315549   101A      0.322701  
     102A      0.325145   103A      0.328332   104A      0.331544  
     105A      0.335007   106A      0.342141   107A      0.343563  
     108A      0.351560   109A      0.354348   110A      0.358235  
     111A      0.361589   112A      0.366409   113A      0.370406  
     114A      0.373551   115A      0.377767   116A      0.380791  
     117A      0.381831   118A      0.386156   119A      0.389155  
     120A      0.396609   121A      0.398935   122A      0.404091  
     123A      0.411789   124A      0.413402   125A      0.414302  
     126A      0.426678   127A      0.427519   128A      0.433091  
     129A      0.436971   130A      0.443019   131A      0.447450  
     132A      0.448522   133A      0.453870   134A      0.456586  
     135A      0.459527   136A      0.465141   137A      0.470265  
     138A      0.474354   139A      0.477800   140A      0.481771  
     141A      0.485370   142A      0.487705   143A      0.489261  
     144A      0.495107   145A      0.500871   146A      0.505018  
     147A      0.507033   148A      0.508729   149A      0.510772  
     150A      0.517905   151A      0.518571   152A      0.526877  
     153A      0.531678   154A      0.533376   155A      0.538729  
     156A      0.539620   157A      0.544590   158A      0.550902  
     159A      0.556771   160A      0.560059   161A      0.567005  
     162A      0.570646   163A      0.571827   164A      0.580249  
     165A      0.583659   166A      0.592576   167A      0.594187  
     168A      0.605053   169A      0.608437   170A      0.610477  
     171A      0.622891   172A      0.625178   173A      0.636246  
     174A      0.640886   175A      0.645909   176A      0.649637  
     177A      0.656708   178A      0.666159   179A      0.677288  
     180A      0.679944   181A      0.690504   182A      0.694689  
     183A      0.704830   184A      0.708621   185A      0.710496  
     186A      0.713955   187A      0.724443   188A      0.735406  
     189A      0.741900   190A      0.748826   191A      0.752287  
     192A      0.761678   193A      0.768112   194A      0.777301  
     195A      0.780350   196A      0.785300   197A      0.799973  
     198A      0.802969   199A      0.809392   200A      0.820073  
     201A      0.827416   202A      0.832789   203A      0.833516  
     204A      0.841864   205A      0.845979   206A      0.851145  
     207A      0.852115   208A      0.861693   209A      0.867865  
     210A      0.870983   211A      0.875243   212A      0.886050  
     213A      0.889504   214A      0.893800   215A      0.897193  
     216A      0.906448   217A      0.910941   218A      0.914644  
     219A      0.922478   220A      0.926497   221A      0.928656  
     222A      0.935477   223A      0.942482   224A      0.946304  
     225A      0.949841   226A      0.956461   227A      0.960918  
     228A      0.965732   229A      0.969327   230A      0.975877  
     231A      0.979663   232A      0.985542   233A      0.996783  
     234A      1.000096   235A      1.002394   236A      1.005530  
     237A      1.015042   238A      1.018614   239A      1.024747  
     240A      1.029077   241A      1.035967   242A      1.041244  
     243A      1.047562   244A      1.054510   245A      1.060632  
     246A      1.062427   247A      1.067510   248A      1.069359  
     249A      1.077202   250A      1.081244   251A      1.085267  
     252A      1.089694   253A      1.093366   254A      1.097041  
     255A      1.107107   256A      1.108096   257A      1.115258  
     258A      1.120876   259A      1.135714   260A      1.142613  
     261A      1.144461   262A      1.151761   263A      1.158478  
     264A      1.162434   265A      1.167891   266A      1.174654  
     267A      1.183793   268A      1.185935   269A      1.190910  
     270A      1.193688   271A      1.204123   272A      1.205818  
     273A      1.210681   274A      1.217782   275A      1.223158  
     276A      1.235751   277A      1.241152   278A      1.245733  
     279A      1.251914   280A      1.255080   281A      1.269540  
     282A      1.273853   283A      1.278616   284A      1.280634  
     285A      1.297960   286A      1.306520   287A      1.311250  
     288A      1.318710   289A      1.324475   290A      1.330558  
     291A      1.336306   292A      1.348049   293A      1.351680  
     294A      1.367914   295A      1.370953   296A      1.378625  
     297A      1.385438   298A      1.390876   299A      1.396847  
     300A      1.406798   301A      1.412551   302A      1.417867  
     303A      1.428524   304A      1.432736   305A      1.438075  
     306A      1.447174   307A      1.453456   308A      1.455061  
     309A      1.465544   310A      1.470852   311A      1.471852  
     312A      1.482530   313A      1.487102   314A      1.497575  
     315A      1.503181   316A      1.509962   317A      1.516491  
     318A      1.520915   319A      1.529825   320A      1.532891  
     321A      1.541764   322A      1.560627   323A      1.562613  
     324A      1.569050   325A      1.575112   326A      1.580043  
     327A      1.593368   328A      1.599225   329A      1.612743  
     330A      1.614059   331A      1.624171   332A      1.629076  
     333A      1.633082   334A      1.637858   335A      1.646571  
     336A      1.660012   337A      1.661208   338A      1.669570  
     339A      1.675983   340A      1.679616   341A      1.690321  
     342A      1.694567   343A      1.702930   344A      1.705225  
     345A      1.708263   346A      1.712799   347A      1.718416  
     348A      1.723457   349A      1.735945   350A      1.741881  
     351A      1.747066   352A      1.749772   353A      1.755481  
     354A      1.764186   355A      1.779963   356A      1.781310  
     357A      1.795503   358A      1.800318   359A      1.810960  
     360A      1.816442   361A      1.826140   362A      1.838078  
     363A      1.843476   364A      1.848962   365A      1.856405  
     366A      1.867951   367A      1.870779   368A      1.880713  
     369A      1.886321   370A      1.898231   371A      1.901498  
     372A      1.911643   373A      1.914864   374A      1.925956  
     375A      1.929287   376A      1.947008   377A      1.958946  
     378A      1.966410   379A      1.976743   380A      1.980730  
     381A      1.985921   382A      2.012119   383A      2.019314  
     384A      2.028945   385A      2.038265   386A      2.046472  
     387A      2.057214   388A      2.062201   389A      2.067299  
     390A      2.082948   391A      2.094950   392A      2.097726  
     393A      2.107765   394A      2.111824   395A      2.120116  
     396A      2.130110   397A      2.136066   398A      2.142274  
     399A      2.169432   400A      2.173153   401A      2.190124  
     402A      2.193290   403A      2.203324   404A      2.215802  
     405A      2.223584   406A      2.225476   407A      2.241733  
     408A      2.256007   409A      2.257031   410A      2.267165  
     411A      2.278209   412A      2.284484   413A      2.294448  
     414A      2.301771   415A      2.315644   416A      2.334084  
     417A      2.337053   418A      2.341193   419A      2.352144  
     420A      2.358335   421A      2.382896   422A      2.393189  
     423A      2.402587   424A      2.415849   425A      2.427858  
     426A      2.433869   427A      2.436961   428A      2.447424  
     429A      2.457363   430A      2.471092   431A      2.479697  
     432A      2.502436   433A      2.509033   434A      2.509475  
     435A      2.524362   436A      2.536205   437A      2.555081  
     438A      2.563440   439A      2.579338   440A      2.595664  
     441A      2.597752   442A      2.608583   443A      2.632137  
     444A      2.637888   445A      2.644034   446A      2.661259  
     447A      2.672231   448A      2.684127   449A      2.690406  
     450A      2.708939   451A      2.717907   452A      2.741924  
     453A      2.757928   454A      2.772200   455A      2.783411  
     456A      2.808468   457A      2.840604   458A      2.846376  
     459A      2.869042   460A      2.871774   461A      2.883945  
     462A      2.900986   463A      2.925645   464A      2.941056  
     465A      2.964214   466A      2.989661   467A      3.005270  
     468A      3.036296   469A      3.064528   470A      3.082291  
     471A      3.092028   472A      3.102749   473A      3.139022  
     474A      3.144551   475A      3.184170   476A      3.192187  
     477A      3.218626   478A      3.234986   479A      3.254187  
     480A      3.264582   481A      3.306964   482A      3.333535  
     483A      3.339415   484A      3.345595   485A      3.364902  
     486A      3.391322   487A      3.397348   488A      3.409508  
     489A      3.437419   490A      3.453952   491A      3.471349  
     492A      3.484048   493A      3.488589   494A      3.510600  
     495A      3.531391   496A      3.539377   497A      3.543695  
     498A      3.567021   499A      3.571933   500A      3.583248  
     501A      3.596826   502A      3.617901   503A      3.627202  
     504A      3.637766   505A      3.639631   506A      3.645693  
     507A      3.653737   508A      3.674524   509A      3.679379  
     510A      3.703443   511A      3.708486   512A      3.710471  
     513A      3.728888   514A      3.731138   515A      3.744432  
     516A      3.752264   517A      3.765696   518A      3.772713  
     519A      3.778965   520A      3.801092   521A      3.805766  
     522A      3.811120   523A      3.825315   524A      3.827753  
     525A      3.842543   526A      3.852269   527A      3.855649  
     528A      3.870915   529A      3.877122   530A      3.891495  
     531A      3.899756   532A      3.901592   533A      3.911688  
     534A      3.919154   535A      3.922027   536A      3.946874  
     537A      3.950446   538A      3.953728   539A      3.965451  
     540A      3.969022   541A      3.980660   542A      3.988648  
     543A      4.006333   544A      4.016225   545A      4.026885  
     546A      4.029410   547A      4.041366   548A      4.054458  
     549A      4.074594   550A      4.084718   551A      4.097029  
     552A      4.101280   553A      4.110395   554A      4.117233  
     555A      4.120812   556A      4.127611   557A      4.139296  
     558A      4.146647   559A      4.155823   560A      4.161836  
     561A      4.176146   562A      4.189673   563A      4.197271  
     564A      4.210686   565A      4.220220   566A      4.229392  
     567A      4.242609   568A      4.243030   569A      4.260817  
     570A      4.266568   571A      4.278009   572A      4.285366  
     573A      4.288477   574A      4.297086   575A      4.310338  
     576A      4.330310   577A      4.331730   578A      4.346531  
     579A      4.364240   580A      4.379156   581A      4.385270  
     582A      4.403782   583A      4.409640   584A      4.419553  
     585A      4.441684   586A      4.448994   587A      4.460083  
     588A      4.464381   589A      4.480422   590A      4.484874  
     591A      4.502996   592A      4.519219   593A      4.523567  
     594A      4.544462   595A      4.551356   596A      4.565999  
     597A      4.579090   598A      4.590553   599A      4.634676  
     600A      4.641465   601A      4.651751   602A      4.658171  
     603A      4.680140   604A      4.685717   605A      4.696963  
     606A      4.714367   607A      4.734714   608A      4.752438  
     609A      4.759243   610A      4.772943   611A      4.776221  
     612A      4.799723   613A      4.832117   614A      4.841197  
     615A      4.846737   616A      4.865561   617A      4.871816  
     618A      4.887966   619A      4.898004   620A      4.917198  
     621A      4.926611   622A      4.928823   623A      4.948794  
     624A      4.961873   625A      4.971954   626A      4.977957  
     627A      5.002420   628A      5.007460   629A      5.018618  
     630A      5.049014   631A      5.074272   632A      5.085294  
     633A      5.102806   634A      5.111916   635A      5.117144  
     636A      5.135749   637A      5.142496   638A      5.158384  
     639A      5.178959   640A      5.189623   641A      5.203205  
     642A      5.206838   643A      5.218616   644A      5.242599  
     645A      5.262100   646A      5.268547   647A      5.286603  
     648A      5.296466   649A      5.311820   650A      5.326530  
     651A      5.339692   652A      5.347520   653A      5.367662  
     654A      5.398208   655A      5.421913   656A      5.442652  
     657A      5.446510   658A      5.473694   659A      5.495720  
     660A      5.517277   661A      5.534182   662A      5.537884  
     663A      5.551920   664A      5.560428   665A      5.577735  
     666A      5.587706   667A      5.603399   668A      5.653228  
     669A      5.655989   670A      5.672611   671A      5.682116  
     672A      5.700213   673A      5.732146   674A      5.737150  
     675A      5.753313   676A      5.760504   677A      5.790688  
     678A      5.803278   679A      5.812954   680A      5.836145  
     681A      5.862558   682A      5.866120   683A      5.877526  
     684A      5.892701   685A      5.913116   686A      5.923339  
     687A      5.945795   688A      5.958087   689A      5.966840  
     690A      5.974010   691A      6.001935   692A      6.012144  
     693A      6.046171   694A      6.075268   695A      6.120062  
     696A      6.146809   697A      6.153517   698A      6.168366  
     699A      6.177654   700A      6.183144   701A      6.193048  
     702A      6.214620   703A      6.244527   704A      6.257365  
     705A      6.268148   706A      6.314033   707A      6.323960  
     708A      6.345872   709A      6.400284   710A      6.415069  
     711A      6.424202   712A      6.483282   713A      6.542381  
     714A      6.593340   715A      6.615784   716A      6.637326  
     717A      6.658574   718A      6.728031   719A      6.743241  
     720A      6.762081   721A      6.803376   722A      6.812962  
     723A      6.827004   724A      6.842875   725A      6.872614  
     726A      6.883956   727A      6.906021   728A      6.931335  
     729A      6.976074   730A      6.995917   731A      7.024049  
     732A      7.047423   733A      7.077086   734A      7.096392  
     735A      7.115255   736A      7.133998   737A      7.158754  
     738A      7.223171   739A      7.285345   740A      7.345718  
     741A      7.367947   742A      7.510058   743A      7.546246  
     744A      7.790455   745A      7.809286   746A      7.838844  
     747A      7.981487   748A      8.128811   749A     15.308915  
     750A     16.570135   751A     16.652509   752A     17.091709  
     753A     18.091986   754A     18.545884   755A     18.710091  
     756A     19.122630   757A     19.605986   758A     20.507407  
     759A     21.007211  

    Final Occupation by Irrep:
              A 
    DOCC [    41 ]

  @DF-RHF Final Energy:  -509.85724809686280

   => Energetics <=

    Nuclear Repulsion Energy =            629.1475709428344771
    One-Electron Energy =               -1941.8963215904577737
    Two-Electron Energy =                 802.8915025507603787
    Total Energy =                       -509.8572480968628042

Computation Completed

*** tstop() called on node37.bme.utexas.edu at Tue Feb  2 00:09:59 2021
Module time:
	user time   =     595.91 seconds =       9.93 minutes
	system time =     144.21 seconds =       2.40 minutes
	total time  =        187 seconds =       3.12 minutes
Total time:
	user time   =     595.91 seconds =       9.93 minutes
	system time =     144.21 seconds =       2.40 minutes
	total time  =        187 seconds =       3.12 minutes
   => Loading Basis Set <=

    Name: (AUG-CC-PVTZ AUX)
    Role: RIFIT
    Keyword: DF_BASIS_MP2
    atoms 1     entry O          line   264 file /home/xy3866/psi4conda/share/psi4/basis/aug-cc-pvtz-ri.gbs 
    atoms 2-4   entry N          line   206 file /home/xy3866/psi4conda/share/psi4/basis/aug-cc-pvtz-ri.gbs 
    atoms 5-11  entry C          line   148 file /home/xy3866/psi4conda/share/psi4/basis/aug-cc-pvtz-ri.gbs 
    atoms 12-22 entry H          line    30 file /home/xy3866/psi4conda/share/psi4/basis/aug-cc-pvtz-ri.gbs 


*** tstart() called on node37.bme.utexas.edu
*** at Tue Feb  2 00:09:59 2021


  //>>>>>>>>>>>>>>>>>>>>>>>>>>>>>>>>>>>//
  //               DFMP2               //
  //<<<<<<<<<<<<<<<<<<<<<<<<<<<<<<<<<<<//

	 --------------------------------------------------------
	                          DF-MP2                         
	      2nd-Order Density-Fitted Moller-Plesset Theory     
	              RMP2 Wavefunction,   8 Threads             
	                                                         
	        Rob Parrish, Justin Turney, Andy Simmonett,      
	           Ed Hohenstein, and C. David Sherrill          
	 --------------------------------------------------------

   => Auxiliary Basis Set <=

  Basis Set: (AUG-CC-PVTZ AUX)
    Blend: AUG-CC-PVTZ-RI
    Number of shells: 462
    Number of basis function: 1672
    Number of Cartesian functions: 2101
    Spherical Harmonics?: true
    Max angular momentum: 4

	 --------------------------------------------------------
	                 NBF =   759, NAUX =  1672
	 --------------------------------------------------------
	   CLASS    FOCC     OCC    AOCC    AVIR     VIR    FVIR
	   PAIRS       0      41      41     718     718       0
	 --------------------------------------------------------

  DFHelper Memory: AOs need 6.736 GiB; user supplied 22.352 GiB. Using in-core AOs.


         ------------------------------------------------------------
                                     CPHF                           
                                  Rob Parrish                       
         ------------------------------------------------------------

  ==> Geometry <==

    Molecular point group: c1
    Full point group: C1

    Geometry (in Angstrom), charge = 0, multiplicity = 1:

       Center              X                  Y                   Z               Mass       
    ------------   -----------------  -----------------  -----------------  -----------------
         O           -0.800059757079     1.726894852165    -0.418847628852    15.994914619570
         N            1.653327242921     0.480749852165     0.155502371148    14.003074004430
         N           -1.936219857079    -0.224894847835     0.068825171148    14.003074004430
         N            0.730956242921    -1.502861147835    -0.331131628852    14.003074004430
         C            0.485270242921    -0.210095147835    -0.065637628852    12.000000000000
         C           -0.808591757079     0.510784852165    -0.145696628852    12.000000000000
         C            2.678482242921    -0.421638147835     0.037541371148    12.000000000000
         C            1.833655242921     1.902465852165     0.442356371148    12.000000000000
         C           -3.223472757079     0.509558852165    -0.143251628852    12.000000000000
         C           -2.083311757079    -1.540147147835     0.581181371148    12.000000000000
         C            2.088086242921    -1.633236147835    -0.262804628852    12.000000000000
         H            3.708849242921    -0.129392147835     0.185300371148     1.007825032230
         H            1.106492242921     2.224901852165     1.184782371148     1.007825032230
         H            2.845606242921     2.033855852165     0.828831371148     1.007825032230
         H            1.689059242921     2.490237852165    -0.462846628852     1.007825032230
         H           -3.879729757079    -0.109382147835    -0.763275628852     1.007825032230
         H           -3.024519757079     1.458037852165    -0.637707628852     1.007825032230
         H           -3.720643757079     0.697374852165     0.815697371148     1.007825032230
         H           -1.107242757079    -1.941416147835     0.832219371148     1.007825032230
         H           -2.542253757079    -2.192372147835    -0.169760628852     1.007825032230
         H           -2.726811757079    -1.521017147835     1.468452371148     1.007825032230
         H            2.572145242921    -2.586084147835    -0.433227628852     1.007825032230

  Nuclear repulsion =  629.147570942834477
  Reference energy  = -509.857248096862804

  ==> Basis Set <==

  Basis Set: AUG-CC-PVTZ
    Blend: AUG-CC-PVTZ
    Number of shells: 253
    Number of basis function: 759
    Number of Cartesian functions: 880
    Spherical Harmonics?: true
    Max angular momentum: 3

  ==> CGRSolver (by Rob Parrish) <==

   Number of roots    =         1
   Preconditioning    =    JACOBI
   Convergence cutoff =     1E-06
   Maximum iterations =       100

  ==> CPHFRHamiltonian (by Rob Parrish) <== 

  ==> MemDFJK: Density-Fitted J/K Matrices <==

    J tasked:                   Yes
    K tasked:                   Yes
    wK tasked:                   No
    OpenMP threads:               8
    Memory [MiB]:             22888
    Algorithm:                 Disk
    Schwarz Cutoff:           1E-12
    Mask sparsity (%):       7.2893
    Fitting Condition:        1E-10

   => Auxiliary Basis Set <=

  Basis Set: (AUG-CC-PVTZ AUX)
    Blend: AUG-CC-PVTZ-JKFIT
    Number of shells: 484
    Number of basis function: 1650
    Number of Cartesian functions: 2046
    Spherical Harmonics?: true
    Max angular momentum: 4

  ==> CPHF Iterations <==

  => Iterations <=

             Iter  Converged  Remaining    Residual
  CGR           1          0          1   1.184E-01
  CGR           2          0          1   3.997E-02
  CGR           3          0          1   1.787E-02
  CGR           4          0          1   6.429E-03
  CGR           5          0          1   2.797E-03
  CGR           6          0          1   1.262E-03
  CGR           7          0          1   4.900E-04
  CGR           8          0          1   1.630E-04
  CGR           9          0          1   5.089E-05
  CGR          10          0          1   1.960E-05
  CGR          11          0          1   7.946E-06
  CGR          12          0          1   3.700E-06
  CGR          13          0          1   1.605E-06
  CGR          14          1          0   4.313E-07

    CGRSolver converged.

	-----------------------------------------------------------
	 ==================> DF-MP2 Energies <==================== 
	-----------------------------------------------------------
	 Reference Energy          =    -509.8572480968628042 [Eh]
	 Singles Energy            =      -0.0000000000000000 [Eh]
	 Same-Spin Energy          =      -0.5441913003868586 [Eh]
	 Opposite-Spin Energy      =      -1.6960207307418709 [Eh]
	 Correlation Energy        =      -2.2402120311287295 [Eh]
	 Total Energy              =    -512.0974601279915532 [Eh]
	-----------------------------------------------------------
	 ================> DF-SCS-MP2 Energies <================== 
	-----------------------------------------------------------
	 SCS Same-Spin Scale       =       0.3333333333333333 [-]
	 SCS Opposite-Spin Scale   =       1.2000000000000000 [-]
	 SCS Same-Spin Energy      =      -0.1813971001289529 [Eh]
	 SCS Opposite-Spin Energy  =      -2.0352248768902448 [Eh]
	 SCS Correlation Energy    =      -2.2166219770191975 [Eh]
	 SCS Total Energy          =    -512.0738700738819489 [Eh]
	-----------------------------------------------------------



Properties will be evaluated at  -0.000000,   0.000000,   0.000000 [a0]

Properties computed using the MP2 density matrix

  Nuclear Dipole Moment: [e a0]
     X:    -4.7666      Y:     0.4101      Z:     2.6686

  Electronic Dipole Moment: [e a0]
     X:     5.0235      Y:    -0.3777      Z:    -1.9983

  Dipole Moment: [e a0]
     X:     0.2569      Y:     0.0324      Z:     0.6704     Total:     0.7186

  Dipole Moment: [D]
     X:     0.6529      Y:     0.0824      Z:     1.7040     Total:     1.8266


*** tstop() called on node37.bme.utexas.edu at Tue Feb  2 00:16:38 2021
Module time:
	user time   =    1902.12 seconds =      31.70 minutes
	system time =     249.12 seconds =       4.15 minutes
	total time  =        399 seconds =       6.65 minutes
Total time:
	user time   =    2498.30 seconds =      41.64 minutes
	system time =     393.34 seconds =       6.56 minutes
	total time  =        586 seconds =       9.77 minutes

    Psi4 stopped on: Tuesday, 02 February 2021 12:16AM
    Psi4 wall time for execution: 0:09:46.99

*** Psi4 exiting successfully. Buy a developer a beer!
