
    -----------------------------------------------------------------------
          Psi4: An Open-Source Ab Initio Electronic Structure Package
                               Psi4 1.3.2 release

                         Git: Rev {HEAD} ecbda83 


    R. M. Parrish, L. A. Burns, D. G. A. Smith, A. C. Simmonett,
    A. E. DePrince III, E. G. Hohenstein, U. Bozkaya, A. Yu. Sokolov,
    R. Di Remigio, R. M. Richard, J. F. Gonthier, A. M. James,
    H. R. McAlexander, A. Kumar, M. Saitow, X. Wang, B. P. Pritchard,
    P. Verma, H. F. Schaefer III, K. Patkowski, R. A. King, E. F. Valeev,
    F. A. Evangelista, J. M. Turney, T. D. Crawford, and C. D. Sherrill,
    J. Chem. Theory Comput. 13(7) pp 3185--3197 (2017).
    (doi: 10.1021/acs.jctc.7b00174)


                         Additional Contributions by
    P. Kraus, H. Kruse, M. H. Lechner, M. C. Schieber, R. A. Shaw,
    A. Alenaizan, R. Galvelis, Z. L. Glick, S. Lehtola, and J. P. Misiewicz

    -----------------------------------------------------------------------


    Psi4 started on: Tuesday, 02 February 2021 07:00AM

    Process ID: 46524
    Host:       node37.bme.utexas.edu
    PSIDATADIR: /home/xy3866/psi4conda/share/psi4
    Memory:     500.0 MiB
    Threads:    8
    
  ==> Input File <==

--------------------------------------------------------------------------
#psi4
#
memory 32 gb

molecule  {
0 1
  O       -0.7670850     1.7208920    -0.4354900
  N        1.6863020     0.4747470     0.1388600
  N       -1.9291830    -0.1915810     0.0453950
  N        0.7639310    -1.5088640    -0.3477740
  C        0.5182450    -0.2160980    -0.0822800
  C       -0.7756170     0.5047820    -0.1623390
  C        2.7271288    -0.4100819     0.0251982
  C        1.8666300     1.8964630     0.4257140
  C       -3.1904980     0.5035560    -0.1598940
  C       -2.0503370    -1.5461500     0.5645390
  C        2.1210610    -1.6392390    -0.2794470
  H        3.7418240    -0.1353950     0.1686580
  H        1.1394670     2.2188990     1.1681400
  H        2.8785810     2.0278530     0.8121890
  H        1.7220340     2.4842350    -0.4794890
  H       -3.8467550    -0.1153850    -0.7799180
  H       -2.9915450     1.4520350    -0.6543500
  H       -3.6876690     0.6913720     0.7990550
  H       -1.0742680    -1.9474190     0.8155770
  H       -2.5092790    -2.1983750    -0.1864030
  H       -2.6938370    -1.5270200     1.4518100
  H        2.6051200    -2.5920870    -0.4498700
units angstrom
no_reorient  #important for SAPT in psi4, default
symmetry c1  #important for SAPT in psi4, default
}

set PROPERTIES_ORIGIN ["COM"]
properties('MP2/aug-cc-pvtz', properties = ['dipole'])
--------------------------------------------------------------------------

  Memory set to  29.802 GiB by Python driver.
    SCF Algorithm Type (re)set to DF.

*** tstart() called on node37.bme.utexas.edu
*** at Tue Feb  2 07:00:38 2021

   => Loading Basis Set <=

    Name: AUG-CC-PVTZ
    Role: ORBITAL
    Keyword: BASIS
    atoms 1     entry O          line   327 file /home/xy3866/psi4conda/share/psi4/basis/aug-cc-pvtz.gbs 
    atoms 2-4   entry N          line   281 file /home/xy3866/psi4conda/share/psi4/basis/aug-cc-pvtz.gbs 
    atoms 5-11  entry C          line   235 file /home/xy3866/psi4conda/share/psi4/basis/aug-cc-pvtz.gbs 
    atoms 12-22 entry H          line    36 file /home/xy3866/psi4conda/share/psi4/basis/aug-cc-pvtz.gbs 


         ---------------------------------------------------------
                                   SCF
               by Justin Turney, Rob Parrish, Andy Simmonett
                          and Daniel G. A. Smith
                              RHF Reference
                        8 Threads,  30517 MiB Core
         ---------------------------------------------------------

  ==> Geometry <==

    Molecular point group: c1
    Full point group: C1

    Geometry (in Angstrom), charge = 0, multiplicity = 1:

       Center              X                  Y                   Z               Mass       
    ------------   -----------------  -----------------  -----------------  -----------------
         O           -0.798915668695     1.721922203360    -0.418563746133    15.994914619570
         N            1.654471331305     0.475777203360     0.155786253867    14.003074004430
         N           -1.961013668695    -0.190550796640     0.062321253867    14.003074004430
         N            0.732100331305    -1.507833796640    -0.330847746133    14.003074004430
         C            0.486414331305    -0.215067796640    -0.065353746133    12.000000000000
         C           -0.807447668695     0.505812203360    -0.145412746133    12.000000000000
         C            2.695298131305    -0.409051696640     0.042124453867    12.000000000000
         C            1.834799331305     1.897493203360     0.442640253867    12.000000000000
         C           -3.222328668695     0.504586203360    -0.142967746133    12.000000000000
         C           -2.082167668695    -1.545119796640     0.581465253867    12.000000000000
         C            2.089230331305    -1.638208796640    -0.262520746133    12.000000000000
         H            3.709993331305    -0.134364796640     0.185584253867     1.007825032230
         H            1.107636331305     2.219929203360     1.185066253867     1.007825032230
         H            2.846750331305     2.028883203360     0.829115253867     1.007825032230
         H            1.690203331305     2.485265203360    -0.462562746133     1.007825032230
         H           -3.878585668695    -0.114354796640    -0.762991746133     1.007825032230
         H           -3.023375668695     1.453065203360    -0.637423746133     1.007825032230
         H           -3.719499668695     0.692402203360     0.815981253867     1.007825032230
         H           -1.106098668695    -1.946388796640     0.832503253867     1.007825032230
         H           -2.541109668695    -2.197344796640    -0.169476746133     1.007825032230
         H           -2.725667668695    -1.525989796640     1.468736253867     1.007825032230
         H            2.573289331305    -2.591056796640    -0.432943746133     1.007825032230

  Running in c1 symmetry.

  Rotational constants: A =      0.06721  B =      0.02889  C =      0.02121 [cm^-1]
  Rotational constants: A =   2014.94787  B =    866.16945  C =    635.71523 [MHz]
  Nuclear repulsion =  628.633247314573964

  Charge       = 0
  Multiplicity = 1
  Electrons    = 82
  Nalpha       = 41
  Nbeta        = 41

  ==> Algorithm <==

  SCF Algorithm Type is DF.
  DIIS enabled.
  MOM disabled.
  Fractional occupation disabled.
  Guess Type is SAD.
  Energy threshold   = 1.00e-10
  Density threshold  = 1.00e-10
  Integral threshold = 0.00e+00

  ==> Primary Basis <==

  Basis Set: AUG-CC-PVTZ
    Blend: AUG-CC-PVTZ
    Number of shells: 253
    Number of basis function: 759
    Number of Cartesian functions: 880
    Spherical Harmonics?: true
    Max angular momentum: 3

   => Loading Basis Set <=

    Name: (AUG-CC-PVTZ AUX)
    Role: JKFIT
    Keyword: DF_BASIS_SCF
    atoms 1     entry O          line   286 file /home/xy3866/psi4conda/share/psi4/basis/aug-cc-pvtz-jkfit.gbs 
    atoms 2-4   entry N          line   224 file /home/xy3866/psi4conda/share/psi4/basis/aug-cc-pvtz-jkfit.gbs 
    atoms 5-11  entry C          line   162 file /home/xy3866/psi4conda/share/psi4/basis/aug-cc-pvtz-jkfit.gbs 
    atoms 12-22 entry H          line    70 file /home/xy3866/psi4conda/share/psi4/basis/aug-cc-pvtz-jkfit.gbs 

  ==> Pre-Iterations <==

   -------------------------------------------------------
    Irrep   Nso     Nmo     Nalpha   Nbeta   Ndocc  Nsocc
   -------------------------------------------------------
     A        759     759       0       0       0       0
   -------------------------------------------------------
    Total     759     759      41      41      41       0
   -------------------------------------------------------

  ==> Integral Setup <==

  DFHelper Memory: AOs need 6.734 GiB; user supplied 22.352 GiB. Using in-core AOs.

  ==> MemDFJK: Density-Fitted J/K Matrices <==

    J tasked:                   Yes
    K tasked:                   Yes
    wK tasked:                   No
    OpenMP threads:               8
    Memory [MiB]:             22888
    Algorithm:                 Disk
    Schwarz Cutoff:           1E-12
    Mask sparsity (%):       7.3156
    Fitting Condition:        1E-10

   => Auxiliary Basis Set <=

  Basis Set: (AUG-CC-PVTZ AUX)
    Blend: AUG-CC-PVTZ-JKFIT
    Number of shells: 484
    Number of basis function: 1650
    Number of Cartesian functions: 2046
    Spherical Harmonics?: true
    Max angular momentum: 4

  Minimum eigenvalue in the overlap matrix is 1.2426638011E-06.
  Using Symmetric Orthogonalization.

  SCF Guess: Superposition of Atomic Densities via on-the-fly atomic UHF.

  ==> Iterations <==

                           Total Energy        Delta E     RMS |[F,P]|

   @DF-RHF iter SAD:  -509.30152979289892   -5.09302e+02   0.00000e+00 
   @DF-RHF iter   1:  -509.56443235954060   -2.62903e-01   9.54637e-04 DIIS
   @DF-RHF iter   2:  -509.79487424741785   -2.30442e-01   5.20763e-04 DIIS
   @DF-RHF iter   3:  -509.85224413034541   -5.73699e-02   1.32720e-04 DIIS
   @DF-RHF iter   4:  -509.85778332783264   -5.53920e-03   4.64639e-05 DIIS
   @DF-RHF iter   5:  -509.85856470667136   -7.81379e-04   1.09057e-05 DIIS
   @DF-RHF iter   6:  -509.85863341086360   -6.87042e-05   5.44571e-06 DIIS
   @DF-RHF iter   7:  -509.85865235066882   -1.89398e-05   1.93033e-06 DIIS
   @DF-RHF iter   8:  -509.85865646407785   -4.11341e-06   8.32620e-07 DIIS
   @DF-RHF iter   9:  -509.85865706405639   -5.99979e-07   3.85957e-07 DIIS
   @DF-RHF iter  10:  -509.85865716991282   -1.05856e-07   1.24537e-07 DIIS
   @DF-RHF iter  11:  -509.85865718158050   -1.16677e-08   4.51555e-08 DIIS
   @DF-RHF iter  12:  -509.85865718321344   -1.63294e-09   1.74933e-08 DIIS
   @DF-RHF iter  13:  -509.85865718351528   -3.01839e-10   5.93277e-09 DIIS
   @DF-RHF iter  14:  -509.85865718355757   -4.22915e-11   2.67616e-09 DIIS
   @DF-RHF iter  15:  -509.85865718356746   -9.89075e-12   1.37796e-09 DIIS
   @DF-RHF iter  16:  -509.85865718356735    1.13687e-13   5.11724e-10 DIIS
   @DF-RHF iter  17:  -509.85865718356831   -9.66338e-13   2.46153e-10 DIIS
   @DF-RHF iter  18:  -509.85865718356774    5.68434e-13   7.17379e-11 DIIS
  Energy and wave function converged.


  ==> Post-Iterations <==

    Orbital Energies [Eh]
    ---------------------

    Doubly Occupied:                                                      

       1A    -20.517456     2A    -15.635523     3A    -15.592019  
       4A    -15.562652     5A    -11.363039     6A    -11.305229  
       7A    -11.271783     8A    -11.270630     9A    -11.255432  
      10A    -11.254552    11A    -11.252808    12A     -1.380317  
      13A     -1.341147    14A     -1.245486    15A     -1.189360  
      16A     -1.030130    17A     -0.976450    18A     -0.966688  
      19A     -0.938571    20A     -0.830036    21A     -0.814075  
      22A     -0.741180    23A     -0.710317    24A     -0.663387  
      25A     -0.655320    26A     -0.648554    27A     -0.639972  
      28A     -0.607813    29A     -0.589909    30A     -0.574425  
      31A     -0.564591    32A     -0.556341    33A     -0.554477  
      34A     -0.552873    35A     -0.527215    36A     -0.522486  
      37A     -0.450947    38A     -0.428856    39A     -0.392374  
      40A     -0.373130    41A     -0.317473  

    Virtual:                                                              

      42A      0.025938    43A      0.031268    44A      0.035127  
      45A      0.040515    46A      0.047016    47A      0.047719  
      48A      0.053385    49A      0.060102    50A      0.064613  
      51A      0.068808    52A      0.075910    53A      0.081745  
      54A      0.087909    55A      0.099605    56A      0.107277  
      57A      0.108137    58A      0.113676    59A      0.116817  
      60A      0.118153    61A      0.120749    62A      0.123737  
      63A      0.125014    64A      0.128238    65A      0.138433  
      66A      0.140558    67A      0.141409    68A      0.147376  
      69A      0.154691    70A      0.157851    71A      0.160472  
      72A      0.161894    73A      0.169141    74A      0.174537  
      75A      0.177677    76A      0.180518    77A      0.187503  
      78A      0.199349    79A      0.202115    80A      0.215007  
      81A      0.219197    82A      0.220880    83A      0.229817  
      84A      0.235524    85A      0.242291    86A      0.243794  
      87A      0.247382    88A      0.251641    89A      0.254105  
      90A      0.261331    91A      0.263835    92A      0.267496  
      93A      0.276474    94A      0.282187    95A      0.285775  
      96A      0.289312    97A      0.291257    98A      0.297904  
      99A      0.302135   100A      0.315419   101A      0.322341  
     102A      0.324956   103A      0.328231   104A      0.331363  
     105A      0.335252   106A      0.341224   107A      0.343458  
     108A      0.351567   109A      0.354721   110A      0.358073  
     111A      0.362442   112A      0.364783   113A      0.370396  
     114A      0.372845   115A      0.379016   116A      0.381133  
     117A      0.381549   118A      0.386310   119A      0.389003  
     120A      0.396802   121A      0.399182   122A      0.403257  
     123A      0.411370   124A      0.413175   125A      0.413886  
     126A      0.426560   127A      0.428396   128A      0.433108  
     129A      0.436381   130A      0.442487   131A      0.446873  
     132A      0.449535   133A      0.453187   134A      0.457162  
     135A      0.458543   136A      0.464998   137A      0.470271  
     138A      0.474407   139A      0.477352   140A      0.481822  
     141A      0.485369   142A      0.488998   143A      0.490287  
     144A      0.496171   145A      0.500377   146A      0.504566  
     147A      0.506625   148A      0.509059   149A      0.512695  
     150A      0.518150   151A      0.518413   152A      0.528065  
     153A      0.530571   154A      0.533181   155A      0.538132  
     156A      0.538895   157A      0.543987   158A      0.550309  
     159A      0.557002   160A      0.559308   161A      0.566549  
     162A      0.571608   163A      0.571885   164A      0.580362  
     165A      0.583587   166A      0.591570   167A      0.594628  
     168A      0.605447   169A      0.608167   170A      0.611484  
     171A      0.624698   172A      0.625724   173A      0.635641  
     174A      0.641968   175A      0.645392   176A      0.646722  
     177A      0.656812   178A      0.665589   179A      0.675742  
     180A      0.680053   181A      0.689942   182A      0.693865  
     183A      0.703733   184A      0.708498   185A      0.709423  
     186A      0.714722   187A      0.723999   188A      0.734874  
     189A      0.740950   190A      0.748082   191A      0.752606  
     192A      0.761032   193A      0.767930   194A      0.775812  
     195A      0.779980   196A      0.786090   197A      0.799828  
     198A      0.803050   199A      0.807929   200A      0.820329  
     201A      0.827692   202A      0.831932   203A      0.832757  
     204A      0.839851   205A      0.844613   206A      0.849307  
     207A      0.851912   208A      0.862163   209A      0.868284  
     210A      0.871806   211A      0.875567   212A      0.885951  
     213A      0.886790   214A      0.893417   215A      0.897289  
     216A      0.906701   217A      0.910503   218A      0.913943  
     219A      0.922492   220A      0.926104   221A      0.929168  
     222A      0.936375   223A      0.942392   224A      0.946731  
     225A      0.949208   226A      0.953609   227A      0.961110  
     228A      0.965983   229A      0.968196   230A      0.975940  
     231A      0.979820   232A      0.985281   233A      0.996785  
     234A      0.999526   235A      1.002780   236A      1.005802  
     237A      1.013443   238A      1.017830   239A      1.023511  
     240A      1.030356   241A      1.035557   242A      1.041059  
     243A      1.046895   244A      1.053625   245A      1.060781  
     246A      1.061963   247A      1.066362   248A      1.069186  
     249A      1.077236   250A      1.080994   251A      1.085347  
     252A      1.088976   253A      1.093192   254A      1.096689  
     255A      1.106172   256A      1.107987   257A      1.115707  
     258A      1.119764   259A      1.136617   260A      1.142899  
     261A      1.143967   262A      1.151207   263A      1.157570  
     264A      1.162054   265A      1.167970   266A      1.174051  
     267A      1.182009   268A      1.187510   269A      1.190494  
     270A      1.193497   271A      1.204453   272A      1.205418  
     273A      1.212288   274A      1.217325   275A      1.223417  
     276A      1.237243   277A      1.241084   278A      1.245726  
     279A      1.250918   280A      1.254800   281A      1.269763  
     282A      1.272812   283A      1.278979   284A      1.280743  
     285A      1.298345   286A      1.307512   287A      1.308594  
     288A      1.318594   289A      1.323755   290A      1.331192  
     291A      1.336438   292A      1.347751   293A      1.351745  
     294A      1.366707   295A      1.371209   296A      1.377521  
     297A      1.384828   298A      1.391422   299A      1.396826  
     300A      1.404937   301A      1.412520   302A      1.417540  
     303A      1.427192   304A      1.433710   305A      1.438316  
     306A      1.446206   307A      1.452135   308A      1.455995  
     309A      1.465834   310A      1.470425   311A      1.471586  
     312A      1.482332   313A      1.488408   314A      1.496403  
     315A      1.501379   316A      1.509359   317A      1.514767  
     318A      1.521248   319A      1.529477   320A      1.531763  
     321A      1.541065   322A      1.559912   323A      1.562127  
     324A      1.567993   325A      1.574705   326A      1.577692  
     327A      1.592626   328A      1.598436   329A      1.611329  
     330A      1.613442   331A      1.624072   332A      1.628608  
     333A      1.632233   334A      1.637168   335A      1.647613  
     336A      1.660515   337A      1.661130   338A      1.669411  
     339A      1.675503   340A      1.678112   341A      1.688327  
     342A      1.695047   343A      1.703233   344A      1.703993  
     345A      1.706491   346A      1.713159   347A      1.719229  
     348A      1.723764   349A      1.736832   350A      1.743228  
     351A      1.745145   352A      1.748518   353A      1.755314  
     354A      1.765101   355A      1.778567   356A      1.780134  
     357A      1.793056   358A      1.798920   359A      1.809485  
     360A      1.818046   361A      1.825279   362A      1.838134  
     363A      1.842333   364A      1.849557   365A      1.855264  
     366A      1.866315   367A      1.872396   368A      1.879504  
     369A      1.885836   370A      1.895245   371A      1.900509  
     372A      1.913276   373A      1.914814   374A      1.927129  
     375A      1.929678   376A      1.945856   377A      1.956650  
     378A      1.963575   379A      1.976634   380A      1.982540  
     381A      1.986617   382A      2.012602   383A      2.019336  
     384A      2.026642   385A      2.039162   386A      2.046823  
     387A      2.055835   388A      2.061568   389A      2.068550  
     390A      2.085432   391A      2.092621   392A      2.096702  
     393A      2.109010   394A      2.112014   395A      2.120192  
     396A      2.129283   397A      2.136426   398A      2.143289  
     399A      2.168916   400A      2.172907   401A      2.189628  
     402A      2.190251   403A      2.204136   404A      2.213848  
     405A      2.222349   406A      2.226258   407A      2.243777  
     408A      2.254823   409A      2.257985   410A      2.266237  
     411A      2.278204   412A      2.284730   413A      2.295895  
     414A      2.304259   415A      2.318400   416A      2.332949  
     417A      2.337016   418A      2.343409   419A      2.353348  
     420A      2.356859   421A      2.379660   422A      2.391098  
     423A      2.401048   424A      2.413735   425A      2.429810  
     426A      2.432318   427A      2.436050   428A      2.446744  
     429A      2.455553   430A      2.473246   431A      2.478800  
     432A      2.499421   433A      2.507431   434A      2.515623  
     435A      2.528803   436A      2.537893   437A      2.553684  
     438A      2.560437   439A      2.580732   440A      2.591999  
     441A      2.595180   442A      2.608608   443A      2.633519  
     444A      2.637833   445A      2.647570   446A      2.661071  
     447A      2.672284   448A      2.683348   449A      2.693648  
     450A      2.707601   451A      2.718775   452A      2.734264  
     453A      2.756366   454A      2.768156   455A      2.777921  
     456A      2.801012   457A      2.836886   458A      2.847139  
     459A      2.869366   460A      2.878545   461A      2.889318  
     462A      2.896069   463A      2.917560   464A      2.939542  
     465A      2.975982   466A      2.994080   467A      3.010684  
     468A      3.030855   469A      3.060771   470A      3.072831  
     471A      3.089160   472A      3.100658   473A      3.132190  
     474A      3.146092   475A      3.173390   476A      3.188222  
     477A      3.212083   478A      3.231985   479A      3.255080  
     480A      3.271416   481A      3.304994   482A      3.326862  
     483A      3.332569   484A      3.343547   485A      3.365137  
     486A      3.383164   487A      3.393447   488A      3.407197  
     489A      3.435334   490A      3.449308   491A      3.466161  
     492A      3.483542   493A      3.489023   494A      3.510892  
     495A      3.531057   496A      3.542565   497A      3.545917  
     498A      3.564268   499A      3.571282   500A      3.583428  
     501A      3.597862   502A      3.616694   503A      3.625316  
     504A      3.637707   505A      3.638930   506A      3.643615  
     507A      3.656152   508A      3.673900   509A      3.679704  
     510A      3.702733   511A      3.705389   512A      3.710491  
     513A      3.728659   514A      3.730263   515A      3.747378  
     516A      3.750532   517A      3.766353   518A      3.771778  
     519A      3.783031   520A      3.798035   521A      3.806366  
     522A      3.812611   523A      3.824232   524A      3.829599  
     525A      3.840643   526A      3.848394   527A      3.853861  
     528A      3.870417   529A      3.876870   530A      3.887416  
     531A      3.897953   532A      3.903315   533A      3.913753  
     534A      3.917334   535A      3.923953   536A      3.943420  
     537A      3.949322   538A      3.952744   539A      3.964259  
     540A      3.970293   541A      3.980356   542A      3.988762  
     543A      4.001928   544A      4.021293   545A      4.025766  
     546A      4.033284   547A      4.041603   548A      4.052298  
     549A      4.081316   550A      4.089695   551A      4.097331  
     552A      4.102267   553A      4.106851   554A      4.113593  
     555A      4.117184   556A      4.129343   557A      4.138620  
     558A      4.144307   559A      4.153074   560A      4.164215  
     561A      4.173593   562A      4.187606   563A      4.195351  
     564A      4.209434   565A      4.222075   566A      4.227550  
     567A      4.239942   568A      4.240051   569A      4.261700  
     570A      4.263863   571A      4.275244   572A      4.282882  
     573A      4.287544   574A      4.297503   575A      4.314007  
     576A      4.327710   577A      4.334664   578A      4.347453  
     579A      4.358300   580A      4.368055   581A      4.393449  
     582A      4.406404   583A      4.408690   584A      4.416217  
     585A      4.439481   586A      4.443249   587A      4.456039  
     588A      4.462518   589A      4.474388   590A      4.489825  
     591A      4.504979   592A      4.516583   593A      4.522408  
     594A      4.541718   595A      4.550113   596A      4.565171  
     597A      4.578224   598A      4.586146   599A      4.633301  
     600A      4.642910   601A      4.655570   602A      4.658865  
     603A      4.677591   604A      4.688317   605A      4.706103  
     606A      4.712434   607A      4.732764   608A      4.746962  
     609A      4.750601   610A      4.769135   611A      4.772393  
     612A      4.791078   613A      4.832783   614A      4.839729  
     615A      4.848383   616A      4.864165   617A      4.870715  
     618A      4.881109   619A      4.895357   620A      4.915479  
     621A      4.923889   622A      4.932876   623A      4.945033  
     624A      4.964625   625A      4.969901   626A      4.975831  
     627A      4.989607   628A      5.003830   629A      5.018633  
     630A      5.052384   631A      5.077013   632A      5.085352  
     633A      5.102023   634A      5.115182   635A      5.121818  
     636A      5.130300   637A      5.138720   638A      5.158749  
     639A      5.176320   640A      5.193810   641A      5.205169  
     642A      5.210608   643A      5.217364   644A      5.238130  
     645A      5.264639   646A      5.274291   647A      5.287562  
     648A      5.290620   649A      5.315856   650A      5.325637  
     651A      5.343431   652A      5.349601   653A      5.366445  
     654A      5.400802   655A      5.424735   656A      5.447248  
     657A      5.451678   658A      5.479663   659A      5.499529  
     660A      5.512780   661A      5.527787   662A      5.539278  
     663A      5.556084   664A      5.562075   665A      5.573644  
     666A      5.588549   667A      5.608260   668A      5.645852  
     669A      5.656706   670A      5.668100   671A      5.689741  
     672A      5.709033   673A      5.733804   674A      5.736675  
     675A      5.757292   676A      5.764395   677A      5.787431  
     678A      5.799952   679A      5.816314   680A      5.836426  
     681A      5.868509   682A      5.870629   683A      5.886686  
     684A      5.888098   685A      5.907728   686A      5.920396  
     687A      5.938404   688A      5.954402   689A      5.965026  
     690A      5.971973   691A      6.002800   692A      6.009417  
     693A      6.043867   694A      6.075840   695A      6.124371  
     696A      6.146736   697A      6.160109   698A      6.172305  
     699A      6.177480   700A      6.182336   701A      6.190652  
     702A      6.227018   703A      6.242724   704A      6.276806  
     705A      6.284030   706A      6.319950   707A      6.328002  
     708A      6.352397   709A      6.395659   710A      6.414403  
     711A      6.419455   712A      6.485440   713A      6.545521  
     714A      6.588905   715A      6.617958   716A      6.626719  
     717A      6.664585   718A      6.728946   719A      6.746563  
     720A      6.766610   721A      6.807582   722A      6.812689  
     723A      6.830442   724A      6.849839   725A      6.868388  
     726A      6.893734   727A      6.906951   728A      6.937403  
     729A      6.975675   730A      6.981887   731A      7.003124  
     732A      7.033073   733A      7.073478   734A      7.102268  
     735A      7.107161   736A      7.135464   737A      7.165100  
     738A      7.213659   739A      7.282369   740A      7.328809  
     741A      7.348653   742A      7.511246   743A      7.546390  
     744A      7.785811   745A      7.798170   746A      7.834203  
     747A      7.984008   748A      8.127256   749A     15.324185  
     750A     16.442274   751A     16.493941   752A     17.100487  
     753A     18.131722   754A     18.464917   755A     18.640232  
     756A     19.049590   757A     19.536048   758A     20.551683  
     759A     20.990036  

    Final Occupation by Irrep:
              A 
    DOCC [    41 ]

  @DF-RHF Final Energy:  -509.85865718356774

   => Energetics <=

    Nuclear Repulsion Energy =            628.6332473145739641
    One-Electron Energy =               -1940.8537700012725509
    Two-Electron Energy =                 802.3618655031308435
    Total Energy =                       -509.8586571835677432

Computation Completed

*** tstop() called on node37.bme.utexas.edu at Tue Feb  2 07:03:32 2021
Module time:
	user time   =     561.69 seconds =       9.36 minutes
	system time =     131.29 seconds =       2.19 minutes
	total time  =        174 seconds =       2.90 minutes
Total time:
	user time   =     561.69 seconds =       9.36 minutes
	system time =     131.29 seconds =       2.19 minutes
	total time  =        174 seconds =       2.90 minutes
   => Loading Basis Set <=

    Name: (AUG-CC-PVTZ AUX)
    Role: RIFIT
    Keyword: DF_BASIS_MP2
    atoms 1     entry O          line   264 file /home/xy3866/psi4conda/share/psi4/basis/aug-cc-pvtz-ri.gbs 
    atoms 2-4   entry N          line   206 file /home/xy3866/psi4conda/share/psi4/basis/aug-cc-pvtz-ri.gbs 
    atoms 5-11  entry C          line   148 file /home/xy3866/psi4conda/share/psi4/basis/aug-cc-pvtz-ri.gbs 
    atoms 12-22 entry H          line    30 file /home/xy3866/psi4conda/share/psi4/basis/aug-cc-pvtz-ri.gbs 


*** tstart() called on node37.bme.utexas.edu
*** at Tue Feb  2 07:03:32 2021


  //>>>>>>>>>>>>>>>>>>>>>>>>>>>>>>>>>>>//
  //               DFMP2               //
  //<<<<<<<<<<<<<<<<<<<<<<<<<<<<<<<<<<<//

	 --------------------------------------------------------
	                          DF-MP2                         
	      2nd-Order Density-Fitted Moller-Plesset Theory     
	              RMP2 Wavefunction,   8 Threads             
	                                                         
	        Rob Parrish, Justin Turney, Andy Simmonett,      
	           Ed Hohenstein, and C. David Sherrill          
	 --------------------------------------------------------

   => Auxiliary Basis Set <=

  Basis Set: (AUG-CC-PVTZ AUX)
    Blend: AUG-CC-PVTZ-RI
    Number of shells: 462
    Number of basis function: 1672
    Number of Cartesian functions: 2101
    Spherical Harmonics?: true
    Max angular momentum: 4

	 --------------------------------------------------------
	                 NBF =   759, NAUX =  1672
	 --------------------------------------------------------
	   CLASS    FOCC     OCC    AOCC    AVIR     VIR    FVIR
	   PAIRS       0      41      41     718     718       0
	 --------------------------------------------------------

  DFHelper Memory: AOs need 6.734 GiB; user supplied 22.352 GiB. Using in-core AOs.


         ------------------------------------------------------------
                                     CPHF                           
                                  Rob Parrish                       
         ------------------------------------------------------------

  ==> Geometry <==

    Molecular point group: c1
    Full point group: C1

    Geometry (in Angstrom), charge = 0, multiplicity = 1:

       Center              X                  Y                   Z               Mass       
    ------------   -----------------  -----------------  -----------------  -----------------
         O           -0.798915668695     1.721922203360    -0.418563746133    15.994914619570
         N            1.654471331305     0.475777203360     0.155786253867    14.003074004430
         N           -1.961013668695    -0.190550796640     0.062321253867    14.003074004430
         N            0.732100331305    -1.507833796640    -0.330847746133    14.003074004430
         C            0.486414331305    -0.215067796640    -0.065353746133    12.000000000000
         C           -0.807447668695     0.505812203360    -0.145412746133    12.000000000000
         C            2.695298131305    -0.409051696640     0.042124453867    12.000000000000
         C            1.834799331305     1.897493203360     0.442640253867    12.000000000000
         C           -3.222328668695     0.504586203360    -0.142967746133    12.000000000000
         C           -2.082167668695    -1.545119796640     0.581465253867    12.000000000000
         C            2.089230331305    -1.638208796640    -0.262520746133    12.000000000000
         H            3.709993331305    -0.134364796640     0.185584253867     1.007825032230
         H            1.107636331305     2.219929203360     1.185066253867     1.007825032230
         H            2.846750331305     2.028883203360     0.829115253867     1.007825032230
         H            1.690203331305     2.485265203360    -0.462562746133     1.007825032230
         H           -3.878585668695    -0.114354796640    -0.762991746133     1.007825032230
         H           -3.023375668695     1.453065203360    -0.637423746133     1.007825032230
         H           -3.719499668695     0.692402203360     0.815981253867     1.007825032230
         H           -1.106098668695    -1.946388796640     0.832503253867     1.007825032230
         H           -2.541109668695    -2.197344796640    -0.169476746133     1.007825032230
         H           -2.725667668695    -1.525989796640     1.468736253867     1.007825032230
         H            2.573289331305    -2.591056796640    -0.432943746133     1.007825032230

  Nuclear repulsion =  628.633247314573964
  Reference energy  = -509.858657183567743

  ==> Basis Set <==

  Basis Set: AUG-CC-PVTZ
    Blend: AUG-CC-PVTZ
    Number of shells: 253
    Number of basis function: 759
    Number of Cartesian functions: 880
    Spherical Harmonics?: true
    Max angular momentum: 3

  ==> CGRSolver (by Rob Parrish) <==

   Number of roots    =         1
   Preconditioning    =    JACOBI
   Convergence cutoff =     1E-06
   Maximum iterations =       100

  ==> CPHFRHamiltonian (by Rob Parrish) <== 

  ==> MemDFJK: Density-Fitted J/K Matrices <==

    J tasked:                   Yes
    K tasked:                   Yes
    wK tasked:                   No
    OpenMP threads:               8
    Memory [MiB]:             22888
    Algorithm:                 Disk
    Schwarz Cutoff:           1E-12
    Mask sparsity (%):       7.3156
    Fitting Condition:        1E-10

   => Auxiliary Basis Set <=

  Basis Set: (AUG-CC-PVTZ AUX)
    Blend: AUG-CC-PVTZ-JKFIT
    Number of shells: 484
    Number of basis function: 1650
    Number of Cartesian functions: 2046
    Spherical Harmonics?: true
    Max angular momentum: 4

  ==> CPHF Iterations <==

  => Iterations <=

             Iter  Converged  Remaining    Residual
  CGR           1          0          1   1.176E-01
  CGR           2          0          1   3.949E-02
  CGR           3          0          1   1.752E-02
  CGR           4          0          1   6.325E-03
  CGR           5          0          1   2.777E-03
  CGR           6          0          1   1.268E-03
  CGR           7          0          1   4.919E-04
  CGR           8          0          1   1.645E-04
  CGR           9          0          1   4.972E-05
  CGR          10          0          1   1.851E-05
  CGR          11          0          1   7.261E-06
  CGR          12          0          1   3.343E-06
  CGR          13          0          1   1.548E-06
  CGR          14          1          0   4.281E-07

    CGRSolver converged.

	-----------------------------------------------------------
	 ==================> DF-MP2 Energies <==================== 
	-----------------------------------------------------------
	 Reference Energy          =    -509.8586571835677432 [Eh]
	 Singles Energy            =      -0.0000000000000000 [Eh]
	 Same-Spin Energy          =      -0.5442690157284971 [Eh]
	 Opposite-Spin Energy      =      -1.6960674061988326 [Eh]
	 Correlation Energy        =      -2.2403364219273296 [Eh]
	 Total Energy              =    -512.0989936054950249 [Eh]
	-----------------------------------------------------------
	 ================> DF-SCS-MP2 Energies <================== 
	-----------------------------------------------------------
	 SCS Same-Spin Scale       =       0.3333333333333333 [-]
	 SCS Opposite-Spin Scale   =       1.2000000000000000 [-]
	 SCS Same-Spin Energy      =      -0.1814230052428323 [Eh]
	 SCS Opposite-Spin Energy  =      -2.0352808874385988 [Eh]
	 SCS Correlation Energy    =      -2.2167038926814313 [Eh]
	 SCS Total Energy          =    -512.0753610762491235 [Eh]
	-----------------------------------------------------------



Properties will be evaluated at  -0.000000,   0.000000,  -0.000000 [a0]

Properties computed using the MP2 density matrix

  Nuclear Dipole Moment: [e a0]
     X:    -4.7547      Y:     0.3587      Z:     2.6716

  Electronic Dipole Moment: [e a0]
     X:     5.0476      Y:    -0.3593      Z:    -1.9954

  Dipole Moment: [e a0]
     X:     0.2928      Y:    -0.0005      Z:     0.6762     Total:     0.7369

  Dipole Moment: [D]
     X:     0.7443      Y:    -0.0013      Z:     1.7188     Total:     1.8730


*** tstop() called on node37.bme.utexas.edu at Tue Feb  2 07:09:52 2021
Module time:
	user time   =    1782.37 seconds =      29.71 minutes
	system time =     217.30 seconds =       3.62 minutes
	total time  =        380 seconds =       6.33 minutes
Total time:
	user time   =    2344.30 seconds =      39.07 minutes
	system time =     348.60 seconds =       5.81 minutes
	total time  =        554 seconds =       9.23 minutes

    Psi4 stopped on: Tuesday, 02 February 2021 07:09AM
    Psi4 wall time for execution: 0:09:14.69

*** Psi4 exiting successfully. Buy a developer a beer!
