
    -----------------------------------------------------------------------
          Psi4: An Open-Source Ab Initio Electronic Structure Package
                               Psi4 1.3.2 release

                         Git: Rev {HEAD} ecbda83 


    R. M. Parrish, L. A. Burns, D. G. A. Smith, A. C. Simmonett,
    A. E. DePrince III, E. G. Hohenstein, U. Bozkaya, A. Yu. Sokolov,
    R. Di Remigio, R. M. Richard, J. F. Gonthier, A. M. James,
    H. R. McAlexander, A. Kumar, M. Saitow, X. Wang, B. P. Pritchard,
    P. Verma, H. F. Schaefer III, K. Patkowski, R. A. King, E. F. Valeev,
    F. A. Evangelista, J. M. Turney, T. D. Crawford, and C. D. Sherrill,
    J. Chem. Theory Comput. 13(7) pp 3185--3197 (2017).
    (doi: 10.1021/acs.jctc.7b00174)


                         Additional Contributions by
    P. Kraus, H. Kruse, M. H. Lechner, M. C. Schieber, R. A. Shaw,
    A. Alenaizan, R. Galvelis, Z. L. Glick, S. Lehtola, and J. P. Misiewicz

    -----------------------------------------------------------------------


    Psi4 started on: Wednesday, 03 February 2021 02:59AM

    Process ID: 32940
    Host:       node37.bme.utexas.edu
    PSIDATADIR: /home/xy3866/psi4conda/share/psi4
    Memory:     500.0 MiB
    Threads:    8
    
  ==> Input File <==

--------------------------------------------------------------------------
#psi4
#
memory 32 gb

molecule  {
0 1
  O       -0.7670850     1.7208920    -0.4354900
  N        1.6738078     0.4952224     0.1395864
  N       -1.9291830    -0.1915810     0.0453950
  N        0.7639310    -1.5088640    -0.3477740
  C        0.5182450    -0.2160980    -0.0822800
  C       -0.7756170     0.5047820    -0.1623390
  C        2.7114570    -0.4276410     0.0208990
  C        1.8666300     1.8964630     0.4257140
  C       -3.1904980     0.5035560    -0.1598940
  C       -2.0503370    -1.5461500     0.5645390
  C        2.1210610    -1.6392390    -0.2794470
  H        3.7418240    -0.1353950     0.1686580
  H        1.1394670     2.2188990     1.1681400
  H        2.8785810     2.0278530     0.8121890
  H        1.7220340     2.4842350    -0.4794890
  H       -3.8467550    -0.1153850    -0.7799180
  H       -2.9915450     1.4520350    -0.6543500
  H       -3.6876690     0.6913720     0.7990550
  H       -1.0742680    -1.9474190     0.8155770
  H       -2.5092790    -2.1983750    -0.1864030
  H       -2.6938370    -1.5270200     1.4518100
  H        2.6051200    -2.5920870    -0.4498700
units angstrom
no_reorient  #important for SAPT in psi4, default
symmetry c1  #important for SAPT in psi4, default
}

set PROPERTIES_ORIGIN ["COM"]
properties('MP2/aug-cc-pvtz', properties = ['dipole'])
--------------------------------------------------------------------------

  Memory set to  29.802 GiB by Python driver.
    SCF Algorithm Type (re)set to DF.

*** tstart() called on node37.bme.utexas.edu
*** at Wed Feb  3 02:59:25 2021

   => Loading Basis Set <=

    Name: AUG-CC-PVTZ
    Role: ORBITAL
    Keyword: BASIS
    atoms 1     entry O          line   327 file /home/xy3866/psi4conda/share/psi4/basis/aug-cc-pvtz.gbs 
    atoms 2-4   entry N          line   281 file /home/xy3866/psi4conda/share/psi4/basis/aug-cc-pvtz.gbs 
    atoms 5-11  entry C          line   235 file /home/xy3866/psi4conda/share/psi4/basis/aug-cc-pvtz.gbs 
    atoms 12-22 entry H          line    36 file /home/xy3866/psi4conda/share/psi4/basis/aug-cc-pvtz.gbs 


         ---------------------------------------------------------
                                   SCF
               by Justin Turney, Rob Parrish, Andy Simmonett
                          and Daniel G. A. Smith
                              RHF Reference
                        8 Threads,  30517 MiB Core
         ---------------------------------------------------------

  ==> Geometry <==

    Molecular point group: c1
    Full point group: C1

    Geometry (in Angstrom), charge = 0, multiplicity = 1:

       Center              X                  Y                   Z               Mass       
    ------------   -----------------  -----------------  -----------------  -----------------
         O           -0.796544394905     1.721425703026    -0.418293196066    15.994914619570
         N            1.644348405095     0.495756103026     0.156783203934    14.003074004430
         N           -1.958642394905    -0.191047296974     0.062591803934    14.003074004430
         N            0.734471605095    -1.508330296974    -0.330577196066    14.003074004430
         C            0.488785605095    -0.215564296974    -0.065083196066    12.000000000000
         C           -0.805076394905     0.505315703026    -0.145142196066    12.000000000000
         C            2.681997605095    -0.427107296974     0.038095803934    12.000000000000
         C            1.837170605095     1.896996703026     0.442910803934    12.000000000000
         C           -3.219957394905     0.504089703026    -0.142697196066    12.000000000000
         C           -2.079796394905    -1.545616296974     0.581735803934    12.000000000000
         C            2.091601605095    -1.638705296974    -0.262250196066    12.000000000000
         H            3.712364605095    -0.134861296974     0.185854803934     1.007825032230
         H            1.110007605095     2.219432703026     1.185336803934     1.007825032230
         H            2.849121605095     2.028386703026     0.829385803934     1.007825032230
         H            1.692574605095     2.484768703026    -0.462292196066     1.007825032230
         H           -3.876214394905    -0.114851296974    -0.762721196066     1.007825032230
         H           -3.021004394905     1.452568703026    -0.637153196066     1.007825032230
         H           -3.717128394905     0.691905703026     0.816251803934     1.007825032230
         H           -1.103727394905    -1.946885296974     0.832773803934     1.007825032230
         H           -2.538738394905    -2.197841296974    -0.169206196066     1.007825032230
         H           -2.723296394905    -1.526486296974     1.469006803934     1.007825032230
         H            2.575660605095    -2.591553296974    -0.432673196066     1.007825032230

  Running in c1 symmetry.

  Rotational constants: A =      0.06709  B =      0.02897  C =      0.02124 [cm^-1]
  Rotational constants: A =   2011.37222  B =    868.52304  C =    636.62337 [MHz]
  Nuclear repulsion =  628.919505389493679

  Charge       = 0
  Multiplicity = 1
  Electrons    = 82
  Nalpha       = 41
  Nbeta        = 41

  ==> Algorithm <==

  SCF Algorithm Type is DF.
  DIIS enabled.
  MOM disabled.
  Fractional occupation disabled.
  Guess Type is SAD.
  Energy threshold   = 1.00e-10
  Density threshold  = 1.00e-10
  Integral threshold = 0.00e+00

  ==> Primary Basis <==

  Basis Set: AUG-CC-PVTZ
    Blend: AUG-CC-PVTZ
    Number of shells: 253
    Number of basis function: 759
    Number of Cartesian functions: 880
    Spherical Harmonics?: true
    Max angular momentum: 3

   => Loading Basis Set <=

    Name: (AUG-CC-PVTZ AUX)
    Role: JKFIT
    Keyword: DF_BASIS_SCF
    atoms 1     entry O          line   286 file /home/xy3866/psi4conda/share/psi4/basis/aug-cc-pvtz-jkfit.gbs 
    atoms 2-4   entry N          line   224 file /home/xy3866/psi4conda/share/psi4/basis/aug-cc-pvtz-jkfit.gbs 
    atoms 5-11  entry C          line   162 file /home/xy3866/psi4conda/share/psi4/basis/aug-cc-pvtz-jkfit.gbs 
    atoms 12-22 entry H          line    70 file /home/xy3866/psi4conda/share/psi4/basis/aug-cc-pvtz-jkfit.gbs 

  ==> Pre-Iterations <==

   -------------------------------------------------------
    Irrep   Nso     Nmo     Nalpha   Nbeta   Ndocc  Nsocc
   -------------------------------------------------------
     A        759     759       0       0       0       0
   -------------------------------------------------------
    Total     759     759      41      41      41       0
   -------------------------------------------------------

  ==> Integral Setup <==

  DFHelper Memory: AOs need 6.735 GiB; user supplied 22.352 GiB. Using in-core AOs.

  ==> MemDFJK: Density-Fitted J/K Matrices <==

    J tasked:                   Yes
    K tasked:                   Yes
    wK tasked:                   No
    OpenMP threads:               8
    Memory [MiB]:             22888
    Algorithm:                 Disk
    Schwarz Cutoff:           1E-12
    Mask sparsity (%):       7.3038
    Fitting Condition:        1E-10

   => Auxiliary Basis Set <=

  Basis Set: (AUG-CC-PVTZ AUX)
    Blend: AUG-CC-PVTZ-JKFIT
    Number of shells: 484
    Number of basis function: 1650
    Number of Cartesian functions: 2046
    Spherical Harmonics?: true
    Max angular momentum: 4

  Minimum eigenvalue in the overlap matrix is 1.2352807018E-06.
  Using Symmetric Orthogonalization.

  SCF Guess: Superposition of Atomic Densities via on-the-fly atomic UHF.

  ==> Iterations <==

                           Total Energy        Delta E     RMS |[F,P]|

   @DF-RHF iter SAD:  -509.31838890090597   -5.09318e+02   0.00000e+00 
   @DF-RHF iter   1:  -509.56227888290715   -2.43890e-01   9.58814e-04 DIIS
   @DF-RHF iter   2:  -509.79437481821918   -2.32096e-01   5.23853e-04 DIIS
   @DF-RHF iter   3:  -509.85256278367115   -5.81880e-02   1.33622e-04 DIIS
   @DF-RHF iter   4:  -509.85817084777472   -5.60806e-03   4.69720e-05 DIIS
   @DF-RHF iter   5:  -509.85897198659364   -8.01139e-04   1.08045e-05 DIIS
   @DF-RHF iter   6:  -509.85904161332104   -6.96267e-05   5.48488e-06 DIIS
   @DF-RHF iter   7:  -509.85906094324832   -1.93299e-05   1.92691e-06 DIIS
   @DF-RHF iter   8:  -509.85906523420977   -4.29096e-06   7.88466e-07 DIIS
   @DF-RHF iter   9:  -509.85906584727712   -6.13067e-07   3.17211e-07 DIIS
   @DF-RHF iter  10:  -509.85906591940312   -7.21260e-08   1.24521e-07 DIIS
   @DF-RHF iter  11:  -509.85906592927017   -9.86705e-09   4.67681e-08 DIIS
   @DF-RHF iter  12:  -509.85906593081700   -1.54682e-09   1.73648e-08 DIIS
   @DF-RHF iter  13:  -509.85906593109610   -2.79101e-10   5.38290e-09 DIIS
   @DF-RHF iter  14:  -509.85906593113015   -3.40492e-11   2.38108e-09 DIIS
   @DF-RHF iter  15:  -509.85906593113742   -7.27596e-12   1.01894e-09 DIIS
   @DF-RHF iter  16:  -509.85906593113850   -1.08002e-12   4.56746e-10 DIIS
   @DF-RHF iter  17:  -509.85906593113680    1.70530e-12   1.72710e-10 DIIS
   @DF-RHF iter  18:  -509.85906593114146   -4.66116e-12   6.44224e-11 DIIS
  Energy and wave function converged.


  ==> Post-Iterations <==

    Orbital Energies [Eh]
    ---------------------

    Doubly Occupied:                                                      

       1A    -20.518149     2A    -15.633393     3A    -15.592308  
       4A    -15.561856     5A    -11.362941     6A    -11.307870  
       7A    -11.270615     8A    -11.269945     9A    -11.255588  
      10A    -11.253401    11A    -11.252961    12A     -1.380648  
      13A     -1.339024    14A     -1.245804    15A     -1.190907  
      16A     -1.030578    17A     -0.977711    18A     -0.966924  
      19A     -0.939134    20A     -0.831560    21A     -0.810265  
      22A     -0.741908    23A     -0.709405    24A     -0.662242  
      25A     -0.655448    26A     -0.644423    27A     -0.640132  
      28A     -0.606594    29A     -0.598208    30A     -0.574186  
      31A     -0.560087    32A     -0.557024    33A     -0.554229  
      34A     -0.552836    35A     -0.527305    36A     -0.522245  
      37A     -0.451439    38A     -0.429036    39A     -0.389748  
      40A     -0.373338    41A     -0.321970  

    Virtual:                                                              

      42A      0.026126    43A      0.031243    44A      0.035047  
      45A      0.040461    46A      0.047133    47A      0.047672  
      48A      0.053484    49A      0.060063    50A      0.064609  
      51A      0.068740    52A      0.075866    53A      0.081594  
      54A      0.088265    55A      0.099529    56A      0.107016  
      57A      0.107942    58A      0.113553    59A      0.116795  
      60A      0.117825    61A      0.120577    62A      0.123633  
      63A      0.125029    64A      0.128363    65A      0.138489  
      66A      0.140750    67A      0.141453    68A      0.147155  
      69A      0.154700    70A      0.157813    71A      0.160547  
      72A      0.161709    73A      0.169183    74A      0.174578  
      75A      0.177640    76A      0.180567    77A      0.187582  
      78A      0.200071    79A      0.202395    80A      0.215177  
      81A      0.219142    82A      0.221082    83A      0.229770  
      84A      0.235573    85A      0.242194    86A      0.243594  
      87A      0.247675    88A      0.251581    89A      0.254181  
      90A      0.260980    91A      0.264300    92A      0.267265  
      93A      0.276489    94A      0.282359    95A      0.285907  
      96A      0.288835    97A      0.291220    98A      0.297712  
      99A      0.302311   100A      0.315072   101A      0.322602  
     102A      0.324787   103A      0.327721   104A      0.331201  
     105A      0.335282   106A      0.341228   107A      0.343810  
     108A      0.351587   109A      0.355333   110A      0.358119  
     111A      0.362751   112A      0.364445   113A      0.371539  
     114A      0.373249   115A      0.379083   116A      0.381182  
     117A      0.382178   118A      0.386367   119A      0.389060  
     120A      0.396640   121A      0.399232   122A      0.403620  
     123A      0.411292   124A      0.412829   125A      0.413534  
     126A      0.426802   127A      0.428476   128A      0.432644  
     129A      0.436832   130A      0.442412   131A      0.446639  
     132A      0.449678   133A      0.454368   134A      0.456965  
     135A      0.458948   136A      0.464918   137A      0.470755  
     138A      0.474329   139A      0.477510   140A      0.481918  
     141A      0.484474   142A      0.489011   143A      0.489641  
     144A      0.496065   145A      0.500623   146A      0.504776  
     147A      0.506552   148A      0.509112   149A      0.512066  
     150A      0.517928   151A      0.518518   152A      0.528279  
     153A      0.530551   154A      0.533335   155A      0.538434  
     156A      0.539539   157A      0.544648   158A      0.550296  
     159A      0.557126   160A      0.559807   161A      0.567029  
     162A      0.571542   163A      0.571648   164A      0.579611  
     165A      0.584026   166A      0.591914   167A      0.594982  
     168A      0.605433   169A      0.607587   170A      0.611739  
     171A      0.624477   172A      0.625509   173A      0.635364  
     174A      0.640301   175A      0.645257   176A      0.646795  
     177A      0.656932   178A      0.666009   179A      0.675541  
     180A      0.678907   181A      0.690658   182A      0.694176  
     183A      0.704573   184A      0.709360   185A      0.710008  
     186A      0.714172   187A      0.724373   188A      0.733667  
     189A      0.740031   190A      0.747908   191A      0.752611  
     192A      0.761504   193A      0.767757   194A      0.776231  
     195A      0.780516   196A      0.786211   197A      0.799765  
     198A      0.802903   199A      0.808181   200A      0.820071  
     201A      0.827886   202A      0.831768   203A      0.832198  
     204A      0.841306   205A      0.845305   206A      0.850905  
     207A      0.852455   208A      0.862328   209A      0.868316  
     210A      0.872096   211A      0.875827   212A      0.886032  
     213A      0.888299   214A      0.893851   215A      0.896721  
     216A      0.906674   217A      0.910616   218A      0.914130  
     219A      0.922421   220A      0.925700   221A      0.929218  
     222A      0.936386   223A      0.942387   224A      0.945689  
     225A      0.948820   226A      0.954424   227A      0.961133  
     228A      0.965535   229A      0.967805   230A      0.975797  
     231A      0.979320   232A      0.985294   233A      0.996936  
     234A      0.999628   235A      1.003173   236A      1.005902  
     237A      1.014626   238A      1.018624   239A      1.024221  
     240A      1.030254   241A      1.035772   242A      1.041572  
     243A      1.046727   244A      1.053898   245A      1.060665  
     246A      1.061321   247A      1.067395   248A      1.069734  
     249A      1.077520   250A      1.081455   251A      1.085776  
     252A      1.089101   253A      1.092679   254A      1.097113  
     255A      1.106305   256A      1.108128   257A      1.115593  
     258A      1.119876   259A      1.137093   260A      1.142792  
     261A      1.144336   262A      1.150557   263A      1.158179  
     264A      1.162512   265A      1.167417   266A      1.174539  
     267A      1.182817   268A      1.187114   269A      1.190960  
     270A      1.192824   271A      1.203398   272A      1.205042  
     273A      1.210994   274A      1.216477   275A      1.223465  
     276A      1.237157   277A      1.240027   278A      1.245032  
     279A      1.251071   280A      1.254616   281A      1.269439  
     282A      1.273154   283A      1.278649   284A      1.280749  
     285A      1.298111   286A      1.306627   287A      1.308556  
     288A      1.318418   289A      1.324622   290A      1.330849  
     291A      1.335752   292A      1.347653   293A      1.351324  
     294A      1.367362   295A      1.371638   296A      1.377592  
     297A      1.385034   298A      1.390893   299A      1.396697  
     300A      1.405430   301A      1.411872   302A      1.417987  
     303A      1.427527   304A      1.434077   305A      1.438993  
     306A      1.446939   307A      1.452187   308A      1.454999  
     309A      1.465845   310A      1.469817   311A      1.471767  
     312A      1.483319   313A      1.487967   314A      1.496779  
     315A      1.501480   316A      1.510717   317A      1.515117  
     318A      1.520973   319A      1.530417   320A      1.531615  
     321A      1.541264   322A      1.560583   323A      1.562615  
     324A      1.568501   325A      1.575602   326A      1.578842  
     327A      1.593347   328A      1.598282   329A      1.612074  
     330A      1.613637   331A      1.626794   332A      1.628917  
     333A      1.633659   334A      1.637324   335A      1.648457  
     336A      1.660700   337A      1.662306   338A      1.669970  
     339A      1.676310   340A      1.679365   341A      1.688878  
     342A      1.695508   343A      1.703405   344A      1.704088  
     345A      1.707034   346A      1.713217   347A      1.719354  
     348A      1.723455   349A      1.736679   350A      1.743331  
     351A      1.745825   352A      1.748062   353A      1.755627  
     354A      1.765832   355A      1.780359   356A      1.781236  
     357A      1.793419   358A      1.799771   359A      1.809777  
     360A      1.817061   361A      1.826213   362A      1.836662  
     363A      1.843593   364A      1.849635   365A      1.855726  
     366A      1.866358   367A      1.872272   368A      1.879680  
     369A      1.885206   370A      1.895879   371A      1.901500  
     372A      1.913882   373A      1.915652   374A      1.926702  
     375A      1.929732   376A      1.947249   377A      1.958153  
     378A      1.964733   379A      1.978666   380A      1.982617  
     381A      1.986954   382A      2.011756   383A      2.020827  
     384A      2.027442   385A      2.039425   386A      2.047491  
     387A      2.056382   388A      2.062488   389A      2.068087  
     390A      2.085175   391A      2.094326   392A      2.096517  
     393A      2.111271   394A      2.112866   395A      2.118589  
     396A      2.130527   397A      2.136186   398A      2.142941  
     399A      2.168427   400A      2.172845   401A      2.189351  
     402A      2.190192   403A      2.203384   404A      2.213623  
     405A      2.222546   406A      2.225987   407A      2.242710  
     408A      2.254639   409A      2.257836   410A      2.265522  
     411A      2.277919   412A      2.285248   413A      2.294419  
     414A      2.301961   415A      2.314762   416A      2.332425  
     417A      2.338042   418A      2.342443   419A      2.354058  
     420A      2.357394   421A      2.378649   422A      2.389662  
     423A      2.400298   424A      2.413514   425A      2.429593  
     426A      2.433509   427A      2.434869   428A      2.448005  
     429A      2.454496   430A      2.471290   431A      2.480551  
     432A      2.501379   433A      2.507177   434A      2.512178  
     435A      2.530943   436A      2.536273   437A      2.552679  
     438A      2.561223   439A      2.581273   440A      2.591715  
     441A      2.600561   442A      2.606687   443A      2.632239  
     444A      2.638498   445A      2.646337   446A      2.660462  
     447A      2.672229   448A      2.683767   449A      2.694012  
     450A      2.707363   451A      2.720115   452A      2.739787  
     453A      2.759711   454A      2.762600   455A      2.783275  
     456A      2.804159   457A      2.839326   458A      2.849731  
     459A      2.869457   460A      2.874707   461A      2.886481  
     462A      2.896699   463A      2.917189   464A      2.941760  
     465A      2.978375   466A      2.994545   467A      3.010422  
     468A      3.035163   469A      3.063499   470A      3.075682  
     471A      3.092529   472A      3.099954   473A      3.142614  
     474A      3.144970   475A      3.184392   476A      3.188270  
     477A      3.210503   478A      3.233441   479A      3.260886  
     480A      3.272205   481A      3.305200   482A      3.327233  
     483A      3.339935   484A      3.344241   485A      3.359851  
     486A      3.385425   487A      3.394638   488A      3.407002  
     489A      3.437147   490A      3.447956   491A      3.466170  
     492A      3.483926   493A      3.488515   494A      3.513133  
     495A      3.531471   496A      3.540617   497A      3.541937  
     498A      3.565599   499A      3.571616   500A      3.583341  
     501A      3.598580   502A      3.618003   503A      3.625798  
     504A      3.637840   505A      3.639096   506A      3.642376  
     507A      3.651577   508A      3.673610   509A      3.679320  
     510A      3.703087   511A      3.703493   512A      3.708770  
     513A      3.729478   514A      3.732854   515A      3.747003  
     516A      3.752365   517A      3.767710   518A      3.772507  
     519A      3.783697   520A      3.800556   521A      3.808857  
     522A      3.813647   523A      3.824142   524A      3.832034  
     525A      3.840101   526A      3.854067   527A      3.855676  
     528A      3.870766   529A      3.879669   530A      3.888749  
     531A      3.899214   532A      3.905257   533A      3.914756  
     534A      3.918480   535A      3.924735   536A      3.942353  
     537A      3.948765   538A      3.952069   539A      3.963515  
     540A      3.969378   541A      3.977230   542A      3.989224  
     543A      4.005380   544A      4.020107   545A      4.026251  
     546A      4.036216   547A      4.042755   548A      4.058761  
     549A      4.074231   550A      4.089090   551A      4.097043  
     552A      4.102051   553A      4.106837   554A      4.111655  
     555A      4.116770   556A      4.129389   557A      4.139111  
     558A      4.146494   559A      4.153818   560A      4.165541  
     561A      4.176093   562A      4.191506   563A      4.196973  
     564A      4.208152   565A      4.219911   566A      4.227786  
     567A      4.237914   568A      4.241426   569A      4.260293  
     570A      4.265918   571A      4.276347   572A      4.284688  
     573A      4.287840   574A      4.296105   575A      4.310594  
     576A      4.325749   577A      4.333646   578A      4.347434  
     579A      4.361241   580A      4.373521   581A      4.395066  
     582A      4.405528   583A      4.408922   584A      4.413960  
     585A      4.437773   586A      4.445736   587A      4.458012  
     588A      4.464993   589A      4.475684   590A      4.491333  
     591A      4.503346   592A      4.514790   593A      4.522228  
     594A      4.543822   595A      4.551675   596A      4.566563  
     597A      4.578446   598A      4.587163   599A      4.635020  
     600A      4.642177   601A      4.655183   602A      4.658850  
     603A      4.673706   604A      4.688890   605A      4.705536  
     606A      4.713535   607A      4.732882   608A      4.744304  
     609A      4.756469   610A      4.765945   611A      4.772389  
     612A      4.795621   613A      4.831387   614A      4.842168  
     615A      4.847764   616A      4.865250   617A      4.870030  
     618A      4.881824   619A      4.894133   620A      4.914921  
     621A      4.927197   622A      4.931014   623A      4.949551  
     624A      4.961013   625A      4.971451   626A      4.975641  
     627A      5.003508   628A      5.009065   629A      5.019841  
     630A      5.054946   631A      5.077124   632A      5.088955  
     633A      5.104185   634A      5.114813   635A      5.120614  
     636A      5.130597   637A      5.140642   638A      5.157484  
     639A      5.176968   640A      5.191493   641A      5.204850  
     642A      5.210239   643A      5.218197   644A      5.239343  
     645A      5.264436   646A      5.273935   647A      5.287743  
     648A      5.291760   649A      5.313829   650A      5.324256  
     651A      5.345399   652A      5.351774   653A      5.367388  
     654A      5.405855   655A      5.416840   656A      5.438255  
     657A      5.444346   658A      5.476919   659A      5.491376  
     660A      5.505230   661A      5.527139   662A      5.533576  
     663A      5.554900   664A      5.561920   665A      5.575554  
     666A      5.585948   667A      5.606349   668A      5.649113  
     669A      5.656366   670A      5.669871   671A      5.690604  
     672A      5.710332   673A      5.732248   674A      5.737120  
     675A      5.756512   676A      5.764837   677A      5.783976  
     678A      5.800056   679A      5.808836   680A      5.835954  
     681A      5.858023   682A      5.866670   683A      5.886523  
     684A      5.888514   685A      5.903300   686A      5.913193  
     687A      5.937305   688A      5.954535   689A      5.965364  
     690A      5.973137   691A      6.004664   692A      6.014759  
     693A      6.043305   694A      6.078500   695A      6.121964  
     696A      6.150079   697A      6.160877   698A      6.173279  
     699A      6.177299   700A      6.184244   701A      6.188734  
     702A      6.209514   703A      6.243671   704A      6.277371  
     705A      6.280268   706A      6.325182   707A      6.336005  
     708A      6.350934   709A      6.394278   710A      6.413885  
     711A      6.416882   712A      6.477814   713A      6.537268  
     714A      6.589600   715A      6.614123   716A      6.628087  
     717A      6.653799   718A      6.729310   719A      6.735189  
     720A      6.765837   721A      6.813098   722A      6.813596  
     723A      6.830791   724A      6.874535   725A      6.877564  
     726A      6.895114   727A      6.911311   728A      6.935557  
     729A      6.976969   730A      6.983588   731A      7.008335  
     732A      7.031690   733A      7.083314   734A      7.105343  
     735A      7.112814   736A      7.137756   737A      7.150982  
     738A      7.215270   739A      7.280422   740A      7.332206  
     741A      7.357635   742A      7.511522   743A      7.546754  
     744A      7.785631   745A      7.798963   746A      7.832171  
     747A      7.985477   748A      8.127209   749A     15.293418  
     750A     16.456615   751A     16.598806   752A     17.067199  
     753A     18.147648   754A     18.531456   755A     18.709095  
     756A     19.005790   757A     19.535488   758A     20.544865  
     759A     20.996841  

    Final Occupation by Irrep:
              A 
    DOCC [    41 ]

  @DF-RHF Final Energy:  -509.85906593114146

   => Energetics <=

    Nuclear Repulsion Energy =            628.9195053894936791
    One-Electron Energy =               -1941.4303685829161168
    Two-Electron Energy =                 802.6517972622809793
    Total Energy =                       -509.8590659311414583

Computation Completed

*** tstop() called on node37.bme.utexas.edu at Wed Feb  3 03:02:37 2021
Module time:
	user time   =     604.21 seconds =      10.07 minutes
	system time =     149.54 seconds =       2.49 minutes
	total time  =        192 seconds =       3.20 minutes
Total time:
	user time   =     604.21 seconds =      10.07 minutes
	system time =     149.54 seconds =       2.49 minutes
	total time  =        192 seconds =       3.20 minutes
   => Loading Basis Set <=

    Name: (AUG-CC-PVTZ AUX)
    Role: RIFIT
    Keyword: DF_BASIS_MP2
    atoms 1     entry O          line   264 file /home/xy3866/psi4conda/share/psi4/basis/aug-cc-pvtz-ri.gbs 
    atoms 2-4   entry N          line   206 file /home/xy3866/psi4conda/share/psi4/basis/aug-cc-pvtz-ri.gbs 
    atoms 5-11  entry C          line   148 file /home/xy3866/psi4conda/share/psi4/basis/aug-cc-pvtz-ri.gbs 
    atoms 12-22 entry H          line    30 file /home/xy3866/psi4conda/share/psi4/basis/aug-cc-pvtz-ri.gbs 


*** tstart() called on node37.bme.utexas.edu
*** at Wed Feb  3 03:02:38 2021


  //>>>>>>>>>>>>>>>>>>>>>>>>>>>>>>>>>>>//
  //               DFMP2               //
  //<<<<<<<<<<<<<<<<<<<<<<<<<<<<<<<<<<<//

	 --------------------------------------------------------
	                          DF-MP2                         
	      2nd-Order Density-Fitted Moller-Plesset Theory     
	              RMP2 Wavefunction,   8 Threads             
	                                                         
	        Rob Parrish, Justin Turney, Andy Simmonett,      
	           Ed Hohenstein, and C. David Sherrill          
	 --------------------------------------------------------

   => Auxiliary Basis Set <=

  Basis Set: (AUG-CC-PVTZ AUX)
    Blend: AUG-CC-PVTZ-RI
    Number of shells: 462
    Number of basis function: 1672
    Number of Cartesian functions: 2101
    Spherical Harmonics?: true
    Max angular momentum: 4

	 --------------------------------------------------------
	                 NBF =   759, NAUX =  1672
	 --------------------------------------------------------
	   CLASS    FOCC     OCC    AOCC    AVIR     VIR    FVIR
	   PAIRS       0      41      41     718     718       0
	 --------------------------------------------------------

  DFHelper Memory: AOs need 6.735 GiB; user supplied 22.352 GiB. Using in-core AOs.


         ------------------------------------------------------------
                                     CPHF                           
                                  Rob Parrish                       
         ------------------------------------------------------------

  ==> Geometry <==

    Molecular point group: c1
    Full point group: C1

    Geometry (in Angstrom), charge = 0, multiplicity = 1:

       Center              X                  Y                   Z               Mass       
    ------------   -----------------  -----------------  -----------------  -----------------
         O           -0.796544394905     1.721425703026    -0.418293196066    15.994914619570
         N            1.644348405095     0.495756103026     0.156783203934    14.003074004430
         N           -1.958642394905    -0.191047296974     0.062591803934    14.003074004430
         N            0.734471605095    -1.508330296974    -0.330577196066    14.003074004430
         C            0.488785605095    -0.215564296974    -0.065083196066    12.000000000000
         C           -0.805076394905     0.505315703026    -0.145142196066    12.000000000000
         C            2.681997605095    -0.427107296974     0.038095803934    12.000000000000
         C            1.837170605095     1.896996703026     0.442910803934    12.000000000000
         C           -3.219957394905     0.504089703026    -0.142697196066    12.000000000000
         C           -2.079796394905    -1.545616296974     0.581735803934    12.000000000000
         C            2.091601605095    -1.638705296974    -0.262250196066    12.000000000000
         H            3.712364605095    -0.134861296974     0.185854803934     1.007825032230
         H            1.110007605095     2.219432703026     1.185336803934     1.007825032230
         H            2.849121605095     2.028386703026     0.829385803934     1.007825032230
         H            1.692574605095     2.484768703026    -0.462292196066     1.007825032230
         H           -3.876214394905    -0.114851296974    -0.762721196066     1.007825032230
         H           -3.021004394905     1.452568703026    -0.637153196066     1.007825032230
         H           -3.717128394905     0.691905703026     0.816251803934     1.007825032230
         H           -1.103727394905    -1.946885296974     0.832773803934     1.007825032230
         H           -2.538738394905    -2.197841296974    -0.169206196066     1.007825032230
         H           -2.723296394905    -1.526486296974     1.469006803934     1.007825032230
         H            2.575660605095    -2.591553296974    -0.432673196066     1.007825032230

  Nuclear repulsion =  628.919505389493793
  Reference energy  = -509.859065931141458

  ==> Basis Set <==

  Basis Set: AUG-CC-PVTZ
    Blend: AUG-CC-PVTZ
    Number of shells: 253
    Number of basis function: 759
    Number of Cartesian functions: 880
    Spherical Harmonics?: true
    Max angular momentum: 3

  ==> CGRSolver (by Rob Parrish) <==

   Number of roots    =         1
   Preconditioning    =    JACOBI
   Convergence cutoff =     1E-06
   Maximum iterations =       100

  ==> CPHFRHamiltonian (by Rob Parrish) <== 

  ==> MemDFJK: Density-Fitted J/K Matrices <==

    J tasked:                   Yes
    K tasked:                   Yes
    wK tasked:                   No
    OpenMP threads:               8
    Memory [MiB]:             22888
    Algorithm:                 Disk
    Schwarz Cutoff:           1E-12
    Mask sparsity (%):       7.3038
    Fitting Condition:        1E-10

   => Auxiliary Basis Set <=

  Basis Set: (AUG-CC-PVTZ AUX)
    Blend: AUG-CC-PVTZ-JKFIT
    Number of shells: 484
    Number of basis function: 1650
    Number of Cartesian functions: 2046
    Spherical Harmonics?: true
    Max angular momentum: 4

  ==> CPHF Iterations <==

  => Iterations <=

             Iter  Converged  Remaining    Residual
  CGR           1          0          1   1.192E-01
  CGR           2          0          1   4.054E-02
  CGR           3          0          1   1.834E-02
  CGR           4          0          1   6.549E-03
  CGR           5          0          1   2.882E-03
  CGR           6          0          1   1.289E-03
  CGR           7          0          1   4.954E-04
  CGR           8          0          1   1.682E-04
  CGR           9          0          1   5.362E-05
  CGR          10          0          1   2.138E-05
  CGR          11          0          1   8.894E-06
  CGR          12          0          1   4.104E-06
  CGR          13          0          1   1.710E-06
  CGR          14          1          0   4.407E-07

    CGRSolver converged.

	-----------------------------------------------------------
	 ==================> DF-MP2 Energies <==================== 
	-----------------------------------------------------------
	 Reference Energy          =    -509.8590659311414583 [Eh]
	 Singles Energy            =      -0.0000000000000000 [Eh]
	 Same-Spin Energy          =      -0.5440082025945856 [Eh]
	 Opposite-Spin Energy      =      -1.6959112642846255 [Eh]
	 Correlation Energy        =      -2.2399194668792113 [Eh]
	 Total Energy              =    -512.0989853980206590 [Eh]
	-----------------------------------------------------------
	 ================> DF-SCS-MP2 Energies <================== 
	-----------------------------------------------------------
	 SCS Same-Spin Scale       =       0.3333333333333333 [-]
	 SCS Opposite-Spin Scale   =       1.2000000000000000 [-]
	 SCS Same-Spin Energy      =      -0.1813360675315285 [Eh]
	 SCS Opposite-Spin Energy  =      -2.0350935171415503 [Eh]
	 SCS Correlation Energy    =      -2.2164295846730786 [Eh]
	 SCS Total Energy          =    -512.0754955158145094 [Eh]
	-----------------------------------------------------------



Properties will be evaluated at   0.000000,   0.000000,   0.000000 [a0]

Properties computed using the MP2 density matrix

  Nuclear Dipole Moment: [e a0]
     X:    -4.7303      Y:     0.3536      Z:     2.6744

  Electronic Dipole Moment: [e a0]
     X:     5.0182      Y:    -0.3776      Z:    -2.0030

  Dipole Moment: [e a0]
     X:     0.2879      Y:    -0.0240      Z:     0.6714     Total:     0.7309

  Dipole Moment: [D]
     X:     0.7319      Y:    -0.0611      Z:     1.7066     Total:     1.8579


*** tstop() called on node37.bme.utexas.edu at Wed Feb  3 03:08:54 2021
Module time:
	user time   =    1788.62 seconds =      29.81 minutes
	system time =     221.04 seconds =       3.68 minutes
	total time  =        376 seconds =       6.27 minutes
Total time:
	user time   =    2393.07 seconds =      39.88 minutes
	system time =     370.58 seconds =       6.18 minutes
	total time  =        569 seconds =       9.48 minutes

    Psi4 stopped on: Wednesday, 03 February 2021 03:08AM
    Psi4 wall time for execution: 0:09:29.62

*** Psi4 exiting successfully. Buy a developer a beer!
