
    -----------------------------------------------------------------------
          Psi4: An Open-Source Ab Initio Electronic Structure Package
                               Psi4 1.3.2 release

                         Git: Rev {HEAD} ecbda83 


    R. M. Parrish, L. A. Burns, D. G. A. Smith, A. C. Simmonett,
    A. E. DePrince III, E. G. Hohenstein, U. Bozkaya, A. Yu. Sokolov,
    R. Di Remigio, R. M. Richard, J. F. Gonthier, A. M. James,
    H. R. McAlexander, A. Kumar, M. Saitow, X. Wang, B. P. Pritchard,
    P. Verma, H. F. Schaefer III, K. Patkowski, R. A. King, E. F. Valeev,
    F. A. Evangelista, J. M. Turney, T. D. Crawford, and C. D. Sherrill,
    J. Chem. Theory Comput. 13(7) pp 3185--3197 (2017).
    (doi: 10.1021/acs.jctc.7b00174)


                         Additional Contributions by
    P. Kraus, H. Kruse, M. H. Lechner, M. C. Schieber, R. A. Shaw,
    A. Alenaizan, R. Galvelis, Z. L. Glick, S. Lehtola, and J. P. Misiewicz

    -----------------------------------------------------------------------


    Psi4 started on: Wednesday, 03 February 2021 04:36AM

    Process ID: 6226
    Host:       node37.bme.utexas.edu
    PSIDATADIR: /home/xy3866/psi4conda/share/psi4
    Memory:     500.0 MiB
    Threads:    8
    
  ==> Input File <==

--------------------------------------------------------------------------
#psi4
#
memory 32 gb

molecule  {
0 1
  O       -0.7670850     1.7208920    -0.4354900
  N        1.6863020     0.4747470     0.1388600
  N       -1.9291830    -0.1915810     0.0453950
  N        0.7639310    -1.5088640    -0.3477740
  C        0.4332932    -0.2663426    -0.0983633
  C       -0.7756170     0.5047820    -0.1623390
  C        2.7114570    -0.4276410     0.0208990
  C        1.8666300     1.8964630     0.4257140
  C       -3.1904980     0.5035560    -0.1598940
  C       -2.0503370    -1.5461500     0.5645390
  C        2.1210610    -1.6392390    -0.2794470
  H        3.7418240    -0.1353950     0.1686580
  H        1.1394670     2.2188990     1.1681400
  H        2.8785810     2.0278530     0.8121890
  H        1.7220340     2.4842350    -0.4794890
  H       -3.8467550    -0.1153850    -0.7799180
  H       -2.9915450     1.4520350    -0.6543500
  H       -3.6876690     0.6913720     0.7990550
  H       -1.0742680    -1.9474190     0.8155770
  H       -2.5092790    -2.1983750    -0.1864030
  H       -2.6938370    -1.5270200     1.4518100
  H        2.6051200    -2.5920870    -0.4498700
units angstrom
no_reorient  #important for SAPT in psi4, default
symmetry c1  #important for SAPT in psi4, default
}

set PROPERTIES_ORIGIN ["COM"]
properties('MP2/aug-cc-pvtz', properties = ['dipole'])
--------------------------------------------------------------------------

  Memory set to  29.802 GiB by Python driver.
    SCF Algorithm Type (re)set to DF.

*** tstart() called on node37.bme.utexas.edu
*** at Wed Feb  3 04:36:23 2021

   => Loading Basis Set <=

    Name: AUG-CC-PVTZ
    Role: ORBITAL
    Keyword: BASIS
    atoms 1     entry O          line   327 file /home/xy3866/psi4conda/share/psi4/basis/aug-cc-pvtz.gbs 
    atoms 2-4   entry N          line   281 file /home/xy3866/psi4conda/share/psi4/basis/aug-cc-pvtz.gbs 
    atoms 5-11  entry C          line   235 file /home/xy3866/psi4conda/share/psi4/basis/aug-cc-pvtz.gbs 
    atoms 12-22 entry H          line    36 file /home/xy3866/psi4conda/share/psi4/basis/aug-cc-pvtz.gbs 


         ---------------------------------------------------------
                                   SCF
               by Justin Turney, Rob Parrish, Andy Simmonett
                          and Daniel G. A. Smith
                              RHF Reference
                        8 Threads,  30517 MiB Core
         ---------------------------------------------------------

  ==> Geometry <==

    Molecular point group: c1
    Full point group: C1

    Geometry (in Angstrom), charge = 0, multiplicity = 1:

       Center              X                  Y                   Z               Mass       
    ------------   -----------------  -----------------  -----------------  -----------------
         O           -0.791028272210     1.727237006896    -0.416966060710    15.994914619570
         N            1.662358727790     0.481092006896     0.157383939290    14.003074004430
         N           -1.953126272210    -0.185235993104     0.063918939290    14.003074004430
         N            0.739987727790    -1.502518993104    -0.329250060710    14.003074004430
         C            0.409349927790    -0.259997593104    -0.079839360710    12.000000000000
         C           -0.799560272210     0.511127006896    -0.143815060710    12.000000000000
         C            2.687513727790    -0.421295993104     0.039422939290    12.000000000000
         C            1.842686727790     1.902808006896     0.444237939290    12.000000000000
         C           -3.214441272210     0.509901006896    -0.141370060710    12.000000000000
         C           -2.074280272210    -1.539804993104     0.583062939290    12.000000000000
         C            2.097117727790    -1.632893993104    -0.260923060710    12.000000000000
         H            3.717880727790    -0.129049993104     0.187181939290     1.007825032230
         H            1.115523727790     2.225244006896     1.186663939290     1.007825032230
         H            2.854637727790     2.034198006896     0.830712939290     1.007825032230
         H            1.698090727790     2.490580006896    -0.460965060710     1.007825032230
         H           -3.870698272210    -0.109039993104    -0.761394060710     1.007825032230
         H           -3.015488272210     1.458380006896    -0.635826060710     1.007825032230
         H           -3.711612272210     0.697717006896     0.817578939290     1.007825032230
         H           -1.098211272210    -1.941073993104     0.834100939290     1.007825032230
         H           -2.533222272210    -2.192029993104    -0.167879060710     1.007825032230
         H           -2.717780272210    -1.520674993104     1.470333939290     1.007825032230
         H            2.581176727790    -2.585741993104    -0.431346060710     1.007825032230

  Running in c1 symmetry.

  Rotational constants: A =      0.06709  B =      0.02899  C =      0.02124 [cm^-1]
  Rotational constants: A =   2011.33294  B =    868.94954  C =    636.88856 [MHz]
  Nuclear repulsion =  628.709712098876594

  Charge       = 0
  Multiplicity = 1
  Electrons    = 82
  Nalpha       = 41
  Nbeta        = 41

  ==> Algorithm <==

  SCF Algorithm Type is DF.
  DIIS enabled.
  MOM disabled.
  Fractional occupation disabled.
  Guess Type is SAD.
  Energy threshold   = 1.00e-10
  Density threshold  = 1.00e-10
  Integral threshold = 0.00e+00

  ==> Primary Basis <==

  Basis Set: AUG-CC-PVTZ
    Blend: AUG-CC-PVTZ
    Number of shells: 253
    Number of basis function: 759
    Number of Cartesian functions: 880
    Spherical Harmonics?: true
    Max angular momentum: 3

   => Loading Basis Set <=

    Name: (AUG-CC-PVTZ AUX)
    Role: JKFIT
    Keyword: DF_BASIS_SCF
    atoms 1     entry O          line   286 file /home/xy3866/psi4conda/share/psi4/basis/aug-cc-pvtz-jkfit.gbs 
    atoms 2-4   entry N          line   224 file /home/xy3866/psi4conda/share/psi4/basis/aug-cc-pvtz-jkfit.gbs 
    atoms 5-11  entry C          line   162 file /home/xy3866/psi4conda/share/psi4/basis/aug-cc-pvtz-jkfit.gbs 
    atoms 12-22 entry H          line    70 file /home/xy3866/psi4conda/share/psi4/basis/aug-cc-pvtz-jkfit.gbs 

  ==> Pre-Iterations <==

   -------------------------------------------------------
    Irrep   Nso     Nmo     Nalpha   Nbeta   Ndocc  Nsocc
   -------------------------------------------------------
     A        759     759       0       0       0       0
   -------------------------------------------------------
    Total     759     759      41      41      41       0
   -------------------------------------------------------

  ==> Integral Setup <==

  DFHelper Memory: AOs need 6.736 GiB; user supplied 22.352 GiB. Using in-core AOs.

  ==> MemDFJK: Density-Fitted J/K Matrices <==

    J tasked:                   Yes
    K tasked:                   Yes
    wK tasked:                   No
    OpenMP threads:               8
    Memory [MiB]:             22888
    Algorithm:                 Disk
    Schwarz Cutoff:           1E-12
    Mask sparsity (%):       7.2934
    Fitting Condition:        1E-10

   => Auxiliary Basis Set <=

  Basis Set: (AUG-CC-PVTZ AUX)
    Blend: AUG-CC-PVTZ-JKFIT
    Number of shells: 484
    Number of basis function: 1650
    Number of Cartesian functions: 2046
    Spherical Harmonics?: true
    Max angular momentum: 4

  Minimum eigenvalue in the overlap matrix is 1.1865027237E-06.
  Using Symmetric Orthogonalization.

  SCF Guess: Superposition of Atomic Densities via on-the-fly atomic UHF.

  ==> Iterations <==

                           Total Energy        Delta E     RMS |[F,P]|

   @DF-RHF iter SAD:  -509.27662717462647   -5.09277e+02   0.00000e+00 
   @DF-RHF iter   1:  -509.55024391557464   -2.73617e-01   9.52668e-04 DIIS
   @DF-RHF iter   2:  -509.78257192846951   -2.32328e-01   5.17479e-04 DIIS
   @DF-RHF iter   3:  -509.83941594096245   -5.68440e-02   1.34763e-04 DIIS
   @DF-RHF iter   4:  -509.84521562575100   -5.79968e-03   4.85815e-05 DIIS
   @DF-RHF iter   5:  -509.84610281982822   -8.87194e-04   1.18467e-05 DIIS
   @DF-RHF iter   6:  -509.84619448558976   -9.16658e-05   6.24745e-06 DIIS
   @DF-RHF iter   7:  -509.84622372288919   -2.92373e-05   2.36372e-06 DIIS
   @DF-RHF iter   8:  -509.84623044746365   -6.72457e-06   9.38093e-07 DIIS
   @DF-RHF iter   9:  -509.84623129321483   -8.45751e-07   4.55627e-07 DIIS
   @DF-RHF iter  10:  -509.84623143113424   -1.37919e-07   1.34446e-07 DIIS
   @DF-RHF iter  11:  -509.84623144535306   -1.42188e-08   5.09251e-08 DIIS
   @DF-RHF iter  12:  -509.84623144726322   -1.91017e-09   1.83878e-08 DIIS
   @DF-RHF iter  13:  -509.84623144760235   -3.39128e-10   6.81373e-09 DIIS
   @DF-RHF iter  14:  -509.84623144764896   -4.66116e-11   2.95328e-09 DIIS
   @DF-RHF iter  15:  -509.84623144765652   -7.56017e-12   1.39674e-09 DIIS
   @DF-RHF iter  16:  -509.84623144765749   -9.66338e-13   5.68059e-10 DIIS
   @DF-RHF iter  17:  -509.84623144765612    1.36424e-12   2.52659e-10 DIIS
   @DF-RHF iter  18:  -509.84623144765612    0.00000e+00   7.88737e-11 DIIS
  Energy and wave function converged.


  ==> Post-Iterations <==

    Orbital Energies [Eh]
    ---------------------

    Doubly Occupied:                                                      

       1A    -20.518537     2A    -15.626289     3A    -15.591043  
       4A    -15.569030     5A    -11.361318     6A    -11.307184  
       7A    -11.277523     8A    -11.266085     9A    -11.256919  
      10A    -11.252299    11A    -11.250674    12A     -1.379417  
      13A     -1.328286    14A     -1.246814    15A     -1.188951  
      16A     -1.038195    17A     -0.975137    18A     -0.966805  
      19A     -0.933062    20A     -0.840355    21A     -0.806078  
      22A     -0.739480    23A     -0.707627    24A     -0.662638  
      25A     -0.656015    26A     -0.649276    27A     -0.632413  
      28A     -0.607274    29A     -0.588605    30A     -0.574618  
      31A     -0.560427    32A     -0.557526    33A     -0.554352  
      34A     -0.553104    35A     -0.526771    36A     -0.521660  
      37A     -0.451220    38A     -0.428446    39A     -0.393639  
      40A     -0.373670    41A     -0.318392  

    Virtual:                                                              

      42A      0.026109    43A      0.031182    44A      0.035128  
      45A      0.040402    46A      0.047169    47A      0.047553  
      48A      0.053737    49A      0.060097    50A      0.064677  
      51A      0.068723    52A      0.075886    53A      0.081271  
      54A      0.084800    55A      0.099913    56A      0.105211  
      57A      0.107679    58A      0.113093    59A      0.115805  
      60A      0.116624    61A      0.120661    62A      0.123497  
      63A      0.124912    64A      0.128176    65A      0.137903  
      66A      0.141248    67A      0.141885    68A      0.147524  
      69A      0.154928    70A      0.157400    71A      0.160836  
      72A      0.161776    73A      0.170176    74A      0.174904  
      75A      0.177708    76A      0.180700    77A      0.186910  
      78A      0.199611    79A      0.202489    80A      0.215066  
      81A      0.219516    82A      0.220783    83A      0.230581  
      84A      0.236610    85A      0.242302    86A      0.242958  
      87A      0.247670    88A      0.251226    89A      0.254222  
      90A      0.260499    91A      0.263534    92A      0.267615  
      93A      0.275782    94A      0.281980    95A      0.286163  
      96A      0.289316    97A      0.291385    98A      0.297978  
      99A      0.302760   100A      0.315539   101A      0.322248  
     102A      0.324735   103A      0.325912   104A      0.331965  
     105A      0.334070   106A      0.340956   107A      0.344444  
     108A      0.351223   109A      0.354830   110A      0.357468  
     111A      0.362611   112A      0.364978   113A      0.372201  
     114A      0.373212   115A      0.379306   116A      0.381468  
     117A      0.382256   118A      0.386846   119A      0.388278  
     120A      0.394471   121A      0.396918   122A      0.402625  
     123A      0.409265   124A      0.412363   125A      0.414201  
     126A      0.425205   127A      0.428727   128A      0.430702  
     129A      0.434437   130A      0.444026   131A      0.446502  
     132A      0.449872   133A      0.454190   134A      0.457013  
     135A      0.459740   136A      0.465316   137A      0.470865  
     138A      0.473398   139A      0.479156   140A      0.481791  
     141A      0.484734   142A      0.488779   143A      0.491862  
     144A      0.495631   145A      0.502464   146A      0.504873  
     147A      0.507638   148A      0.508270   149A      0.513944  
     150A      0.517693   151A      0.519836   152A      0.526705  
     153A      0.530327   154A      0.533266   155A      0.538254  
     156A      0.539093   157A      0.545760   158A      0.550635  
     159A      0.556660   160A      0.558637   161A      0.567481  
     162A      0.572482   163A      0.572872   164A      0.580323  
     165A      0.584103   166A      0.592502   167A      0.595620  
     168A      0.604222   169A      0.608703   170A      0.611315  
     171A      0.623990   172A      0.626459   173A      0.634576  
     174A      0.637216   175A      0.647040   176A      0.648259  
     177A      0.656278   178A      0.666571   179A      0.674703  
     180A      0.679700   181A      0.689590   182A      0.693840  
     183A      0.703029   184A      0.708302   185A      0.712174  
     186A      0.715063   187A      0.726274   188A      0.734274  
     189A      0.742810   190A      0.748315   191A      0.752207  
     192A      0.762947   193A      0.770037   194A      0.777617  
     195A      0.781404   196A      0.785977   197A      0.801486  
     198A      0.803302   199A      0.808740   200A      0.816384  
     201A      0.827738   202A      0.830865   203A      0.833599  
     204A      0.840333   205A      0.845781   206A      0.850987  
     207A      0.853753   208A      0.863777   209A      0.867320  
     210A      0.870984   211A      0.876706   212A      0.886205  
     213A      0.892472   214A      0.895019   215A      0.895426  
     216A      0.904888   217A      0.910208   218A      0.911970  
     219A      0.921310   220A      0.926308   221A      0.928988  
     222A      0.936784   223A      0.943901   224A      0.946078  
     225A      0.947885   226A      0.953769   227A      0.963419  
     228A      0.969261   229A      0.972476   230A      0.976038  
     231A      0.978229   232A      0.985809   233A      0.997386  
     234A      0.999942   235A      1.005364   236A      1.008486  
     237A      1.016024   238A      1.019616   239A      1.023814  
     240A      1.029015   241A      1.035145   242A      1.039956  
     243A      1.044629   244A      1.054881   245A      1.059513  
     246A      1.063083   247A      1.066786   248A      1.072611  
     249A      1.077601   250A      1.080177   251A      1.086930  
     252A      1.089382   253A      1.093659   254A      1.095871  
     255A      1.108342   256A      1.110546   257A      1.116958  
     258A      1.121266   259A      1.136200   260A      1.143209  
     261A      1.144647   262A      1.152385   263A      1.156792  
     264A      1.163791   265A      1.171252   266A      1.172446  
     267A      1.184329   268A      1.187773   269A      1.190173  
     270A      1.193638   271A      1.204703   272A      1.205922  
     273A      1.212565   274A      1.214722   275A      1.221325  
     276A      1.235374   277A      1.241883   278A      1.246546  
     279A      1.252115   280A      1.255172   281A      1.268737  
     282A      1.275201   283A      1.278532   284A      1.281293  
     285A      1.300277   286A      1.304030   287A      1.308596  
     288A      1.318465   289A      1.321929   290A      1.330364  
     291A      1.337100   292A      1.346562   293A      1.352564  
     294A      1.364606   295A      1.367789   296A      1.377807  
     297A      1.383957   298A      1.391648   299A      1.395567  
     300A      1.405786   301A      1.413636   302A      1.417028  
     303A      1.428569   304A      1.430682   305A      1.440237  
     306A      1.447203   307A      1.454139   308A      1.460221  
     309A      1.465680   310A      1.471865   311A      1.473873  
     312A      1.484987   313A      1.488658   314A      1.496073  
     315A      1.502658   316A      1.510983   317A      1.515309  
     318A      1.518888   319A      1.530177   320A      1.534092  
     321A      1.544973   322A      1.559617   323A      1.565905  
     324A      1.570461   325A      1.573350   326A      1.578723  
     327A      1.594766   328A      1.598143   329A      1.610053  
     330A      1.613345   331A      1.626304   332A      1.631281  
     333A      1.635043   334A      1.635497   335A      1.649944  
     336A      1.661517   337A      1.662665   338A      1.669191  
     339A      1.673122   340A      1.683242   341A      1.688759  
     342A      1.693087   343A      1.700857   344A      1.706306  
     345A      1.707588   346A      1.717418   347A      1.719251  
     348A      1.724835   349A      1.736268   350A      1.740994  
     351A      1.744815   352A      1.749916   353A      1.756652  
     354A      1.766862   355A      1.780649   356A      1.782034  
     357A      1.792144   358A      1.799367   359A      1.810526  
     360A      1.817945   361A      1.827479   362A      1.834812  
     363A      1.841605   364A      1.845488   365A      1.853195  
     366A      1.867787   367A      1.874299   368A      1.882932  
     369A      1.886804   370A      1.895890   371A      1.901603  
     372A      1.911257   373A      1.916343   374A      1.923875  
     375A      1.928651   376A      1.943715   377A      1.958548  
     378A      1.967539   379A      1.977501   380A      1.982741  
     381A      1.984620   382A      2.014183   383A      2.023142  
     384A      2.026450   385A      2.038333   386A      2.048939  
     387A      2.055972   388A      2.060938   389A      2.071122  
     390A      2.081280   391A      2.090691   392A      2.095878  
     393A      2.108050   394A      2.111588   395A      2.119574  
     396A      2.126125   397A      2.138270   398A      2.144087  
     399A      2.172604   400A      2.174236   401A      2.191205  
     402A      2.197551   403A      2.202075   404A      2.213867  
     405A      2.217958   406A      2.231393   407A      2.248214  
     408A      2.252417   409A      2.258379   410A      2.264692  
     411A      2.279037   412A      2.283145   413A      2.296862  
     414A      2.307700   415A      2.320131   416A      2.329229  
     417A      2.335886   418A      2.343419   419A      2.352155  
     420A      2.359289   421A      2.380454   422A      2.385573  
     423A      2.399549   424A      2.411541   425A      2.425528  
     426A      2.434107   427A      2.438608   428A      2.444921  
     429A      2.462116   430A      2.468107   431A      2.484747  
     432A      2.500615   433A      2.511656   434A      2.517779  
     435A      2.525272   436A      2.539824   437A      2.555327  
     438A      2.563296   439A      2.579247   440A      2.584872  
     441A      2.599145   442A      2.603937   443A      2.632249  
     444A      2.635396   445A      2.649772   446A      2.661996  
     447A      2.668121   448A      2.678776   449A      2.693750  
     450A      2.705457   451A      2.721607   452A      2.734719  
     453A      2.761874   454A      2.765777   455A      2.784216  
     456A      2.804318   457A      2.840805   458A      2.845977  
     459A      2.863866   460A      2.872210   461A      2.880072  
     462A      2.895246   463A      2.924844   464A      2.940022  
     465A      2.972934   466A      2.995910   467A      3.022653  
     468A      3.035260   469A      3.061945   470A      3.084060  
     471A      3.089852   472A      3.099720   473A      3.142246  
     474A      3.148594   475A      3.181396   476A      3.207266  
     477A      3.217579   478A      3.229749   479A      3.246162  
     480A      3.269503   481A      3.311107   482A      3.325807  
     483A      3.334662   484A      3.348760   485A      3.359811  
     486A      3.385602   487A      3.395415   488A      3.409810  
     489A      3.444515   490A      3.452397   491A      3.462899  
     492A      3.477605   493A      3.490773   494A      3.509635  
     495A      3.528850   496A      3.539452   497A      3.547403  
     498A      3.562006   499A      3.570035   500A      3.591825  
     501A      3.603813   502A      3.614507   503A      3.625592  
     504A      3.630476   505A      3.638891   506A      3.642984  
     507A      3.655217   508A      3.672146   509A      3.679877  
     510A      3.697009   511A      3.701937   512A      3.718381  
     513A      3.730674   514A      3.736132   515A      3.743830  
     516A      3.750412   517A      3.761428   518A      3.769336  
     519A      3.778523   520A      3.796643   521A      3.803127  
     522A      3.813600   523A      3.819611   524A      3.825020  
     525A      3.838436   526A      3.852885   527A      3.853645  
     528A      3.866271   529A      3.873169   530A      3.888100  
     531A      3.890422   532A      3.906589   533A      3.911446  
     534A      3.919900   535A      3.925037   536A      3.945581  
     537A      3.951220   538A      3.953168   539A      3.967958  
     540A      3.975433   541A      3.981397   542A      3.993155  
     543A      4.004404   544A      4.025455   545A      4.033536  
     546A      4.036055   547A      4.041836   548A      4.056798  
     549A      4.076423   550A      4.084708   551A      4.094308  
     552A      4.101361   553A      4.106136   554A      4.109562  
     555A      4.115381   556A      4.130492   557A      4.140053  
     558A      4.151214   559A      4.156855   560A      4.164710  
     561A      4.175816   562A      4.189331   563A      4.203081  
     564A      4.205425   565A      4.220835   566A      4.224336  
     567A      4.236381   568A      4.246539   569A      4.252846  
     570A      4.266893   571A      4.270846   572A      4.285098  
     573A      4.288232   574A      4.292509   575A      4.316842  
     576A      4.332620   577A      4.335512   578A      4.344209  
     579A      4.368067   580A      4.370974   581A      4.396180  
     582A      4.407721   583A      4.412327   584A      4.420331  
     585A      4.438064   586A      4.449582   587A      4.456661  
     588A      4.466929   589A      4.472768   590A      4.487535  
     591A      4.504291   592A      4.516399   593A      4.522884  
     594A      4.532726   595A      4.554490   596A      4.566191  
     597A      4.571877   598A      4.593538   599A      4.629738  
     600A      4.648441   601A      4.651035   602A      4.658902  
     603A      4.678072   604A      4.685114   605A      4.701631  
     606A      4.716316   607A      4.733772   608A      4.747383  
     609A      4.765933   610A      4.776436   611A      4.781130  
     612A      4.797403   613A      4.836615   614A      4.842646  
     615A      4.853382   616A      4.867516   617A      4.875944  
     618A      4.890621   619A      4.905996   620A      4.917545  
     621A      4.922656   622A      4.935704   623A      4.946002  
     624A      4.962312   625A      4.980626   626A      4.989595  
     627A      5.001229   628A      5.008892   629A      5.021353  
     630A      5.053276   631A      5.075678   632A      5.086981  
     633A      5.099356   634A      5.102087   635A      5.123097  
     636A      5.127053   637A      5.142459   638A      5.165944  
     639A      5.179150   640A      5.192165   641A      5.206210  
     642A      5.212188   643A      5.221114   644A      5.237399  
     645A      5.264952   646A      5.271463   647A      5.286840  
     648A      5.289494   649A      5.313150   650A      5.327876  
     651A      5.333676   652A      5.350923   653A      5.365913  
     654A      5.405562   655A      5.413624   656A      5.438523  
     657A      5.451964   658A      5.476998   659A      5.488754  
     660A      5.498187   661A      5.526199   662A      5.531472  
     663A      5.543864   664A      5.563313   665A      5.576539  
     666A      5.592720   667A      5.609988   668A      5.639005  
     669A      5.649874   670A      5.655212   671A      5.682128  
     672A      5.705945   673A      5.713056   674A      5.737225  
     675A      5.754422   676A      5.765777   677A      5.780817  
     678A      5.802634   679A      5.816969   680A      5.834676  
     681A      5.856955   682A      5.870287   683A      5.882809  
     684A      5.891881   685A      5.918328   686A      5.921485  
     687A      5.946017   688A      5.956525   689A      5.965766  
     690A      5.970667   691A      5.994763   692A      6.013305  
     693A      6.032162   694A      6.066745   695A      6.127374  
     696A      6.142657   697A      6.152566   698A      6.157143  
     699A      6.176184   700A      6.180923   701A      6.190371  
     702A      6.209714   703A      6.241339   704A      6.275687  
     705A      6.286659   706A      6.300347   707A      6.320421  
     708A      6.347535   709A      6.396794   710A      6.420463  
     711A      6.423905   712A      6.461231   713A      6.547946  
     714A      6.599051   715A      6.623007   716A      6.649844  
     717A      6.669469   718A      6.732480   719A      6.752650  
     720A      6.763754   721A      6.798673   722A      6.815012  
     723A      6.824444   724A      6.858996   725A      6.865092  
     726A      6.890390   727A      6.901828   728A      6.938914  
     729A      6.952775   730A      6.982274   731A      6.999990  
     732A      7.008560   733A      7.042513   734A      7.097058  
     735A      7.110766   736A      7.128076   737A      7.165940  
     738A      7.240397   739A      7.291516   740A      7.336999  
     741A      7.376371   742A      7.511506   743A      7.548377  
     744A      7.792327   745A      7.821456   746A      7.851567  
     747A      7.990877   748A      8.137765   749A     15.244421  
     750A     16.364391   751A     16.897282   752A     17.251900  
     753A     18.089000   754A     18.403124   755A     18.591322  
     756A     19.231749   757A     19.540233   758A     20.111760  
     759A     21.068139  

    Final Occupation by Irrep:
              A 
    DOCC [    41 ]

  @DF-RHF Final Energy:  -509.84623144765612

   => Energetics <=

    Nuclear Repulsion Energy =            628.7097120988765937
    One-Electron Energy =               -1941.0375789751024058
    Two-Electron Energy =                 802.4816354285698026
    Total Energy =                       -509.8462314476561232

Computation Completed

*** tstop() called on node37.bme.utexas.edu at Wed Feb  3 04:39:31 2021
Module time:
	user time   =     598.83 seconds =       9.98 minutes
	system time =     147.17 seconds =       2.45 minutes
	total time  =        188 seconds =       3.13 minutes
Total time:
	user time   =     598.83 seconds =       9.98 minutes
	system time =     147.17 seconds =       2.45 minutes
	total time  =        188 seconds =       3.13 minutes
   => Loading Basis Set <=

    Name: (AUG-CC-PVTZ AUX)
    Role: RIFIT
    Keyword: DF_BASIS_MP2
    atoms 1     entry O          line   264 file /home/xy3866/psi4conda/share/psi4/basis/aug-cc-pvtz-ri.gbs 
    atoms 2-4   entry N          line   206 file /home/xy3866/psi4conda/share/psi4/basis/aug-cc-pvtz-ri.gbs 
    atoms 5-11  entry C          line   148 file /home/xy3866/psi4conda/share/psi4/basis/aug-cc-pvtz-ri.gbs 
    atoms 12-22 entry H          line    30 file /home/xy3866/psi4conda/share/psi4/basis/aug-cc-pvtz-ri.gbs 


*** tstart() called on node37.bme.utexas.edu
*** at Wed Feb  3 04:39:31 2021


  //>>>>>>>>>>>>>>>>>>>>>>>>>>>>>>>>>>>//
  //               DFMP2               //
  //<<<<<<<<<<<<<<<<<<<<<<<<<<<<<<<<<<<//

	 --------------------------------------------------------
	                          DF-MP2                         
	      2nd-Order Density-Fitted Moller-Plesset Theory     
	              RMP2 Wavefunction,   8 Threads             
	                                                         
	        Rob Parrish, Justin Turney, Andy Simmonett,      
	           Ed Hohenstein, and C. David Sherrill          
	 --------------------------------------------------------

   => Auxiliary Basis Set <=

  Basis Set: (AUG-CC-PVTZ AUX)
    Blend: AUG-CC-PVTZ-RI
    Number of shells: 462
    Number of basis function: 1672
    Number of Cartesian functions: 2101
    Spherical Harmonics?: true
    Max angular momentum: 4

	 --------------------------------------------------------
	                 NBF =   759, NAUX =  1672
	 --------------------------------------------------------
	   CLASS    FOCC     OCC    AOCC    AVIR     VIR    FVIR
	   PAIRS       0      41      41     718     718       0
	 --------------------------------------------------------

  DFHelper Memory: AOs need 6.736 GiB; user supplied 22.352 GiB. Using in-core AOs.


         ------------------------------------------------------------
                                     CPHF                           
                                  Rob Parrish                       
         ------------------------------------------------------------

  ==> Geometry <==

    Molecular point group: c1
    Full point group: C1

    Geometry (in Angstrom), charge = 0, multiplicity = 1:

       Center              X                  Y                   Z               Mass       
    ------------   -----------------  -----------------  -----------------  -----------------
         O           -0.791028272210     1.727237006896    -0.416966060710    15.994914619570
         N            1.662358727790     0.481092006896     0.157383939290    14.003074004430
         N           -1.953126272210    -0.185235993104     0.063918939290    14.003074004430
         N            0.739987727790    -1.502518993104    -0.329250060710    14.003074004430
         C            0.409349927790    -0.259997593104    -0.079839360710    12.000000000000
         C           -0.799560272210     0.511127006896    -0.143815060710    12.000000000000
         C            2.687513727790    -0.421295993104     0.039422939290    12.000000000000
         C            1.842686727790     1.902808006896     0.444237939290    12.000000000000
         C           -3.214441272210     0.509901006896    -0.141370060710    12.000000000000
         C           -2.074280272210    -1.539804993104     0.583062939290    12.000000000000
         C            2.097117727790    -1.632893993104    -0.260923060710    12.000000000000
         H            3.717880727790    -0.129049993104     0.187181939290     1.007825032230
         H            1.115523727790     2.225244006896     1.186663939290     1.007825032230
         H            2.854637727790     2.034198006896     0.830712939290     1.007825032230
         H            1.698090727790     2.490580006896    -0.460965060710     1.007825032230
         H           -3.870698272210    -0.109039993104    -0.761394060710     1.007825032230
         H           -3.015488272210     1.458380006896    -0.635826060710     1.007825032230
         H           -3.711612272210     0.697717006896     0.817578939290     1.007825032230
         H           -1.098211272210    -1.941073993104     0.834100939290     1.007825032230
         H           -2.533222272210    -2.192029993104    -0.167879060710     1.007825032230
         H           -2.717780272210    -1.520674993104     1.470333939290     1.007825032230
         H            2.581176727790    -2.585741993104    -0.431346060710     1.007825032230

  Nuclear repulsion =  628.709712098876594
  Reference energy  = -509.846231447656123

  ==> Basis Set <==

  Basis Set: AUG-CC-PVTZ
    Blend: AUG-CC-PVTZ
    Number of shells: 253
    Number of basis function: 759
    Number of Cartesian functions: 880
    Spherical Harmonics?: true
    Max angular momentum: 3

  ==> CGRSolver (by Rob Parrish) <==

   Number of roots    =         1
   Preconditioning    =    JACOBI
   Convergence cutoff =     1E-06
   Maximum iterations =       100

  ==> CPHFRHamiltonian (by Rob Parrish) <== 

  ==> MemDFJK: Density-Fitted J/K Matrices <==

    J tasked:                   Yes
    K tasked:                   Yes
    wK tasked:                   No
    OpenMP threads:               8
    Memory [MiB]:             22888
    Algorithm:                 Disk
    Schwarz Cutoff:           1E-12
    Mask sparsity (%):       7.2934
    Fitting Condition:        1E-10

   => Auxiliary Basis Set <=

  Basis Set: (AUG-CC-PVTZ AUX)
    Blend: AUG-CC-PVTZ-JKFIT
    Number of shells: 484
    Number of basis function: 1650
    Number of Cartesian functions: 2046
    Spherical Harmonics?: true
    Max angular momentum: 4

  ==> CPHF Iterations <==

  => Iterations <=

             Iter  Converged  Remaining    Residual
  CGR           1          0          1   1.282E-01
  CGR           2          0          1   4.641E-02
  CGR           3          0          1   2.248E-02
  CGR           4          0          1   8.092E-03
  CGR           5          0          1   3.409E-03
  CGR           6          0          1   1.420E-03
  CGR           7          0          1   5.285E-04
  CGR           8          0          1   1.824E-04
  CGR           9          0          1   5.861E-05
  CGR          10          0          1   2.421E-05
  CGR          11          0          1   1.004E-05
  CGR          12          0          1   4.271E-06
  CGR          13          0          1   1.924E-06
  CGR          14          1          0   5.653E-07

    CGRSolver converged.

	-----------------------------------------------------------
	 ==================> DF-MP2 Energies <==================== 
	-----------------------------------------------------------
	 Reference Energy          =    -509.8462314476561232 [Eh]
	 Singles Energy            =      -0.0000000000000000 [Eh]
	 Same-Spin Energy          =      -0.5453644566821483 [Eh]
	 Opposite-Spin Energy      =      -1.6980203361007218 [Eh]
	 Correlation Energy        =      -2.2433847927828703 [Eh]
	 Total Energy              =    -512.0896162404389997 [Eh]
	-----------------------------------------------------------
	 ================> DF-SCS-MP2 Energies <================== 
	-----------------------------------------------------------
	 SCS Same-Spin Scale       =       0.3333333333333333 [-]
	 SCS Opposite-Spin Scale   =       1.2000000000000000 [-]
	 SCS Same-Spin Energy      =      -0.1817881522273828 [Eh]
	 SCS Opposite-Spin Energy  =      -2.0376244033208661 [Eh]
	 SCS Correlation Energy    =      -2.2194125555482489 [Eh]
	 SCS Total Energy          =    -512.0656440032043974 [Eh]
	-----------------------------------------------------------



Properties will be evaluated at  -0.000000,  -0.000000,  -0.000000 [a0]

Properties computed using the MP2 density matrix

  Nuclear Dipole Moment: [e a0]
     X:    -4.6734      Y:     0.4135      Z:     2.6881

  Electronic Dipole Moment: [e a0]
     X:     4.9462      Y:    -0.4951      Z:    -2.0348

  Dipole Moment: [e a0]
     X:     0.2728      Y:    -0.0816      Z:     0.6533     Total:     0.7127

  Dipole Moment: [D]
     X:     0.6934      Y:    -0.2073      Z:     1.6605     Total:     1.8114


*** tstop() called on node37.bme.utexas.edu at Wed Feb  3 04:45:41 2021
Module time:
	user time   =    1773.22 seconds =      29.55 minutes
	system time =     190.52 seconds =       3.18 minutes
	total time  =        370 seconds =       6.17 minutes
Total time:
	user time   =    2372.30 seconds =      39.54 minutes
	system time =     337.69 seconds =       5.63 minutes
	total time  =        558 seconds =       9.30 minutes

    Psi4 stopped on: Wednesday, 03 February 2021 04:45AM
    Psi4 wall time for execution: 0:09:17.71

*** Psi4 exiting successfully. Buy a developer a beer!
