15887890                                                                
Freq      RMP2-FC                                                     6-31G(d)            
Number of atoms                            I               14
Info1-9                                    I   N=           9
          26          24        1002           0           0         100
           6           2           1
Charge                                     I                0
Multiplicity                               I                1
Number of electrons                        I               48
Number of alpha electrons                  I               24
Number of beta electrons                   I               24
Number of basis functions                  I              106
Number of independent functions            I              106
Number of point charges in /Mol/           I                0
Number of translation vectors              I                0
Atomic numbers                             I   N=          14
           8           8           6           6           6           6
           1           1           1           1           1           1
           1           1
Nuclear charges                            R   N=          14
  8.00000000E+00  8.00000000E+00  6.00000000E+00  6.00000000E+00  6.00000000E+00
  6.00000000E+00  1.00000000E+00  1.00000000E+00  1.00000000E+00  1.00000000E+00
  1.00000000E+00  1.00000000E+00  1.00000000E+00  1.00000000E+00
Current cartesian coordinates              R   N=          42
 -2.02203301E-01  2.83828629E+00 -3.48639670E-01  3.88277892E+00 -4.51357361E-01
  6.72776674E-01 -5.58434570E-01  1.90747550E-01 -2.04404044E-01 -2.38602822E+00
 -7.82047121E-01  1.72926940E+00 -3.08169445E+00 -7.37772553E-01 -1.04815440E+00
  1.80214560E+00 -1.25404982E+00 -8.55495585E-01 -3.29142978E+00  6.06832342E-01
  2.93634731E+00 -1.99974811E+00 -2.58996157E+00  2.61864721E+00 -3.18548875E+00
 -2.51815696E+00 -2.06402915E+00 -4.40983124E+00  6.96983870E-01 -1.66156461E+00
  2.23207214E+00 -1.00064606E+00 -2.87132629E+00  1.54437815E+00 -3.27288624E+00
 -4.96338830E-01  5.99909826E-01  3.31492363E+00  1.23789884E+00  4.40960271E+00
  1.16621123E+00 -2.00227237E-02
Force Field                                I                0
Int Atom Types                             I   N=          14
           0           0           0           0           0           0
           0           0           0           0           0           0
           0           0
MM charges                                 R   N=          14
  0.00000000E+00  0.00000000E+00  0.00000000E+00  0.00000000E+00  0.00000000E+00
  0.00000000E+00  0.00000000E+00  0.00000000E+00  0.00000000E+00  0.00000000E+00
  0.00000000E+00  0.00000000E+00  0.00000000E+00  0.00000000E+00
Integer atomic weights                     I   N=          14
          16          16          12          12          12          12
           1           1           1           1           1           1
           1           1
Real atomic weights                        R   N=          14
  1.59949146E+01  1.59949146E+01  1.20000000E+01  1.20000000E+01  1.20000000E+01
  1.20000000E+01  1.00782504E+00  1.00782504E+00  1.00782504E+00  1.00782504E+00
  1.00782504E+00  1.00782504E+00  1.00782504E+00  1.00782504E+00
Atom fragment info                         I   N=          14
           0           0           0           0           0           0
           0           0           0           0           0           0
           0           0
Atom residue num                           I   N=          14
           0           0           0           0           0           0
           0           0           0           0           0           0
           0           0
Nuclear spins                              I   N=          14
           0           0           0           0           0           0
           1           1           1           1           1           1
           1           1
Nuclear ZEff                               R   N=          14
 -5.60000000E+00 -5.60000000E+00 -3.60000000E+00 -3.60000000E+00 -3.60000000E+00
 -3.60000000E+00 -1.00000000E+00 -1.00000000E+00 -1.00000000E+00 -1.00000000E+00
 -1.00000000E+00 -1.00000000E+00 -1.00000000E+00 -1.00000000E+00
Nuclear QMom                               R   N=          14
  0.00000000E+00  0.00000000E+00  0.00000000E+00  0.00000000E+00  0.00000000E+00
  0.00000000E+00  0.00000000E+00  0.00000000E+00  0.00000000E+00  0.00000000E+00
  0.00000000E+00  0.00000000E+00  0.00000000E+00  0.00000000E+00
Nuclear GFac                               R   N=          14
  0.00000000E+00  0.00000000E+00  0.00000000E+00  0.00000000E+00  0.00000000E+00
  0.00000000E+00  2.79284600E+00  2.79284600E+00  2.79284600E+00  2.79284600E+00
  2.79284600E+00  2.79284600E+00  2.79284600E+00  2.79284600E+00
MicOpt                                     I   N=          14
          -1          -1          -1          -1          -1          -1
          -1          -1          -1          -1          -1          -1
          -1          -1
Number of contracted shells                I               40
Number of primitive shells                 I               98
Pure/Cartesian d shells                    I                1
Pure/Cartesian f shells                    I                0
Highest angular momentum                   I                2
Largest degree of contraction              I                6
Shell types                                I   N=          40
           0          -1          -1           2           0          -1
          -1           2           0          -1          -1           2
           0          -1          -1           2           0          -1
          -1           2           0          -1          -1           2
           0           0           0           0           0           0
           0           0           0           0           0           0
           0           0           0           0
Number of primitives per shell             I   N=          40
           6           3           1           1           6           3
           1           1           6           3           1           1
           6           3           1           1           6           3
           1           1           6           3           1           1
           3           1           3           1           3           1
           3           1           3           1           3           1
           3           1           3           1
Shell to atom map                          I   N=          40
           1           1           1           1           2           2
           2           2           3           3           3           3
           4           4           4           4           5           5
           5           5           6           6           6           6
           7           7           8           8           9           9
          10          10          11          11          12          12
          13          13          14          14
Primitive exponents                        R   N=          98
  5.48467166E+03  8.25234946E+02  1.88046958E+02  5.29645000E+01  1.68975704E+01
  5.79963534E+00  1.55396162E+01  3.59993359E+00  1.01376175E+00  2.70005823E-01
  8.00000000E-01  5.48467166E+03  8.25234946E+02  1.88046958E+02  5.29645000E+01
  1.68975704E+01  5.79963534E+00  1.55396162E+01  3.59993359E+00  1.01376175E+00
  2.70005823E-01  8.00000000E-01  3.04752488E+03  4.57369518E+02  1.03948685E+02
  2.92101553E+01  9.28666296E+00  3.16392696E+00  7.86827235E+00  1.88128854E+00
  5.44249258E-01  1.68714478E-01  8.00000000E-01  3.04752488E+03  4.57369518E+02
  1.03948685E+02  2.92101553E+01  9.28666296E+00  3.16392696E+00  7.86827235E+00
  1.88128854E+00  5.44249258E-01  1.68714478E-01  8.00000000E-01  3.04752488E+03
  4.57369518E+02  1.03948685E+02  2.92101553E+01  9.28666296E+00  3.16392696E+00
  7.86827235E+00  1.88128854E+00  5.44249258E-01  1.68714478E-01  8.00000000E-01
  3.04752488E+03  4.57369518E+02  1.03948685E+02  2.92101553E+01  9.28666296E+00
  3.16392696E+00  7.86827235E+00  1.88128854E+00  5.44249258E-01  1.68714478E-01
  8.00000000E-01  1.87311370E+01  2.82539436E+00  6.40121692E-01  1.61277759E-01
  1.87311370E+01  2.82539436E+00  6.40121692E-01  1.61277759E-01  1.87311370E+01
  2.82539436E+00  6.40121692E-01  1.61277759E-01  1.87311370E+01  2.82539436E+00
  6.40121692E-01  1.61277759E-01  1.87311370E+01  2.82539436E+00  6.40121692E-01
  1.61277759E-01  1.87311370E+01  2.82539436E+00  6.40121692E-01  1.61277759E-01
  1.87311370E+01  2.82539436E+00  6.40121692E-01  1.61277759E-01  1.87311370E+01
  2.82539436E+00  6.40121692E-01  1.61277759E-01
Contraction coefficients                   R   N=          98
  1.83107443E-03  1.39501722E-02  6.84450781E-02  2.32714336E-01  4.70192898E-01
  3.58520853E-01 -1.10777550E-01 -1.48026263E-01  1.13076702E+00  1.00000000E+00
  1.00000000E+00  1.83107443E-03  1.39501722E-02  6.84450781E-02  2.32714336E-01
  4.70192898E-01  3.58520853E-01 -1.10777550E-01 -1.48026263E-01  1.13076702E+00
  1.00000000E+00  1.00000000E+00  1.83473713E-03  1.40373228E-02  6.88426223E-02
  2.32184443E-01  4.67941348E-01  3.62311985E-01 -1.19332420E-01 -1.60854152E-01
  1.14345644E+00  1.00000000E+00  1.00000000E+00  1.83473713E-03  1.40373228E-02
  6.88426223E-02  2.32184443E-01  4.67941348E-01  3.62311985E-01 -1.19332420E-01
 -1.60854152E-01  1.14345644E+00  1.00000000E+00  1.00000000E+00  1.83473713E-03
  1.40373228E-02  6.88426223E-02  2.32184443E-01  4.67941348E-01  3.62311985E-01
 -1.19332420E-01 -1.60854152E-01  1.14345644E+00  1.00000000E+00  1.00000000E+00
  1.83473713E-03  1.40373228E-02  6.88426223E-02  2.32184443E-01  4.67941348E-01
  3.62311985E-01 -1.19332420E-01 -1.60854152E-01  1.14345644E+00  1.00000000E+00
  1.00000000E+00  3.34946043E-02  2.34726953E-01  8.13757326E-01  1.00000000E+00
  3.34946043E-02  2.34726953E-01  8.13757326E-01  1.00000000E+00  3.34946043E-02
  2.34726953E-01  8.13757326E-01  1.00000000E+00  3.34946043E-02  2.34726953E-01
  8.13757326E-01  1.00000000E+00  3.34946043E-02  2.34726953E-01  8.13757326E-01
  1.00000000E+00  3.34946043E-02  2.34726953E-01  8.13757326E-01  1.00000000E+00
  3.34946043E-02  2.34726953E-01  8.13757326E-01  1.00000000E+00  3.34946043E-02
  2.34726953E-01  8.13757326E-01  1.00000000E+00
P(S=P) Contraction coefficients            R   N=          98
  0.00000000E+00  0.00000000E+00  0.00000000E+00  0.00000000E+00  0.00000000E+00
  0.00000000E+00  7.08742682E-02  3.39752839E-01  7.27158577E-01  1.00000000E+00
  0.00000000E+00  0.00000000E+00  0.00000000E+00  0.00000000E+00  0.00000000E+00
  0.00000000E+00  0.00000000E+00  7.08742682E-02  3.39752839E-01  7.27158577E-01
  1.00000000E+00  0.00000000E+00  0.00000000E+00  0.00000000E+00  0.00000000E+00
  0.00000000E+00  0.00000000E+00  0.00000000E+00  6.89990666E-02  3.16423961E-01
  7.44308291E-01  1.00000000E+00  0.00000000E+00  0.00000000E+00  0.00000000E+00
  0.00000000E+00  0.00000000E+00  0.00000000E+00  0.00000000E+00  6.89990666E-02
  3.16423961E-01  7.44308291E-01  1.00000000E+00  0.00000000E+00  0.00000000E+00
  0.00000000E+00  0.00000000E+00  0.00000000E+00  0.00000000E+00  0.00000000E+00
  6.89990666E-02  3.16423961E-01  7.44308291E-01  1.00000000E+00  0.00000000E+00
  0.00000000E+00  0.00000000E+00  0.00000000E+00  0.00000000E+00  0.00000000E+00
  0.00000000E+00  6.89990666E-02  3.16423961E-01  7.44308291E-01  1.00000000E+00
  0.00000000E+00  0.00000000E+00  0.00000000E+00  0.00000000E+00  0.00000000E+00
  0.00000000E+00  0.00000000E+00  0.00000000E+00  0.00000000E+00  0.00000000E+00
  0.00000000E+00  0.00000000E+00  0.00000000E+00  0.00000000E+00  0.00000000E+00
  0.00000000E+00  0.00000000E+00  0.00000000E+00  0.00000000E+00  0.00000000E+00
  0.00000000E+00  0.00000000E+00  0.00000000E+00  0.00000000E+00  0.00000000E+00
  0.00000000E+00  0.00000000E+00  0.00000000E+00  0.00000000E+00  0.00000000E+00
  0.00000000E+00  0.00000000E+00  0.00000000E+00
Coordinates of each shell                  R   N=         120
 -2.02203301E-01  2.83828629E+00 -3.48639670E-01 -2.02203301E-01  2.83828629E+00
 -3.48639670E-01 -2.02203301E-01  2.83828629E+00 -3.48639670E-01 -2.02203301E-01
  2.83828629E+00 -3.48639670E-01  3.88277892E+00 -4.51357361E-01  6.72776674E-01
  3.88277892E+00 -4.51357361E-01  6.72776674E-01  3.88277892E+00 -4.51357361E-01
  6.72776674E-01  3.88277892E+00 -4.51357361E-01  6.72776674E-01 -5.58434570E-01
  1.90747550E-01 -2.04404044E-01 -5.58434570E-01  1.90747550E-01 -2.04404044E-01
 -5.58434570E-01  1.90747550E-01 -2.04404044E-01 -5.58434570E-01  1.90747550E-01
 -2.04404044E-01 -2.38602822E+00 -7.82047121E-01  1.72926940E+00 -2.38602822E+00
 -7.82047121E-01  1.72926940E+00 -2.38602822E+00 -7.82047121E-01  1.72926940E+00
 -2.38602822E+00 -7.82047121E-01  1.72926940E+00 -3.08169445E+00 -7.37772553E-01
 -1.04815440E+00 -3.08169445E+00 -7.37772553E-01 -1.04815440E+00 -3.08169445E+00
 -7.37772553E-01 -1.04815440E+00 -3.08169445E+00 -7.37772553E-01 -1.04815440E+00
  1.80214560E+00 -1.25404982E+00 -8.55495585E-01  1.80214560E+00 -1.25404982E+00
 -8.55495585E-01  1.80214560E+00 -1.25404982E+00 -8.55495585E-01  1.80214560E+00
 -1.25404982E+00 -8.55495585E-01 -3.29142978E+00  6.06832342E-01  2.93634731E+00
 -3.29142978E+00  6.06832342E-01  2.93634731E+00 -1.99974811E+00 -2.58996157E+00
  2.61864721E+00 -1.99974811E+00 -2.58996157E+00  2.61864721E+00 -3.18548875E+00
 -2.51815696E+00 -2.06402915E+00 -3.18548875E+00 -2.51815696E+00 -2.06402915E+00
 -4.40983124E+00  6.96983870E-01 -1.66156461E+00 -4.40983124E+00  6.96983870E-01
 -1.66156461E+00  2.23207214E+00 -1.00064606E+00 -2.87132629E+00  2.23207214E+00
 -1.00064606E+00 -2.87132629E+00  1.54437815E+00 -3.27288624E+00 -4.96338830E-01
  1.54437815E+00 -3.27288624E+00 -4.96338830E-01  5.99909826E-01  3.31492363E+00
  1.23789884E+00  5.99909826E-01  3.31492363E+00  1.23789884E+00  4.40960271E+00
  1.16621123E+00 -2.00227237E-02  4.40960271E+00  1.16621123E+00 -2.00227237E-02
Constraint Structure                       R   N=          42
 -2.02203301E-01  2.83828629E+00 -3.48639670E-01  3.88277892E+00 -4.51357361E-01
  6.72776674E-01 -5.58434570E-01  1.90747550E-01 -2.04404044E-01 -2.38602822E+00
 -7.82047121E-01  1.72926940E+00 -3.08169445E+00 -7.37772553E-01 -1.04815440E+00
  1.80214560E+00 -1.25404982E+00 -8.55495585E-01 -3.29142978E+00  6.06832342E-01
  2.93634731E+00 -1.99974811E+00 -2.58996157E+00  2.61864721E+00 -3.18548875E+00
 -2.51815696E+00 -2.06402915E+00 -4.40983124E+00  6.96983870E-01 -1.66156461E+00
  2.23207214E+00 -1.00064606E+00 -2.87132629E+00  1.54437815E+00 -3.27288624E+00
 -4.96338830E-01  5.99909826E-01  3.31492363E+00  1.23789884E+00  4.40960271E+00
  1.16621123E+00 -2.00227237E-02
Num ILSW                                   I              100
ILSW                                       I   N=         100
           0           1           0           0           2           0
           0           0           0           0           0          -1
           0           0           0           0           0           0
           0           0           0           0           1           0
           1           0           0           0           0           0
           0           0      100000           0          -1           0
           0           0           0           0           0           0
           0           0           0           1           1           0
           0           0           1           0           0           0
           0           0           4          40           0           0
           0           0           0           0           0           0
           0           0           0           0           0           0
           0           0           0           0           0           0
           0           0           0           0           0           0
           0           0           0           0           0           0
           0           0           0           0           0           0
           0           0           0           0
Num RLSW                                   I               40
RLSW                                       R   N=          40
  1.00000000E+00  1.00000000E+00  1.00000000E+00  1.00000000E+00  1.00000000E+00
  0.00000000E+00  0.00000000E+00  1.00000000E+00  0.00000000E+00  0.00000000E+00
  0.00000000E+00  0.00000000E+00  1.00000000E+00  0.00000000E+00  0.00000000E+00
  0.00000000E+00  0.00000000E+00  1.00000000E+00  0.00000000E+00  0.00000000E+00
  0.00000000E+00  0.00000000E+00  1.00000000E+00  0.00000000E+00  0.00000000E+00
  0.00000000E+00  0.00000000E+00  1.00000000E+00  0.00000000E+00  0.00000000E+00
  0.00000000E+00  0.00000000E+00  0.00000000E+00  0.00000000E+00  0.00000000E+00
  0.00000000E+00  0.00000000E+00  0.00000000E+00  1.00000000E+00  1.00000000E+00
MxBond                                     I                4
NBond                                      I   N=          14
           2           2           4           4           4           4
           1           1           1           1           1           1
           1           1
IBond                                      I   N=          56
           3          13           0           0           6          14
           0           0           1           4           5           6
           3           5           7           8           3           4
           9          10           2           3          11          12
           4           0           0           0           4           0
           0           0           5           0           0           0
           5           0           0           0           6           0
           0           0           6           0           0           0
           1           0           0           0           2           0
           0           0
RBond                                      R   N=          56
  1.00000000E+00  1.00000000E+00  0.00000000E+00  0.00000000E+00  1.00000000E+00
  1.00000000E+00  0.00000000E+00  0.00000000E+00  1.00000000E+00  1.00000000E+00
  1.00000000E+00  1.00000000E+00  1.00000000E+00  1.00000000E+00  1.00000000E+00
  1.00000000E+00  1.00000000E+00  1.00000000E+00  1.00000000E+00  1.00000000E+00
  1.00000000E+00  1.00000000E+00  1.00000000E+00  1.00000000E+00  1.00000000E+00
  0.00000000E+00  0.00000000E+00  0.00000000E+00  1.00000000E+00  0.00000000E+00
  0.00000000E+00  0.00000000E+00  1.00000000E+00  0.00000000E+00  0.00000000E+00
  0.00000000E+00  1.00000000E+00  0.00000000E+00  0.00000000E+00  0.00000000E+00
  1.00000000E+00  0.00000000E+00  0.00000000E+00  0.00000000E+00  1.00000000E+00
  0.00000000E+00  0.00000000E+00  0.00000000E+00  1.00000000E+00  0.00000000E+00
  0.00000000E+00  0.00000000E+00  1.00000000E+00  0.00000000E+00  0.00000000E+00
  0.00000000E+00
Virial Ratio                               R      2.002274698707091E+00
SCF Energy                                 R     -3.057928076807106E+02
MP2 Energy                                 R     -3.066714621292576E+02
Total Energy                               R     -3.066714621292576E+02
Post-SCF wavefunction norm                 R      1.593101135948221E+00
RMS Force                                  R      3.660807063364215E-07
RMS Density                                R      1.343380770815826E-09
External E-field                           R   N=          35
  0.00000000E+00  0.00000000E+00  0.00000000E+00  0.00000000E+00  0.00000000E+00
  0.00000000E+00  0.00000000E+00  0.00000000E+00  0.00000000E+00  0.00000000E+00
  0.00000000E+00  0.00000000E+00  0.00000000E+00  0.00000000E+00  0.00000000E+00
  0.00000000E+00  0.00000000E+00  0.00000000E+00  0.00000000E+00  0.00000000E+00
  0.00000000E+00  0.00000000E+00  0.00000000E+00  0.00000000E+00  0.00000000E+00
  0.00000000E+00  0.00000000E+00  0.00000000E+00  0.00000000E+00  0.00000000E+00
  0.00000000E+00  0.00000000E+00  0.00000000E+00  0.00000000E+00  0.00000000E+00
IOpCl                                      I                0
IROHF                                      I                0
Alpha Orbital Energies                     R   N=         106
 -2.05734394E+01 -2.05657789E+01 -1.12868971E+01 -1.12800132E+01 -1.12305271E+01
 -1.12298344E+01 -1.37822393E+00 -1.34731480E+00 -1.13694052E+00 -9.50020730E-01
 -8.35462447E-01 -7.82477396E-01 -6.98684332E-01 -6.89851704E-01 -6.54785558E-01
 -6.34604122E-01 -5.84900268E-01 -5.61278978E-01 -5.27210580E-01 -5.16744592E-01
 -4.96017089E-01 -4.68016351E-01 -4.10815595E-01 -4.02443025E-01  2.10024356E-01
  2.43812855E-01  2.59040215E-01  2.62277423E-01  2.95913766E-01  3.09549660E-01
  3.25787611E-01  3.34750726E-01  3.74974618E-01  3.86634710E-01  4.17974730E-01
  4.29490799E-01  4.92811970E-01  5.03791072E-01  6.92522407E-01  7.48472444E-01
  7.64574695E-01  8.05966184E-01  8.44529088E-01  8.53729598E-01  8.78465464E-01
  9.11351376E-01  9.28934508E-01  9.65439960E-01  9.97535045E-01  1.01580656E+00
  1.06245117E+00  1.09281561E+00  1.10337994E+00  1.14049614E+00  1.15566562E+00
  1.17206076E+00  1.18038150E+00  1.21274252E+00  1.21385809E+00  1.24514936E+00
  1.30320912E+00  1.31696987E+00  1.38511527E+00  1.39899120E+00  1.49111487E+00
  1.50437924E+00  1.51446067E+00  1.61371605E+00  1.72906542E+00  1.81522137E+00
  1.90187258E+00  1.93883288E+00  1.99300970E+00  2.01283107E+00  2.05243895E+00
  2.10049921E+00  2.12750864E+00  2.13272837E+00  2.17278271E+00  2.23419546E+00
  2.27343192E+00  2.37774503E+00  2.39810253E+00  2.44880830E+00  2.52516001E+00
  2.55959041E+00  2.57363807E+00  2.62851546E+00  2.67620900E+00  2.69356439E+00
  2.75262125E+00  2.82053921E+00  2.86778532E+00  2.89191767E+00  2.97777147E+00
  2.98787104E+00  3.16120924E+00  3.19620667E+00  3.24117188E+00  3.30040646E+00
  4.16907364E+00  4.27997969E+00  4.56940778E+00  4.74082345E+00  4.85763228E+00
  5.01335507E+00
Alpha MO coefficients                      R   N=       11236
  9.94664943E-01  2.11769479E-02  3.55733602E-04 -7.58061307E-04  9.90919264E-04
  3.76287135E-03 -1.57431740E-04  4.15327238E-04 -5.11961678E-04 -3.88042725E-03
 -4.15981898E-03 -4.02724766E-03 -7.48966932E-05 -1.05314769E-04 -1.75032081E-05
 -2.67902913E-04  3.13545929E-07 -3.75330949E-06 -1.28658294E-06  9.45564883E-07
  7.23439737E-06  1.26207942E-05 -6.85119334E-06  8.79685612E-07 -5.17921681E-06
  7.61690302E-06  4.57805644E-06  6.89463307E-06 -1.19256096E-06 -2.21245749E-06
 -2.70150130E-05  2.10330405E-04  2.77445187E-05  3.49358992E-04 -5.53259815E-05
  3.91959067E-04  1.85564509E-05 -4.35559548E-05  3.77775106E-04 -2.80972525E-05
  3.95499543E-05 -6.86435405E-05  1.62448915E-05 -1.89593244E-05 -1.61807997E-06
  6.70562468E-06  6.78308134E-05 -2.00313752E-05 -4.35821606E-05  1.04938406E-05
 -3.68287879E-04 -1.82901662E-04  6.18226857E-05  7.28731393E-05 -1.73806487E-05
 -3.32207337E-05  3.76012694E-06 -3.30497534E-05  1.06837459E-05  1.83034083E-05
 -6.54759275E-07  3.83467378E-05 -5.61030621E-06  8.33077424E-06  2.72992258E-06
  1.21046041E-04  1.46846606E-05 -1.95581857E-04 -6.12432124E-05 -2.03139011E-05
 -4.22524461E-05 -7.61150782E-06 -2.73652320E-05 -1.47294429E-05 -3.84140161E-06
 -1.74507378E-06  3.52300317E-05  2.22361077E-05 -2.83290581E-05 -2.17519942E-06
 -2.09744506E-05  1.19140422E-05 -2.77949969E-05 -1.15900001E-04 -1.62442693E-05
 -5.18716435E-05 -2.31918883E-05  2.28524510E-05  1.38994691E-05 -1.47202927E-05
 -5.30058517E-06 -3.60207445E-05  3.37676569E-05  7.74367413E-05 -2.03998250E-05
 -1.18686364E-04  4.67007382E-05 -3.62368446E-05  1.05991701E-05 -7.56781985E-05
  5.63299022E-06  3.35116157E-06  4.13193796E-04 -2.41350661E-04 -3.08806696E-06
  2.24887601E-06  2.67611348E-04  1.41680207E-06 -2.87826177E-06 -1.49392042E-06
  6.98627014E-07  7.05280901E-05  1.28127357E-05 -1.86740139E-05 -2.30272660E-05
 -1.24494706E-05 -5.27730153E-06 -5.83760380E-07  3.13850878E-06  4.51433694E-06
  6.82256963E-06  9.94665578E-01  2.11492358E-02 -4.99388463E-04  6.71577089E-04
 -9.95460520E-04  3.86003647E-03  2.53924811E-04 -3.32921563E-04  4.99368337E-04
 -4.03978235E-03 -4.04341259E-03 -3.98993317E-03 -1.39292347E-04 -1.44839050E-04
  4.52293439E-05  1.67959773E-06  5.11870590E-05 -2.44686874E-05  1.13580801E-05
 -1.44882018E-05 -2.26629210E-04 -2.35397928E-04 -2.37817924E-05  2.24620668E-04
 -6.49224796E-05 -7.69983356E-06 -1.11539924E-05  5.53193895E-06 -1.36322678E-06
 -1.08641093E-06  2.86713232E-06  3.99037675E-06  3.22957543E-06  7.41854002E-06
  8.29158107E-06 -1.92099975E-04 -3.49409860E-05 -9.65472277E-05  2.73366468E-05
  1.03442757E-05  3.28173786E-06  9.70794654E-06 -1.53661133E-06  3.73113716E-06
 -1.05455093E-07 -3.71075866E-06 -1.82419736E-05  5.30759768E-06  1.28242192E-07
 -5.41523531E-07  6.63015563E-05  1.97726645E-05  3.20094683E-05 -8.45441539E-06
  7.02071640E-06 -5.04083941E-06 -5.64591503E-06  9.16208122E-06  3.44206112E-07
  6.69233717E-07 -2.60194267E-05  1.97942957E-04  2.68582056E-04  8.38411006E-05
  2.33694604E-04  3.38048945E-04 -1.39401594E-04  3.68751593E-04 -2.95425784E-04
  2.60683456E-05 -4.97347735E-05 -1.96199247E-05  2.60740621E-05  4.58486548E-05
  4.05549154E-05  1.21437921E-05  3.87608467E-05 -2.80563417E-07 -1.62665529E-05
  1.50046548E-06 -6.17629628E-06 -6.94646937E-06 -1.67401435E-05 -8.34670786E-05
 -1.84226298E-04  2.62379518E-05  7.39145270E-05 -2.91937940E-06  2.95006986E-06
  4.00544004E-04 -2.30344441E-04 -1.12332552E-04  2.88949384E-04  4.14169020E-05
 -1.34023952E-04  4.21541599E-05  4.75355757E-04 -4.61644060E-04  3.34817681E-04
 -1.21124837E-04  1.31438381E-04 -7.48244082E-04  1.58911451E-04 -4.82436957E-05
 -1.89376515E-05  1.84394029E-06 -4.50034581E-05 -1.98425516E-04  5.84081243E-05
 -1.66592705E-05  2.42855056E-05  7.02542293E-04 -4.38036538E-05  7.90187598E-05
 -2.15677134E-04 -9.80567782E-05 -1.64282431E-04 -1.34564846E-04 -5.51126652E-05
 -6.93833847E-06  1.48789889E-05  9.94787101E-01  2.79072821E-02 -6.58723223E-04
  4.89766899E-04  1.60591914E-04 -1.76546325E-02  3.11350513E-03  2.80965924E-03
 -8.20215248E-04 -1.13387812E-03 -1.07365814E-03 -1.42764970E-03  1.41415632E-04
 -7.16252847E-05 -1.35877642E-05  5.94584029E-03  1.38044105E-04  1.32544985E-04
  2.33916233E-05  1.99015079E-05  5.16900723E-03  1.89048637E-03  7.23318575E-04
 -1.21486225E-03 -2.25255905E-04 -1.62997134E-04 -4.16576947E-04 -1.23763067E-04
  1.37666793E-04  1.29752509E-04  6.19097756E-03  1.97214693E-04  1.09282128E-04
  3.45265492E-05 -8.50004643E-05  4.81179589E-03  2.14121791E-03  5.78564334E-04
  2.69621839E-05 -3.62099143E-04 -1.33414721E-04 -2.55168070E-04 -1.73033733E-04
 -1.82021189E-04 -5.62183729E-05  4.76607390E-02  1.28570719E-03 -5.92972928E-05
  4.39624907E-06 -2.19194322E-05  2.93396573E-03 -1.97634241E-03 -1.39814425E-04
  7.21949437E-04 -3.08730733E-04 -4.19896107E-04 -2.37394420E-04  1.97799453E-04
  4.85251776E-06 -1.03200421E-04 -2.00447743E-04  4.42193327E-05 -1.82428520E-04
 -1.52985456E-04 -1.66330436E-04 -2.30883196E-04 -1.76714584E-04  7.91687028E-05
 -1.15535416E-04  4.64543387E-04 -1.81247244E-04 -3.98106673E-04  9.48540738E-05
  3.25935744E-04 -8.05672709E-05 -1.31840590E-05 -8.03509860E-05 -4.56495224E-04
 -4.79667088E-05  1.00834015E-04 -4.19358519E-07  1.75117249E-03 -3.92678970E-05
 -5.53333682E-04  1.14241230E-04 -2.33210302E-04 -1.13630602E-04 -3.50673346E-04
 -1.65415299E-05 -2.26157401E-05  1.71043799E-05 -1.64007669E-04  3.51190498E-05
 -7.55296352E-05  1.21989601E-05 -9.99842410E-05  2.06769341E-03 -3.37048894E-04
 -1.90671714E-04  8.67706522E-05 -4.71697751E-04 -1.45419757E-04 -2.81943631E-04
 -2.32540270E-04 -3.99895151E-04 -1.80042281E-04 -4.80055283E-02 -1.27805050E-03
  5.44531931E-05 -6.40719643E-05 -3.46916559E-05  4.37041882E-03  2.43510008E-03
 -2.31638339E-03 -4.44398128E-04 -3.21062606E-04 -2.90125613E-04 -1.17453480E-04
  7.73790245E-05  6.44079881E-05 -2.97920482E-05 -5.36003675E-04 -2.13066703E-04
 -1.25160785E-04  2.60198195E-05  5.44405455E-05  1.20215730E-04  6.98727955E-05
  2.78290938E-04 -7.41449942E-05 -7.56776211E-05 -2.18427272E-05 -3.52013507E-05
  3.30877667E-05 -3.56425679E-05 -7.93999117E-05 -5.05279685E-04 -2.40380621E-04
 -9.41113142E-05  1.87226124E-05 -1.02312686E-05  4.18059097E-04  1.36803851E-04
  4.57196809E-04  2.38700655E-04 -1.80148437E-05 -2.19279846E-05 -4.55476829E-05
  6.46150521E-05  3.87870062E-05  4.96183697E-05  9.94765264E-01  2.77440014E-02
  4.72244267E-04  3.12754334E-04  4.47079730E-04 -1.60086706E-02  1.51826398E-03
 -6.18902549E-04 -5.81871346E-04 -1.48456001E-03 -1.45640140E-03 -1.46916042E-03
  4.61779946E-05  7.10958581E-05 -3.01098279E-05  1.61249871E-05 -2.29282911E-05
 -3.96239778E-05  7.70707581E-05 -2.42158516E-05  2.12869054E-04 -9.28087432E-06
 -6.11054755E-05  1.92710116E-04  2.48089091E-03  2.49246736E-04  2.64922206E-03
 -1.07461703E-04 -8.50341726E-05  6.94052244E-05  3.71400812E-04 -5.39660708E-06
 -8.74883029E-05  9.32959265E-05  6.43721238E-05 -2.51769396E-05 -3.61332759E-04
 -3.64391643E-04  5.85651106E-05  1.80770521E-05 -2.62041411E-05 -4.11265689E-06
 -7.68617027E-05  1.35738209E-04 -4.30722576E-05 -1.17745138E-05  2.78529537E-05
  1.20757179E-04 -5.59818956E-05  9.48178226E-06  1.68156017E-05 -4.34177361E-04
  2.71929954E-04 -1.15263846E-05 -1.34435220E-04  1.80747735E-05  8.15662530E-05
  1.56483223E-04  1.93916301E-06  1.88006559E-05  4.97069163E-07 -8.72652295E-03
  2.23709770E-04 -5.20974624E-05 -3.89805065E-05 -8.44435494E-06  2.80922773E-03
  3.90075846E-04  5.13517046E-04  4.29466200E-04 -6.46913026E-04 -2.23474916E-04
 -2.74165975E-04 -2.45906051E-04  1.57448361E-04  9.78985547E-05  8.45552682E-01
  2.40195658E-02  2.19697326E-04  1.43124553E-04 -6.93762737E-04 -9.77970402E-03
 -5.72716583E-04 -3.11419946E-04  6.30960875E-04 -1.66226898E-03 -1.50225754E-03
 -1.64697474E-03 -5.80158577E-05 -2.02767374E-04 -6.47939308E-05  5.25531681E-01