162_Bromoethane Gaussian SP Calculation on node35.bme.utexas.edu        
Freq      RMP2-FC                                                     6-31G(d)            
Number of atoms                            I                8
Info1-9                                    I   N=           9
          19          18        1002           0           0         100
           6           2           1
Charge                                     I                0
Multiplicity                               I                1
Number of electrons                        I               52
Number of alpha electrons                  I               26
Number of beta electrons                   I               26
Number of basis functions                  I               70
Number of independent functions            I               70
Number of point charges in /Mol/           I                0
Number of translation vectors              I                0
Atomic numbers                             I   N=           8
          35           6           6           1           1           1
           1           1
Nuclear charges                            R   N=           8
  3.50000000E+01  6.00000000E+00  6.00000000E+00  1.00000000E+00  1.00000000E+00
  1.00000000E+00  1.00000000E+00  1.00000000E+00
Current cartesian coordinates              R   N=          24
 -1.49563213E+00 -1.26803475E-01 -1.13788237E-05  1.93166325E+00  1.30839172E+00
  1.61772283E-05  3.90850782E+00 -7.62616581E-01  2.83230672E-05  2.03240998E+00
  2.49312297E+00 -1.68101617E+00  2.03238478E+00  2.49311870E+00  1.68105304E+00
  5.79625828E+00  8.60537642E-02  4.39985445E-05  3.72250968E+00 -1.95441471E+00
  1.67376705E+00  3.72253530E+00 -1.95440993E+00 -1.67371666E+00
Force Field                                I                0
Int Atom Types                             I   N=           8
           0           0           0           0           0           0
           0           0
MM charges                                 R   N=           8
  0.00000000E+00  0.00000000E+00  0.00000000E+00  0.00000000E+00  0.00000000E+00
  0.00000000E+00  0.00000000E+00  0.00000000E+00
Integer atomic weights                     I   N=           8
          79          12          12           1           1           1
           1           1
Real atomic weights                        R   N=           8
  7.89183361E+01  1.20000000E+01  1.20000000E+01  1.00782504E+00  1.00782504E+00
  1.00782504E+00  1.00782504E+00  1.00782504E+00
Atom fragment info                         I   N=           8
           0           0           0           0           0           0
           0           0
Atom residue num                           I   N=           8
           0           0           0           0           0           0
           0           0
Nuclear spins                              I   N=           8
           3           0           0           1           1           1
           1           1
Nuclear ZEff                               R   N=           8
 -2.45000000E+01 -3.60000000E+00 -3.60000000E+00 -1.00000000E+00 -1.00000000E+00
 -1.00000000E+00 -1.00000000E+00 -1.00000000E+00
Nuclear QMom                               R   N=           8
  3.13000000E+01  0.00000000E+00  0.00000000E+00  0.00000000E+00  0.00000000E+00
  0.00000000E+00  0.00000000E+00  0.00000000E+00
Nuclear GFac                               R   N=           8
  2.10639900E+00  0.00000000E+00  0.00000000E+00  2.79284600E+00  2.79284600E+00
  2.79284600E+00  2.79284600E+00  2.79284600E+00
MicOpt                                     I   N=           8
          -1          -1          -1          -1          -1          -1
          -1          -1
Number of contracted shells                I               30
Number of primitive shells                 I               73
Pure/Cartesian d shells                    I                1
Pure/Cartesian f shells                    I                0
Highest angular momentum                   I                2
Largest degree of contraction              I                8
Shell types                                I   N=          30
           0           0           0           0           0           0
           1           1           1           1           2           2
           0          -1          -1           2           0          -1
          -1           2           0           0           0           0
           0           0           0           0           0           0
Number of primitives per shell             I   N=          30
           8           2           1           1           1           1
           6           3           1           1           5           1
           6           3           1           1           6           3
           1           1           3           1           3           1
           3           1           3           1           3           1
Shell to atom map                          I   N=          30
           1           1           1           1           1           1
           1           1           1           1           1           1
           2           2           2           2           3           3
           3           3           4           4           5           5
           6           6           7           7           8           8
Primitive exponents                        R   N=          73
  5.74300000E+05  8.90700000E+04  2.02100000E+04  5.73600000E+03  1.89900000E+03
  6.98700000E+02  2.77800000E+02  1.15200000E+02  3.59700000E+01  1.55000000E+01
  4.77100000E+00  2.07700000E+00  4.21100000E-01  1.61000000E-01  4.40600000E+03
  1.04200000E+03  3.32100000E+02  1.21900000E+02  4.92400000E+01  2.11600000E+01
  8.83600000E+00  3.82900000E+00  1.64300000E+00  4.65000000E-01  1.42700000E-01
  1.08400000E+02  3.07100000E+01  1.06600000E+01  3.85100000E+00  1.31700000E+00
  3.38000000E-01  3.04752488E+03  4.57369518E+02  1.03948685E+02  2.92101553E+01
  9.28666296E+00  3.16392696E+00  7.86827235E+00  1.88128854E+00  5.44249258E-01
  1.68714478E-01  8.00000000E-01  3.04752488E+03  4.57369518E+02  1.03948685E+02
  2.92101553E+01  9.28666296E+00  3.16392696E+00  7.86827235E+00  1.88128854E+00
  5.44249258E-01  1.68714478E-01  8.00000000E-01  1.87311370E+01  2.82539436E+00
  6.40121692E-01  1.61277759E-01  1.87311370E+01  2.82539436E+00  6.40121692E-01
  1.61277759E-01  1.87311370E+01  2.82539436E+00  6.40121692E-01  1.61277759E-01
  1.87311370E+01  2.82539436E+00  6.40121692E-01  1.61277759E-01  1.87311370E+01
  2.82539436E+00  6.40121692E-01  1.61277759E-01
Contraction coefficients                   R   N=          73
  2.10682753E-04  1.61271721E-03  8.36010959E-03  3.40275588E-02  1.08515001E-01
  2.67396944E-01  4.29567221E-01  2.86993117E-01  2.77772914E-01  7.47057636E-01
  1.00000000E+00  1.00000000E+00  1.00000000E+00  1.00000000E+00  1.39552623E-03
  1.23748283E-02  6.10175241E-02  2.26775547E-01  4.05975875E-01  4.50692322E-01
  2.92018585E-01  5.30220862E-01  2.75287404E-01  1.00000000E+00  1.00000000E+00
  2.15879371E-02  1.34176036E-01  3.67870647E-01  4.91895206E-01  2.68321979E-01
  1.00000000E+00  1.83473713E-03  1.40373228E-02  6.88426223E-02  2.32184443E-01
  4.67941348E-01  3.62311985E-01 -1.19332420E-01 -1.60854152E-01  1.14345644E+00
  1.00000000E+00  1.00000000E+00  1.83473713E-03  1.40373228E-02  6.88426223E-02
  2.32184443E-01  4.67941348E-01  3.62311985E-01 -1.19332420E-01 -1.60854152E-01
  1.14345644E+00  1.00000000E+00  1.00000000E+00  3.34946043E-02  2.34726953E-01
  8.13757326E-01  1.00000000E+00  3.34946043E-02  2.34726953E-01  8.13757326E-01
  1.00000000E+00  3.34946043E-02  2.34726953E-01  8.13757326E-01  1.00000000E+00
  3.34946043E-02  2.34726953E-01  8.13757326E-01  1.00000000E+00  3.34946043E-02
  2.34726953E-01  8.13757326E-01  1.00000000E+00
P(S=P) Contraction coefficients            R   N=          73
  0.00000000E+00  0.00000000E+00  0.00000000E+00  0.00000000E+00  0.00000000E+00
  0.00000000E+00  0.00000000E+00  0.00000000E+00  0.00000000E+00  0.00000000E+00
  0.00000000E+00  0.00000000E+00  0.00000000E+00  0.00000000E+00  0.00000000E+00
  0.00000000E+00  0.00000000E+00  0.00000000E+00  0.00000000E+00  0.00000000E+00
  0.00000000E+00  0.00000000E+00  0.00000000E+00  0.00000000E+00  0.00000000E+00
  0.00000000E+00  0.00000000E+00  0.00000000E+00  0.00000000E+00  0.00000000E+00
  0.00000000E+00  0.00000000E+00  0.00000000E+00  0.00000000E+00  0.00000000E+00
  0.00000000E+00  0.00000000E+00  6.89990666E-02  3.16423961E-01  7.44308291E-01
  1.00000000E+00  0.00000000E+00  0.00000000E+00  0.00000000E+00  0.00000000E+00
  0.00000000E+00  0.00000000E+00  0.00000000E+00  6.89990666E-02  3.16423961E-01
  7.44308291E-01  1.00000000E+00  0.00000000E+00  0.00000000E+00  0.00000000E+00
  0.00000000E+00  0.00000000E+00  0.00000000E+00  0.00000000E+00  0.00000000E+00
  0.00000000E+00  0.00000000E+00  0.00000000E+00  0.00000000E+00  0.00000000E+00
  0.00000000E+00  0.00000000E+00  0.00000000E+00  0.00000000E+00  0.00000000E+00
  0.00000000E+00  0.00000000E+00  0.00000000E+00
Coordinates of each shell                  R   N=          90
 -1.49563213E+00 -1.26803475E-01 -1.13788237E-05 -1.49563213E+00 -1.26803475E-01
 -1.13788237E-05 -1.49563213E+00 -1.26803475E-01 -1.13788237E-05 -1.49563213E+00
 -1.26803475E-01 -1.13788237E-05 -1.49563213E+00 -1.26803475E-01 -1.13788237E-05
 -1.49563213E+00 -1.26803475E-01 -1.13788237E-05 -1.49563213E+00 -1.26803475E-01
 -1.13788237E-05 -1.49563213E+00 -1.26803475E-01 -1.13788237E-05 -1.49563213E+00
 -1.26803475E-01 -1.13788237E-05 -1.49563213E+00 -1.26803475E-01 -1.13788237E-05
 -1.49563213E+00 -1.26803475E-01 -1.13788237E-05 -1.49563213E+00 -1.26803475E-01
 -1.13788237E-05  1.93166325E+00  1.30839172E+00  1.61772283E-05  1.93166325E+00
  1.30839172E+00  1.61772283E-05  1.93166325E+00  1.30839172E+00  1.61772283E-05
  1.93166325E+00  1.30839172E+00  1.61772283E-05  3.90850782E+00 -7.62616581E-01
  2.83230672E-05  3.90850782E+00 -7.62616581E-01  2.83230672E-05  3.90850782E+00
 -7.62616581E-01  2.83230672E-05  3.90850782E+00 -7.62616581E-01  2.83230672E-05
  2.03240998E+00  2.49312297E+00 -1.68101617E+00  2.03240998E+00  2.49312297E+00
 -1.68101617E+00  2.03238478E+00  2.49311870E+00  1.68105304E+00  2.03238478E+00
  2.49311870E+00  1.68105304E+00  5.79625828E+00  8.60537642E-02  4.39985445E-05
  5.79625828E+00  8.60537642E-02  4.39985445E-05  3.72250968E+00 -1.95441471E+00
  1.67376705E+00  3.72250968E+00 -1.95441471E+00  1.67376705E+00  3.72253530E+00
 -1.95440993E+00 -1.67371666E+00  3.72253530E+00 -1.95440993E+00 -1.67371666E+00
Constraint Structure                       R   N=          24
 -1.49563213E+00 -1.26803475E-01 -1.13788237E-05  1.93166325E+00  1.30839172E+00
  1.61772283E-05  3.90850782E+00 -7.62616581E-01  2.83230672E-05  2.03240998E+00
  2.49312297E+00 -1.68101617E+00  2.03238478E+00  2.49311870E+00  1.68105304E+00
  5.79625828E+00  8.60537642E-02  4.39985445E-05  3.72250968E+00 -1.95441471E+00
  1.67376705E+00  3.72253530E+00 -1.95440993E+00 -1.67371666E+00
Num ILSW                                   I              100
ILSW                                       I   N=         100
           0           1           0           0           2           0
           0           0           0           0           0          -1
           0           0           0           0           0           0
           0           0           0           0           1           0
           1           0           0           0           0           0
           0           0      100000           0          -1           0
           0           0           0           0           0           0
           0           0           0           1           1           0
           0           0           1           0           0           0
           0           0           4          40           0           0
           0           0           0           0           0           0
           0           0           0           0           0           0
           0           0           0           0           0           0
           0           0           0           0           0           0
           0           0           0           0           0           0
           0           0           0           0           0           0
           0           0           0           0
Num RLSW                                   I               40
RLSW                                       R   N=          40
  1.00000000E+00  1.00000000E+00  1.00000000E+00  1.00000000E+00  1.00000000E+00
  0.00000000E+00  0.00000000E+00  1.00000000E+00  0.00000000E+00  0.00000000E+00
  0.00000000E+00  0.00000000E+00  1.00000000E+00  0.00000000E+00  0.00000000E+00
  0.00000000E+00  0.00000000E+00  1.00000000E+00  0.00000000E+00  0.00000000E+00
  0.00000000E+00  0.00000000E+00  1.00000000E+00  0.00000000E+00  0.00000000E+00
  0.00000000E+00  0.00000000E+00  1.00000000E+00  0.00000000E+00  0.00000000E+00
  0.00000000E+00  0.00000000E+00  0.00000000E+00  0.00000000E+00  0.00000000E+00
  0.00000000E+00  0.00000000E+00  0.00000000E+00  1.00000000E+00  1.00000000E+00
MxBond                                     I                4
NBond                                      I   N=           8
           1           4           4           1           1           1
           1           1
IBond                                      I   N=          32
           2           0           0           0           1           3
           4           5           2           6           7           8
           2           0           0           0           2           0
           0           0           3           0           0           0
           3           0           0           0           3           0
           0           0
RBond                                      R   N=          32
  1.00000000E+00  0.00000000E+00  0.00000000E+00  0.00000000E+00  1.00000000E+00
  1.00000000E+00  1.00000000E+00  1.00000000E+00  1.00000000E+00  1.00000000E+00
  1.00000000E+00  1.00000000E+00  1.00000000E+00  0.00000000E+00  0.00000000E+00
  0.00000000E+00  1.00000000E+00  0.00000000E+00  0.00000000E+00  0.00000000E+00
  1.00000000E+00  0.00000000E+00  0.00000000E+00  0.00000000E+00  1.00000000E+00
  0.00000000E+00  0.00000000E+00  0.00000000E+00  1.00000000E+00  0.00000000E+00
  0.00000000E+00  0.00000000E+00
Virial Ratio                               R      2.004411101877647E+00
SCF Energy                                 R     -2.648538835360384E+03
MP2 Energy                                 R     -2.648914659964754E+03
Total Energy                               R     -2.648914659964754E+03
Post-SCF wavefunction norm                 R      1.510921508623922E+00
RMS Force                                  R      9.850112234642141E-07
RMS Density                                R      1.571901568235323E-09
External E-field                           R   N=          35
  0.00000000E+00  0.00000000E+00  0.00000000E+00  0.00000000E+00  0.00000000E+00
  0.00000000E+00  0.00000000E+00  0.00000000E+00  0.00000000E+00  0.00000000E+00
  0.00000000E+00  0.00000000E+00  0.00000000E+00  0.00000000E+00  0.00000000E+00
  0.00000000E+00  0.00000000E+00  0.00000000E+00  0.00000000E+00  0.00000000E+00
  0.00000000E+00  0.00000000E+00  0.00000000E+00  0.00000000E+00  0.00000000E+00
  0.00000000E+00  0.00000000E+00  0.00000000E+00  0.00000000E+00  0.00000000E+00
  0.00000000E+00  0.00000000E+00  0.00000000E+00  0.00000000E+00  0.00000000E+00
IOpCl                                      I                0
IROHF                                      I                0
Alpha Orbital Energies                     R   N=          70
 -4.90045328E+02 -6.44576993E+01 -5.85967805E+01 -5.85952045E+01 -5.85951604E+01
 -1.12961208E+01 -1.12378084E+01 -9.70607871E+00 -7.45499239E+00 -7.44673989E+00
 -7.44668003E+00 -3.19356616E+00 -3.18975418E+00 -3.18968663E+00 -3.18020099E+00
 -3.18020034E+00 -1.08249200E+00 -9.62778694E-01 -8.36704980E-01 -6.47274159E-01
 -6.01535125E-01 -5.55817825E-01 -5.27054274E-01 -4.71131030E-01 -3.92868845E-01
 -3.92395956E-01  1.65745836E-01  2.37481980E-01  2.84289341E-01  2.84344968E-01
  3.07746299E-01  3.20182152E-01  3.69664590E-01  4.49986354E-01  6.06959769E-01
  6.26864926E-01  6.52414119E-01  6.61553713E-01  6.66043951E-01  7.09589470E-01
  7.15461006E-01  7.68003239E-01  7.75095763E-01  7.83369686E-01  9.36155440E-01
  9.88746660E-01  1.02863833E+00  1.07069168E+00  1.12035876E+00  1.15126302E+00
  1.20069417E+00  1.20485662E+00  1.22136432E+00  1.38621021E+00  1.70732341E+00
  1.79037256E+00  1.85856126E+00  1.86240516E+00  2.21539713E+00  2.25424665E+00
  2.27376442E+00  2.50079138E+00  2.57576332E+00  2.63568137E+00  2.65883374E+00
  2.91419984E+00  4.53701565E+00  4.76441287E+00  9.29450589E+00  7.44894128E+01
Alpha MO coefficients                      R   N=        4900
  9.94936835E-01  3.27981882E-02 -4.42088956E-02 -4.75782857E-02 -2.62396034E-02
 -1.93682592E-02  1.90990916E-05  5.56189797E-06  1.50610040E-10 -5.59367409E-05
 -1.41322536E-05 -4.38577157E-10  2.38189683E-04  5.59643451E-05  1.86368533E-09
 -5.26624447E-04 -1.68053491E-04 -4.18526369E-09  4.39998074E-02  4.39950133E-02
  4.39899753E-02  1.81258781E-07  8.68263970E-11  8.96680550E-12  1.08450856E-02
  1.08833882E-02  1.09241938E-02 -1.69240312E-05 -7.18444604E-10 -1.89380587E-10
  1.93697290E-05  1.08451512E-04  2.79144976E-04  1.22641606E-04  2.24468806E-09
 -5.66656683E-04 -5.74784034E-04  3.79375144E-05 -4.18198769E-09 -1.14255910E-04
 -6.82435327E-05  1.61235972E-05 -1.43535058E-05 -1.14244071E-09 -2.31298406E-10
 -2.23507914E-06 -1.19214645E-04 -9.84844566E-06  2.19836851E-05 -3.37000572E-11
  2.94462548E-04 -5.25560402E-04  2.67081347E-04 -3.71550889E-09  8.86922127E-05
  5.32482893E-05  2.76180051E-05 -4.14316258E-05  4.73523086E-10 -2.67281339E-10
  3.51404682E-05  3.87808996E-04  3.51404464E-05  3.87808945E-04  2.32516771E-05
  1.68132760E-04 -8.35255385E-05  2.56319934E-04 -8.35255504E-05  2.56319756E-04
 -4.23687447E-01  1.16528297E+00 -2.70831978E-01 -3.65408394E-01 -2.01542301E-01
 -1.53764755E-01  8.30401814E-04  3.56358631E-04  6.68219010E-09 -3.52480073E-04
 -7.00016637E-05 -2.74124964E-09  1.88448029E-03  4.37195580E-04  1.47380447E-08
 -4.22782360E-03 -1.34650671E-03 -3.35954481E-08  3.37044611E-01  3.36975342E-01
  3.36927175E-01  1.97742741E-05  1.05386746E-09  2.20846067E-10  8.53345170E-02
  8.56376318E-02  8.59634783E-02 -1.31001312E-04 -5.70754712E-09 -1.48132085E-09
  1.46946240E-04  9.40387756E-04  2.22379277E-03  9.76708625E-04  1.78816700E-08
 -4.41840735E-03 -4.59205695E-03  3.17720242E-04 -3.33908131E-08 -1.01807870E-03
 -5.69038352E-04  1.14170880E-04 -1.67992811E-04 -9.98121353E-09 -2.26205684E-09
 -2.54447939E-05 -9.48379443E-04 -6.18284845E-05  1.73737251E-04 -1.42893262E-10
  2.41568684E-03 -4.23075885E-03  2.10766701E-03 -2.99651203E-08  6.88773869E-04
  3.99211189E-04  1.93683317E-04 -3.23100495E-04  3.85429728E-09 -2.07820865E-09
  2.62678670E-04  3.08329348E-03  2.62678499E-04  3.08329307E-03  1.82427592E-04
  1.35679745E-03 -6.68588951E-04  2.02147242E-03 -6.68589035E-04  2.02147099E-03
  2.35380041E-04 -1.76470440E-03  2.91883067E-03  1.77957702E-03 -9.85687743E-04
  9.67639713E-03  9.05773290E-01  3.65556404E-01  7.26027755E-06  5.76180680E-02
  2.32057583E-02  4.61778367E-07 -1.75035821E-02 -6.82243243E-03 -1.39989143E-07
  8.01962352E-03  2.91643905E-03  6.38978901E-08 -2.70543008E-03 -2.74343512E-03
 -2.72258934E-03  4.98616848E-05  2.09744167E-10  3.41311759E-10 -3.66919576E-03
 -3.40661279E-03 -3.58072070E-03 -2.54797919E-04 -1.06905004E-09 -1.63978285E-09
 -3.08301969E-04 -2.50956073E-03 -1.42582301E-04 -1.21403928E-04 -1.19128608E-09
  6.54781397E-03  7.76449471E-04 -1.70702594E-03  3.29876681E-09  1.27788025E-03
 -1.62294259E-04 -9.30511920E-04  9.08886448E-04  2.02840216E-08  7.94415177E-09
  2.04145679E-04  9.18704722E-04 -2.54220492E-04 -8.85884360E-05 -2.05496977E-09
 -5.42757575E-03  3.50856562E-03 -6.47383823E-04  2.57681495E-08  7.64861438E-05
  3.72739349E-04  2.97724236E-04  1.29282276E-04 -1.68478713E-09  1.14132820E-09
  6.62810708E-05 -1.76141633E-03  6.62811409E-05 -1.76141600E-03 -6.55661875E-05
 -6.29628307E-04  5.02253689E-04  1.27582410E-04  5.02253597E-04  1.27582619E-04
  3.37541613E-05  6.16390628E-05 -3.51625087E-04 -2.36521276E-04  1.66556703E-04
 -1.05903813E-03 -3.65575317E-01  9.05886128E-01 -1.58760184E-06 -2.31523833E-02
  5.72510145E-02 -1.00699508E-07  6.79725280E-03 -1.62243011E-02  3.03188946E-08
 -2.95010250E-03  7.26424834E-03 -1.29190219E-08  3.46279936E-04  3.53084603E-04
  3.26103617E-04 -1.15941567E-05  1.63666203E-10 -4.62925384E-11  3.10897502E-04
  5.70577305E-04  5.30599047E-04  3.29462620E-04 -1.51312690E-09  2.52048903E-09
  2.01230564E-05  1.09092276E-04 -1.84231406E-04 -1.89126412E-05 -1.42628881E-09
 -6.30122462E-04  7.01945201E-04  4.15711728E-04  6.05646835E-09  8.77050167E-05
 -1.20374087E-04  6.15935395E-05  1.19075673E-05  2.61464354E-10 -1.81659792E-10
 -5.56433628E-05 -3.26133242E-04  2.78581647E-04  3.94124469E-05  2.21772143E-09
  3.03885533E-04 -2.03874998E-03 -3.47333090E-04 -1.62754464E-08  7.33606259E-05
 -1.60163581E-04 -1.85240330E-05 -9.55730051E-05  6.22596824E-10 -9.64219905E-10
  1.28630513E-04 -5.63031165E-04  1.28630463E-04 -5.63031340E-04  1.68072196E-04
  9.73514661E-04 -3.59784376E-04  4.22236851E-04 -3.59784262E-04  4.22236135E-04
 -3.48147955E-12 -9.27491649E-12  4.25551556E-11  3.20162244E-11 -5.00090701E-11
  2.86301306E-10 -7.32772159E-06 -1.24512058E-06  9.76879607E-01 -4.62985863E-07
 -7.86719456E-08  6.17218552E-02  1.30733937E-07  2.22206845E-08 -1.74278153E-02
 -5.68742614E-08 -9.64734420E-09  7.59357740E-03 -1.43322989E-10 -4.95138446E-11
  6.61401067E-11 -3.90415613E-11  7.75775190E-06  3.52559239E-06 -3.27303736E-09
 -3.08161352E-10  3.42184159E-09 -1.12645258E-09  2.49082466E-04  1.11612996E-04
  8.39991857E-12  2.47378791E-11 -3.09851990E-10 -5.41889422E-11  3.91406622E-05
 -2.28891293E-10  6.30587378E-09  1.19593458E-09 -8.22323077E-04  1.62063011E-10
  6.82656911E-11 -1.82260063E-10  2.71530026E-10 -9.59383761E-06 -3.50253474E-05
 -1.66757945E-11 -5.83158463E-11  6.78912279E-10  1.74959554E-10 -8.24076607E-05
  4.16310133E-10 -6.40590723E-09 -1.43734963E-09  8.02774295E-04 -3.98603428E-10
 -1.61617725E-10  4.74036720E-10 -4.57966396E-10  2.74634011E-05  5.57342187E-05
 -2.49897234E-04  5.05580457E-04  2.49897255E-04 -5.05580474E-04 -1.72844615E-11
  2.38066907E-10  1.47320964E-04 -9.00451401E-04 -1.47321011E-04  9.00450856E-04
  1.86103262E-06 -5.30167521E-05  1.76248048E-04 -1.57868853E-04 -9.24389539E-04
  4.43645778E-03  1.87184778E-05  6.58264273E-06  1.48417537E-10 -6.72240807E-05
 -2.38431488E-05 -5.33428048E-10  3.81129103E-04  1.40964966E-04  3.03351909E-09
  1.70123120E-03  6.45664021E-04  1.36010760E-08 -6.92708092E-05 -7.51184325E-05
 -9.15651562E-05  1.02588161E-05  2.06134380E-10  1.01423644E-10 -2.30061995E-04
 -7.47468669E-04 -7.35529047E-04  2.18472287E-04  4.65961353E-09  1.62080214E-09
  9.95908082E-01  2.78724650E-02 -5.99378167E-04 -3.24615603E-04 -4.92358768E-09
 -1.54540019E-02  4.74627010E-04  1.02779531E-03  4.94098765E-09 -1.90756406E-03
 -1.54525066E-03 -1.38900809E-03 -2.40763608E-04 -4.80177974E-09 -2.02798770E-09
  5.20386002E-03  1.39340884E-04 -4.68852401E-05  1.69750803E-06 -3.65861647E-10
  3.97675489E-03 -1.32456286E-03  1.23394829E-03 -8.24978700E-09 -2.81424620E-04
 -3.36982870E-04 -1.27587831E-04  1.96469429E-04 -1.08092741E-09  1.15553530E-09
  1.86256601E-04  2.43683266E-03  1.86256583E-04  2.43683261E-03 -1.26911855E-04
 -6.95408651E-05 -1.43691283E-04 -2.24961823E-05 -1.43691285E-04 -2.24960423E-05
  1.52564385E-06  2.17824063E-05 -6.70500277E-05 -2.38799124E-05 -4.52519855E-04
  7.09847211E-04 -7.84559553E-06 -4.87439314E-07 -5.86979766E-11  2.73416783E-05
  1.60260411E-06  2.04514206E-10 -1.82611113E-04 -2.50954254E-06 -1.35666081E-09
  2.76552229E-04  2.64687929E-05  2.06647271E-09  2.92182529E-05  5.54979165E-05
  7.67176843E-05  1.06645224E-05 -3.94406808E-10  4.64572855E-11 -2.66478867E-05
 -1.03830399E-04 -2.59290256E-04 -7.53225600E-05  1.89481044E-09 -3.21115617E-10
 -5.51249011E-03  5.26410022E-06  9.05443891E-06  6.68354190E-08  6.37650579E-11
  3.62998042E-03  1.32592539E-03 -1.20558274E-03  8.42064924E-09 -3.51351731E-04
 -3.27251367E-04 -8.68622355E-05  2.19480581E-04 -2.00941354E-09  1.28860344E-09
  9.95716303E-01  2.84726728E-02 -1.49666597E-04  1.99496317E-04 -8.64533400E-10
 -1.49670791E-02  6.30626618E-04 -5.72707939E-04  3.95809655E-09 -1.85779309E-03
 -1.85433425E-03 -1.83406587E-03  2.65735478E-05 -1.68938250E-10  1.68980703E-10
 -1.37462161E-04  1.30414684E-05 -1.37462169E-04  1.30414351E-05  1.20975764E-04
  2.45834372E-03  1.56459421E-04  2.51834134E-03  1.56459397E-04  2.51834134E-03
  1.68017898E-01 -9.47641234E-01  8.80913993E-01  1.26508823E+00  3.01309428E-01
  2.23870003E-01 -2.16604077E-03 -8.97231478E-04 -1.73940007E-08  5.36741776E-03
  2.19573095E-03  4.30695597E-08 -2.25903639E-03 -4.53229424E-04 -1.75848173E-08
  6.17018138E-03  1.97392587E-03  4.90341793E-08 -4.48691967E-01 -4.50026427E-01
 -4.50295147E-01  8.44431961E-04  1.49459034E-08  6.72979754E-09 -1.23487231E-01
 -1.24010434E-01 -1.24484945E-01  2.36686469E-04  9.07340630E-09  2.50102303E-09
 -2.69084095E-04 -1.17592707E-03 -3.22340950E-03 -1.40274882E-03 -2.59051071E-08
  5.69341606E-03  6.67710883E-03 -4.05702785E-04  4.86442426E-08  1.56909229E-03
  7.66784653E-04 -1.53521402E-04  3.60283861E-04  1.53293423E-08  4.05634157E-09
  7.53280997E-05  1.25836261E-03  3.89894536E-05 -2.39449936E-04 -1.62251790E-10
 -3.59148253E-03  6.14112436E-03 -2.91552576E-03  4.36892864E-08 -8.83541731E-04
 -4.36851039E-04 -1.56983265E-04  4.11387687E-04 -5.73830930E-09  2.62527282E-09
 -3.24506874E-04 -4.41184606E-03 -3.24506646E-04 -4.41184545E-03 -2.37801538E-04
 -2.01109913E-03  9.26428134E-04 -2.81239359E-03  9.26428220E-04 -2.81239147E-03
 -9.02774501E-04  5.61836691E-03 -6.69533839E-03 -6.20028377E-03 -2.43553564E-04
 -5.33753746E-03 -3.97913714E-01 -1.71202643E-01 -3.20332293E-06  9.75348252E-01
  4.19652309E-01  7.85185201E-06  1.90429572E-02  8.07338720E-03  1.53148050E-07
 -4.22236315E-03 -1.66881074E-03 -3.38159641E-08  5.33193101E-03  2.34572193E-03
  1.66402134E-03  1.79883018E-03  3.40672887E-08  1.44989066E-08  1.90621469E-03
  1.94598753E-03  2.05073918E-03  4.95084337E-06 -1.25649965E-09 -1.23787564E-10
  5.15490973E-05  1.00216076E-03 -3.31026728E-05  2.49147422E-06 -2.59013587E-10
 -2.46019657E-03 -5.13909301E-04  6.35289634E-04 -2.89159927E-09 -4.00868308E-04
  4.49767144E-05  3.14172706E-04 -2.77177241E-04 -6.54477287E-09 -2.47414054E-09
 -7.23955846E-05 -4.06462701E-04  9.54502763E-05  4.58077882E-05  7.88844542E-10
  2.12224620E-03 -1.50144598E-03  2.99198058E-04 -1.10106070E-08  1.80938499E-05
 -1.12845126E-04 -9.29126220E-05 -5.87309435E-05  8.64404093E-10 -4.88707562E-10
 -1.24399660E-05  7.95617066E-04 -1.24399960E-05  7.95616923E-04  3.47317226E-05
  3.15278172E-04 -2.04488108E-04  4.89020316E-06 -2.04488078E-04  4.89009656E-06
 -8.38914749E-07 -2.46501582E-05  7.65839049E-05  9.53150449E-07 -1.27589120E-04
  4.21083101E-04  1.71264358E-01 -3.98087355E-01  7.33238123E-07 -4.19914020E-01
  9.76066011E-01 -1.79776432E-06 -7.41838009E-03  1.70017805E-02 -3.21023355E-08
  1.37655375E-03 -3.18084623E-03  5.94895442E-09 -1.52838641E-03  1.41345139E-03
 -4.50189686E-05  1.61214264E-03 -1.05773905E-08  1.43321503E-08 -1.02407930E-04
 -2.35811696E-04 -1.94115924E-04 -1.41936988E-04  6.12490701E-10 -1.12743046E-09
 -6.36942950E-06 -5.22433433E-05  6.28379807E-05  1.84878698E-05  5.01961596E-10
  2.06026836E-04 -2.76756659E-04 -1.60339545E-04 -2.35014016E-09 -1.54550675E-05
  3.70922745E-05 -2.60491446E-05  1.73927251E-06  8.73342884E-11  1.08183875E-10
  1.58143852E-05  1.17890653E-04 -1.00318830E-04 -1.60278786E-05 -7.98108398E-10
 -2.38976455E-05  7.76601417E-04  1.25140251E-04  6.16303984E-09 -4.12329327E-05
  4.73930741E-05  8.97121715E-07  2.76610170E-05 -3.15648678E-10  2.84582050E-10
 -4.21185746E-05  2.20707317E-04 -4.21185740E-05  2.20707427E-04 -6.34689903E-05
 -3.85439834E-04  1.31012017E-04 -1.99030887E-04  1.31011989E-04 -1.99030675E-04
  1.00242733E-12 -9.05573991E-14 -9.69440947E-12  5.05231591E-12  4.06082016E-11
 -1.44464108E-10  3.23363841E-06  5.92944060E-07 -4.33369422E-01 -7.92854782E-06
 -1.45383722E-06  1.06257705E+00 -1.37833095E-07 -2.52808484E-08  1.84734957E-02
  2.50694242E-08  4.60049806E-09 -3.36482474E-03 -2.76490408E-08 -2.17041297E-09
  2.98434975E-08 -9.79106819E-09  2.14014055E-03  9.19723991E-04  1.55414931E-09
  1.57787672E-10 -1.60977547E-09  5.44659590E-10 -1.18065903E-04 -5.21040116E-05
 -2.68738596E-12 -5.97353098E-12  3.22819143E-11  4.82824231E-12 -4.41750276E-06
  6.38365200E-11 -2.22662919E-09 -4.15856557E-10  2.93266815E-04 -3.09796719E-11
 -1.41802812E-11  3.18324050E-11 -4.92786268E-11  1.64432422E-06  6.46943601E-06
  4.07243903E-12  1.25517240E-11 -2.25231775E-10 -6.05096520E-11  2.83710334E-05
 -1.50334189E-10  2.36148462E-09  5.38950158E-10 -3.04935605E-04  1.45089943E-10
  4.23209275E-11 -1.62913277E-10  1.33043183E-10 -9.84245945E-06 -1.62013606E-05
  8.64340789E-05 -2.15147851E-04 -8.64340770E-05  2.15147814E-04  1.18306893E-11
 -5.76153262E-11 -5.50449200E-05  3.57393514E-04  5.50449119E-05 -3.57393263E-04
 -4.09446068E-04  2.68739307E-03 -3.46866432E-03 -3.94445369E-03  3.90997891E-03
 -3.93504603E-03  1.14525790E-03  4.88325784E-04  9.21590836E-09 -2.93458242E-03
 -1.25241753E-03 -2.36166958E-08  2.44073194E-04  1.36351505E-04  2.01497802E-09
 -2.15331263E-03 -9.49491388E-04 -1.73916112E-08  7.67407697E-01 -2.68519857E-01
 -4.94467678E-01  6.24887151E-01  1.17284959E-05  5.02005735E-06  1.01356683E-02
 -3.86075845E-03 -6.92917079E-03  8.43419309E-03  1.58575942E-07  6.77828960E-08