052_Thymine Gaussian SP Calculation on node35.bme.utexas.edu            
Freq      RMP2-FC                                                     6-31G(d)            
Number of atoms                            I               15
Info1-9                                    I   N=           9
          26          25        1002           0           0         100
           6           2           1
Charge                                     I                0
Multiplicity                               I                1
Number of electrons                        I               66
Number of alpha electrons                  I               33
Number of beta electrons                   I               33
Number of basis functions                  I              147
Number of independent functions            I              147
Number of point charges in /Mol/           I                0
Number of translation vectors              I                0
Atomic numbers                             I   N=          15
           7           6           6           6           7           6
           6           8           8           1           1           1
           1           1           1
Nuclear charges                            R   N=          15
  7.00000000E+00  6.00000000E+00  6.00000000E+00  6.00000000E+00  7.00000000E+00
  6.00000000E+00  6.00000000E+00  8.00000000E+00  8.00000000E+00  1.00000000E+00
  1.00000000E+00  1.00000000E+00  1.00000000E+00  1.00000000E+00  1.00000000E+00
Current cartesian coordinates              R   N=          45
 -2.12845798E+00 -2.33648605E+00 -4.98033713E-06  4.36421922E-01 -2.80972879E+00
  2.56342281E-08  2.17588751E+00 -9.32181262E-01 -1.40270639E-05  1.28552021E+00
  1.68391030E+00 -4.56045039E-05 -1.35319448E+00  1.94119442E+00 -2.77688453E-05
 -3.17858097E+00  6.20939411E-02 -4.58341472E-05  4.97018977E+00 -1.36783514E+00
  1.48965596E-05  2.65992235E+00  3.55874665E+00  3.29129170E-05 -5.45846067E+00
  4.61183734E-01  4.68387366E-05 -3.39551534E+00 -3.77153645E+00  2.80750885E-05
 -2.02287515E+00  3.74272256E+00  1.22178881E-05  9.59304495E-01 -4.79496293E+00
  2.94639585E-05  5.83959107E+00 -4.99134653E-01 -1.66125804E+00  5.83956972E+00
 -4.99063668E-01  1.66126183E+00  5.40316834E+00 -3.38798078E+00  6.09464796E-05
Force Field                                I                0
Int Atom Types                             I   N=          15
           0           0           0           0           0           0
           0           0           0           0           0           0
           0           0           0
MM charges                                 R   N=          15
  0.00000000E+00  0.00000000E+00  0.00000000E+00  0.00000000E+00  0.00000000E+00
  0.00000000E+00  0.00000000E+00  0.00000000E+00  0.00000000E+00  0.00000000E+00
  0.00000000E+00  0.00000000E+00  0.00000000E+00  0.00000000E+00  0.00000000E+00
Integer atomic weights                     I   N=          15
          14          12          12          12          14          12
          12          16          16           1           1           1
           1           1           1
Real atomic weights                        R   N=          15
  1.40030740E+01  1.20000000E+01  1.20000000E+01  1.20000000E+01  1.40030740E+01
  1.20000000E+01  1.20000000E+01  1.59949146E+01  1.59949146E+01  1.00782504E+00
  1.00782504E+00  1.00782504E+00  1.00782504E+00  1.00782504E+00  1.00782504E+00
Atom fragment info                         I   N=          15
           0           0           0           0           0           0
           0           0           0           0           0           0
           0           0           0
Atom residue num                           I   N=          15
           0           0           0           0           0           0
           0           0           0           0           0           0
           0           0           0
Nuclear spins                              I   N=          15
           2           0           0           0           2           0
           0           0           0           1           1           1
           1           1           1
Nuclear ZEff                               R   N=          15
 -4.55000000E+00 -3.60000000E+00 -3.60000000E+00 -3.60000000E+00 -4.55000000E+00
 -3.60000000E+00 -3.60000000E+00 -5.60000000E+00 -5.60000000E+00 -1.00000000E+00
 -1.00000000E+00 -1.00000000E+00 -1.00000000E+00 -1.00000000E+00 -1.00000000E+00
Nuclear QMom                               R   N=          15
  2.04400000E+00  0.00000000E+00  0.00000000E+00  0.00000000E+00  2.04400000E+00
  0.00000000E+00  0.00000000E+00  0.00000000E+00  0.00000000E+00  0.00000000E+00
  0.00000000E+00  0.00000000E+00  0.00000000E+00  0.00000000E+00  0.00000000E+00
Nuclear GFac                               R   N=          15
  4.03761000E-01  0.00000000E+00  0.00000000E+00  0.00000000E+00  4.03761000E-01
  0.00000000E+00  0.00000000E+00  0.00000000E+00  0.00000000E+00  2.79284600E+00
  2.79284600E+00  2.79284600E+00  2.79284600E+00  2.79284600E+00  2.79284600E+00
MicOpt                                     I   N=          15
          -1          -1          -1          -1          -1          -1
          -1          -1          -1          -1          -1          -1
          -1          -1          -1
Number of contracted shells                I               48
Number of primitive shells                 I              123
Pure/Cartesian d shells                    I                1
Pure/Cartesian f shells                    I                0
Highest angular momentum                   I                2
Largest degree of contraction              I                6
Shell types                                I   N=          48
           0          -1          -1           2           0          -1
          -1           2           0          -1          -1           2
           0          -1          -1           2           0          -1
          -1           2           0          -1          -1           2
           0          -1          -1           2           0          -1
          -1           2           0          -1          -1           2
           0           0           0           0           0           0
           0           0           0           0           0           0
Number of primitives per shell             I   N=          48
           6           3           1           1           6           3
           1           1           6           3           1           1
           6           3           1           1           6           3
           1           1           6           3           1           1
           6           3           1           1           6           3
           1           1           6           3           1           1
           3           1           3           1           3           1
           3           1           3           1           3           1
Shell to atom map                          I   N=          48
           1           1           1           1           2           2
           2           2           3           3           3           3
           4           4           4           4           5           5
           5           5           6           6           6           6
           7           7           7           7           8           8
           8           8           9           9           9           9
          10          10          11          11          12          12
          13          13          14          14          15          15
Primitive exponents                        R   N=         123
  4.17351146E+03  6.27457911E+02  1.42902093E+02  4.02343293E+01  1.28202129E+01
  4.39043701E+00  1.16263619E+01  2.71627981E+00  7.72218397E-01  2.12031498E-01
  8.00000000E-01  3.04752488E+03  4.57369518E+02  1.03948685E+02  2.92101553E+01
  9.28666296E+00  3.16392696E+00  7.86827235E+00  1.88128854E+00  5.44249258E-01
  1.68714478E-01  8.00000000E-01  3.04752488E+03  4.57369518E+02  1.03948685E+02
  2.92101553E+01  9.28666296E+00  3.16392696E+00  7.86827235E+00  1.88128854E+00
  5.44249258E-01  1.68714478E-01  8.00000000E-01  3.04752488E+03  4.57369518E+02
  1.03948685E+02  2.92101553E+01  9.28666296E+00  3.16392696E+00  7.86827235E+00
  1.88128854E+00  5.44249258E-01  1.68714478E-01  8.00000000E-01  4.17351146E+03
  6.27457911E+02  1.42902093E+02  4.02343293E+01  1.28202129E+01  4.39043701E+00
  1.16263619E+01  2.71627981E+00  7.72218397E-01  2.12031498E-01  8.00000000E-01
  3.04752488E+03  4.57369518E+02  1.03948685E+02  2.92101553E+01  9.28666296E+00
  3.16392696E+00  7.86827235E+00  1.88128854E+00  5.44249258E-01  1.68714478E-01
  8.00000000E-01  3.04752488E+03  4.57369518E+02  1.03948685E+02  2.92101553E+01
  9.28666296E+00  3.16392696E+00  7.86827235E+00  1.88128854E+00  5.44249258E-01
  1.68714478E-01  8.00000000E-01  5.48467166E+03  8.25234946E+02  1.88046958E+02
  5.29645000E+01  1.68975704E+01  5.79963534E+00  1.55396162E+01  3.59993359E+00
  1.01376175E+00  2.70005823E-01  8.00000000E-01  5.48467166E+03  8.25234946E+02
  1.88046958E+02  5.29645000E+01  1.68975704E+01  5.79963534E+00  1.55396162E+01
  3.59993359E+00  1.01376175E+00  2.70005823E-01  8.00000000E-01  1.87311370E+01
  2.82539436E+00  6.40121692E-01  1.61277759E-01  1.87311370E+01  2.82539436E+00
  6.40121692E-01  1.61277759E-01  1.87311370E+01  2.82539436E+00  6.40121692E-01
  1.61277759E-01  1.87311370E+01  2.82539436E+00  6.40121692E-01  1.61277759E-01
  1.87311370E+01  2.82539436E+00  6.40121692E-01  1.61277759E-01  1.87311370E+01
  2.82539436E+00  6.40121692E-01  1.61277759E-01
Contraction coefficients                   R   N=         123
  1.83477216E-03  1.39946270E-02  6.85865518E-02  2.32240873E-01  4.69069948E-01
  3.60455199E-01 -1.14961182E-01 -1.69117479E-01  1.14585195E+00  1.00000000E+00
  1.00000000E+00  1.83473713E-03  1.40373228E-02  6.88426223E-02  2.32184443E-01
  4.67941348E-01  3.62311985E-01 -1.19332420E-01 -1.60854152E-01  1.14345644E+00
  1.00000000E+00  1.00000000E+00  1.83473713E-03  1.40373228E-02  6.88426223E-02
  2.32184443E-01  4.67941348E-01  3.62311985E-01 -1.19332420E-01 -1.60854152E-01
  1.14345644E+00  1.00000000E+00  1.00000000E+00  1.83473713E-03  1.40373228E-02
  6.88426223E-02  2.32184443E-01  4.67941348E-01  3.62311985E-01 -1.19332420E-01
 -1.60854152E-01  1.14345644E+00  1.00000000E+00  1.00000000E+00  1.83477216E-03
  1.39946270E-02  6.85865518E-02  2.32240873E-01  4.69069948E-01  3.60455199E-01
 -1.14961182E-01 -1.69117479E-01  1.14585195E+00  1.00000000E+00  1.00000000E+00
  1.83473713E-03  1.40373228E-02  6.88426223E-02  2.32184443E-01  4.67941348E-01
  3.62311985E-01 -1.19332420E-01 -1.60854152E-01  1.14345644E+00  1.00000000E+00
  1.00000000E+00  1.83473713E-03  1.40373228E-02  6.88426223E-02  2.32184443E-01
  4.67941348E-01  3.62311985E-01 -1.19332420E-01 -1.60854152E-01  1.14345644E+00
  1.00000000E+00  1.00000000E+00  1.83107443E-03  1.39501722E-02  6.84450781E-02
  2.32714336E-01  4.70192898E-01  3.58520853E-01 -1.10777550E-01 -1.48026263E-01
  1.13076702E+00  1.00000000E+00  1.00000000E+00  1.83107443E-03  1.39501722E-02
  6.84450781E-02  2.32714336E-01  4.70192898E-01  3.58520853E-01 -1.10777550E-01
 -1.48026263E-01  1.13076702E+00  1.00000000E+00  1.00000000E+00  3.34946043E-02
  2.34726953E-01  8.13757326E-01  1.00000000E+00  3.34946043E-02  2.34726953E-01
  8.13757326E-01  1.00000000E+00  3.34946043E-02  2.34726953E-01  8.13757326E-01
  1.00000000E+00  3.34946043E-02  2.34726953E-01  8.13757326E-01  1.00000000E+00
  3.34946043E-02  2.34726953E-01  8.13757326E-01  1.00000000E+00  3.34946043E-02
  2.34726953E-01  8.13757326E-01  1.00000000E+00
P(S=P) Contraction coefficients            R   N=         123
  0.00000000E+00  0.00000000E+00  0.00000000E+00  0.00000000E+00  0.00000000E+00
  0.00000000E+00  6.75797439E-02  3.23907296E-01  7.40895140E-01  1.00000000E+00
  0.00000000E+00  0.00000000E+00  0.00000000E+00  0.00000000E+00  0.00000000E+00
  0.00000000E+00  0.00000000E+00  6.89990666E-02  3.16423961E-01  7.44308291E-01
  1.00000000E+00  0.00000000E+00  0.00000000E+00  0.00000000E+00  0.00000000E+00
  0.00000000E+00  0.00000000E+00  0.00000000E+00  6.89990666E-02  3.16423961E-01
  7.44308291E-01  1.00000000E+00  0.00000000E+00  0.00000000E+00  0.00000000E+00
  0.00000000E+00  0.00000000E+00  0.00000000E+00  0.00000000E+00  6.89990666E-02
  3.16423961E-01  7.44308291E-01  1.00000000E+00  0.00000000E+00  0.00000000E+00
  0.00000000E+00  0.00000000E+00  0.00000000E+00  0.00000000E+00  0.00000000E+00
  6.75797439E-02  3.23907296E-01  7.40895140E-01  1.00000000E+00  0.00000000E+00
  0.00000000E+00  0.00000000E+00  0.00000000E+00  0.00000000E+00  0.00000000E+00
  0.00000000E+00  6.89990666E-02  3.16423961E-01  7.44308291E-01  1.00000000E+00
  0.00000000E+00  0.00000000E+00  0.00000000E+00  0.00000000E+00  0.00000000E+00
  0.00000000E+00  0.00000000E+00  6.89990666E-02  3.16423961E-01  7.44308291E-01
  1.00000000E+00  0.00000000E+00  0.00000000E+00  0.00000000E+00  0.00000000E+00
  0.00000000E+00  0.00000000E+00  0.00000000E+00  7.08742682E-02  3.39752839E-01
  7.27158577E-01  1.00000000E+00  0.00000000E+00  0.00000000E+00  0.00000000E+00
  0.00000000E+00  0.00000000E+00  0.00000000E+00  0.00000000E+00  7.08742682E-02
  3.39752839E-01  7.27158577E-01  1.00000000E+00  0.00000000E+00  0.00000000E+00
  0.00000000E+00  0.00000000E+00  0.00000000E+00  0.00000000E+00  0.00000000E+00
  0.00000000E+00  0.00000000E+00  0.00000000E+00  0.00000000E+00  0.00000000E+00
  0.00000000E+00  0.00000000E+00  0.00000000E+00  0.00000000E+00  0.00000000E+00
  0.00000000E+00  0.00000000E+00  0.00000000E+00  0.00000000E+00  0.00000000E+00
  0.00000000E+00  0.00000000E+00  0.00000000E+00
Coordinates of each shell                  R   N=         144
 -2.12845798E+00 -2.33648605E+00 -4.98033713E-06 -2.12845798E+00 -2.33648605E+00
 -4.98033713E-06 -2.12845798E+00 -2.33648605E+00 -4.98033713E-06 -2.12845798E+00
 -2.33648605E+00 -4.98033713E-06  4.36421922E-01 -2.80972879E+00  2.56342281E-08
  4.36421922E-01 -2.80972879E+00  2.56342281E-08  4.36421922E-01 -2.80972879E+00
  2.56342281E-08  4.36421922E-01 -2.80972879E+00  2.56342281E-08  2.17588751E+00
 -9.32181262E-01 -1.40270639E-05  2.17588751E+00 -9.32181262E-01 -1.40270639E-05
  2.17588751E+00 -9.32181262E-01 -1.40270639E-05  2.17588751E+00 -9.32181262E-01
 -1.40270639E-05  1.28552021E+00  1.68391030E+00 -4.56045039E-05  1.28552021E+00
  1.68391030E+00 -4.56045039E-05  1.28552021E+00  1.68391030E+00 -4.56045039E-05
  1.28552021E+00  1.68391030E+00 -4.56045039E-05 -1.35319448E+00  1.94119442E+00
 -2.77688453E-05 -1.35319448E+00  1.94119442E+00 -2.77688453E-05 -1.35319448E+00
  1.94119442E+00 -2.77688453E-05 -1.35319448E+00  1.94119442E+00 -2.77688453E-05
 -3.17858097E+00  6.20939411E-02 -4.58341472E-05 -3.17858097E+00  6.20939411E-02
 -4.58341472E-05 -3.17858097E+00  6.20939411E-02 -4.58341472E-05 -3.17858097E+00
  6.20939411E-02 -4.58341472E-05  4.97018977E+00 -1.36783514E+00  1.48965596E-05
  4.97018977E+00 -1.36783514E+00  1.48965596E-05  4.97018977E+00 -1.36783514E+00
  1.48965596E-05  4.97018977E+00 -1.36783514E+00  1.48965596E-05  2.65992235E+00
  3.55874665E+00  3.29129170E-05  2.65992235E+00  3.55874665E+00  3.29129170E-05
  2.65992235E+00  3.55874665E+00  3.29129170E-05  2.65992235E+00  3.55874665E+00
  3.29129170E-05 -5.45846067E+00  4.61183734E-01  4.68387366E-05 -5.45846067E+00
  4.61183734E-01  4.68387366E-05 -5.45846067E+00  4.61183734E-01  4.68387366E-05
 -5.45846067E+00  4.61183734E-01  4.68387366E-05 -3.39551534E+00 -3.77153645E+00
  2.80750885E-05 -3.39551534E+00 -3.77153645E+00  2.80750885E-05 -2.02287515E+00
  3.74272256E+00  1.22178881E-05 -2.02287515E+00  3.74272256E+00  1.22178881E-05
  9.59304495E-01 -4.79496293E+00  2.94639585E-05  9.59304495E-01 -4.79496293E+00
  2.94639585E-05  5.83959107E+00 -4.99134653E-01 -1.66125804E+00  5.83959107E+00
 -4.99134653E-01 -1.66125804E+00  5.83956972E+00 -4.99063668E-01  1.66126183E+00
  5.83956972E+00 -4.99063668E-01  1.66126183E+00  5.40316834E+00 -3.38798078E+00
  6.09464796E-05  5.40316834E+00 -3.38798078E+00  6.09464796E-05
Constraint Structure                       R   N=          45
 -2.12845798E+00 -2.33648605E+00 -4.98033713E-06  4.36421922E-01 -2.80972879E+00
  2.56342281E-08  2.17588751E+00 -9.32181262E-01 -1.40270639E-05  1.28552021E+00
  1.68391030E+00 -4.56045039E-05 -1.35319448E+00  1.94119442E+00 -2.77688453E-05
 -3.17858097E+00  6.20939411E-02 -4.58341472E-05  4.97018977E+00 -1.36783514E+00
  1.48965596E-05  2.65992235E+00  3.55874665E+00  3.29129170E-05 -5.45846067E+00
  4.61183734E-01  4.68387366E-05 -3.39551534E+00 -3.77153645E+00  2.80750885E-05
 -2.02287515E+00  3.74272256E+00  1.22178881E-05  9.59304495E-01 -4.79496293E+00
  2.94639585E-05  5.83959107E+00 -4.99134653E-01 -1.66125804E+00  5.83956972E+00
 -4.99063668E-01  1.66126183E+00  5.40316834E+00 -3.38798078E+00  6.09464796E-05
Num ILSW                                   I              100
ILSW                                       I   N=         100
           0           1           0           0           2           0
           0           0           0           0           0          -1
           0           0           0           0           0           0
           0           0           0           0           1           0
           1           0           0           0           0           0
           0           0      100000           0          -1           0
           0           0           0           0           0           0
           0           0           0           1           1           0
           0           0           1           0           0           0
           0           0           4          40           0           0
           0           0           0           0           0           0
           0           0           0           0           0           0
           0           0           0           0           0           0
           0           0           0           0           0           0
           0           0           0           0           0           0
           0           0           0           0           0           0
           0           0           0           0
Num RLSW                                   I               40
RLSW                                       R   N=          40
  1.00000000E+00  1.00000000E+00  1.00000000E+00  1.00000000E+00  1.00000000E+00
  0.00000000E+00  0.00000000E+00  1.00000000E+00  0.00000000E+00  0.00000000E+00
  0.00000000E+00  0.00000000E+00  1.00000000E+00  0.00000000E+00  0.00000000E+00
  0.00000000E+00  0.00000000E+00  1.00000000E+00  0.00000000E+00  0.00000000E+00
  0.00000000E+00  0.00000000E+00  1.00000000E+00  0.00000000E+00  0.00000000E+00
  0.00000000E+00  0.00000000E+00  1.00000000E+00  0.00000000E+00  0.00000000E+00
  0.00000000E+00  0.00000000E+00  0.00000000E+00  0.00000000E+00  0.00000000E+00
  0.00000000E+00  0.00000000E+00  0.00000000E+00  1.00000000E+00  1.00000000E+00
MxBond                                     I                4
NBond                                      I   N=          15
           3           3           3           3           3           3
           4           1           1           1           1           1
           1           1           1
IBond                                      I   N=          60
           2           6          10           0           1           3
          12           0           2           4           7           0
           3           5           8           0           4           6
          11           0           1           5           9           0
           3          13          14          15           4           0
           0           0           6           0           0           0
           1           0           0           0           5           0
           0           0           2           0           0           0
           7           0           0           0           7           0
           0           0           7           0           0           0
RBond                                      R   N=          60
  1.00000000E+00  1.00000000E+00  1.00000000E+00  0.00000000E+00  1.00000000E+00
  2.00000000E+00  1.00000000E+00  0.00000000E+00  2.00000000E+00  1.00000000E+00
  1.00000000E+00  0.00000000E+00  1.00000000E+00  1.00000000E+00  2.00000000E+00
  0.00000000E+00  1.00000000E+00  1.41000000E+00  1.00000000E+00  0.00000000E+00
  1.00000000E+00  1.41000000E+00  2.00000000E+00  0.00000000E+00  1.00000000E+00
  1.00000000E+00  1.00000000E+00  1.00000000E+00  2.00000000E+00  0.00000000E+00
  0.00000000E+00  0.00000000E+00  2.00000000E+00  0.00000000E+00  0.00000000E+00
  0.00000000E+00  1.00000000E+00  0.00000000E+00  0.00000000E+00  0.00000000E+00
  1.00000000E+00  0.00000000E+00  0.00000000E+00  0.00000000E+00  1.00000000E+00
  0.00000000E+00  0.00000000E+00  0.00000000E+00  1.00000000E+00  0.00000000E+00
  0.00000000E+00  0.00000000E+00  1.00000000E+00  0.00000000E+00  0.00000000E+00
  0.00000000E+00  1.00000000E+00  0.00000000E+00  0.00000000E+00  0.00000000E+00
Virial Ratio                               R      2.003057937263467E+00
SCF Energy                                 R     -4.515029859421761E+02
MP2 Energy                                 R     -4.528060181242930E+02
Total Energy                               R     -4.528060181242930E+02
Post-SCF wavefunction norm                 R      1.681907880319909E+00
RMS Force                                  R      2.412662977665976E-06
RMS Density                                R      1.165244052118022E-09
External E-field                           R   N=          35
  0.00000000E+00  0.00000000E+00  0.00000000E+00  0.00000000E+00  0.00000000E+00
  0.00000000E+00  0.00000000E+00  0.00000000E+00  0.00000000E+00  0.00000000E+00
  0.00000000E+00  0.00000000E+00  0.00000000E+00  0.00000000E+00  0.00000000E+00
  0.00000000E+00  0.00000000E+00  0.00000000E+00  0.00000000E+00  0.00000000E+00
  0.00000000E+00  0.00000000E+00  0.00000000E+00  0.00000000E+00  0.00000000E+00
  0.00000000E+00  0.00000000E+00  0.00000000E+00  0.00000000E+00  0.00000000E+00
  0.00000000E+00  0.00000000E+00  0.00000000E+00  0.00000000E+00  0.00000000E+00
IOpCl                                      I                0
IROHF                                      I                0
Alpha Orbital Energies                     R   N=         147
 -2.05481145E+01 -2.05468078E+01 -1.56441778E+01 -1.56297297E+01 -1.14198083E+01
 -1.13808992E+01 -1.13329802E+01 -1.12616300E+01 -1.12387610E+01 -1.42389577E+00
 -1.38740539E+00 -1.30211471E+00 -1.23681709E+00 -1.10549937E+00 -9.67966007E-01
 -9.12568965E-01 -8.90531413E-01 -7.68442066E-01 -7.61657452E-01 -7.05009602E-01
 -6.68450226E-01 -6.59405354E-01 -6.33364824E-01 -6.11449312E-01 -5.88051449E-01
 -5.65506432E-01 -5.52788961E-01 -5.49818478E-01 -5.05577454E-01 -4.72353496E-01
 -4.40339828E-01 -4.26144879E-01 -3.48297681E-01  1.04243885E-01  1.75815844E-01
  1.95873249E-01  2.38779622E-01  2.52758779E-01  2.77844128E-01  2.92927751E-01
  3.11043952E-01  3.57014710E-01  3.80248016E-01  3.95307973E-01  4.06242369E-01
  4.44104640E-01  4.82518679E-01  5.09076410E-01  5.32476896E-01  5.52284063E-01
  6.49925498E-01  6.87409154E-01  7.07478363E-01  7.41461781E-01  7.45081982E-01
  7.82206469E-01  7.93475640E-01  8.14119221E-01  8.44708409E-01  8.48672119E-01
  8.80180881E-01  9.12908244E-01  9.42835580E-01  9.55321672E-01  9.74368559E-01
  9.91229296E-01  1.01898053E+00  1.04695483E+00  1.05965351E+00  1.09271916E+00
  1.09911402E+00  1.10431946E+00  1.14128287E+00  1.16046094E+00  1.16782431E+00
  1.18756577E+00  1.22061600E+00  1.27680889E+00  1.28662405E+00  1.31960100E+00
  1.33846766E+00  1.33990783E+00  1.36715987E+00  1.39647546E+00  1.43415305E+00
  1.45313951E+00  1.50326954E+00  1.58351928E+00  1.58685882E+00  1.64016325E+00
  1.65295090E+00  1.66306054E+00  1.68700677E+00  1.70466692E+00  1.71912241E+00
  1.80588886E+00  1.81757071E+00  1.88028947E+00  2.02165084E+00  2.06320629E+00
  2.07652651E+00  2.08655074E+00  2.09389521E+00  2.11300713E+00  2.13071822E+00
  2.15363592E+00  2.18920234E+00  2.19840451E+00  2.27075905E+00  2.28128604E+00
  2.30998345E+00  2.31147614E+00  2.37967398E+00  2.42985208E+00  2.47139515E+00
  2.48848376E+00  2.52373891E+00  2.58907545E+00  2.62072353E+00  2.64034046E+00
  2.65013850E+00  2.67208300E+00  2.71938372E+00  2.74813189E+00  2.88826728E+00
  2.93053851E+00  2.96889948E+00  2.97701776E+00  2.98007002E+00  3.00143040E+00
  3.13682208E+00  3.17455137E+00  3.21207481E+00  3.32058378E+00  3.35263196E+00
  3.35708536E+00  3.59332132E+00  3.77000289E+00  4.32549422E+00  4.37766141E+00
  4.40079693E+00  4.56157340E+00  4.57985623E+00  4.70296145E+00  4.85910253E+00
  5.01351601E+00  5.08535472E+00
Alpha MO coefficients                      R   N=       21609
 -1.39617763E-05 -5.10050996E-05  2.38916402E-05 -1.78979740E-05 -1.06852060E-09
  3.06409538E-04  3.65022936E-05  1.80954030E-04 -2.48603003E-09 -9.78027728E-05
  4.73115366E-05 -5.79609442E-05  6.69031553E-05 -5.90544390E-10 -6.36047837E-09
  7.13104869E-06  3.83117397E-05 -2.52784360E-05  6.48263553E-06 -3.94765162E-10
 -3.82385780E-04  1.68577653E-05 -3.43530404E-04  6.61230885E-09  3.85367118E-05
 -1.59045855E-05  1.59375043E-05  1.39399861E-05 -7.44838017E-11  1.08622611E-09
 -3.41075775E-06 -2.29833770E-05 -9.53282711E-06  6.31694857E-06  2.94874391E-10
  5.83740491E-04 -2.88820283E-04  5.07177062E-05 -6.72546409E-09  1.30262747E-05
 -1.17653214E-05 -5.19015153E-07 -6.48237801E-06  5.22020320E-10 -2.07859417E-10
  1.18011519E-05  4.54787192E-05 -2.87907886E-05  3.34187996E-06 -3.88289122E-10
 -2.16771496E-04  1.70793771E-04  4.30843672E-04  6.37899505E-09  4.57507494E-05
  9.05122112E-06  2.19782915E-05 -1.96999891E-05 -1.96848608E-10  5.30426291E-10
 -1.26692344E-05 -4.36336484E-05  2.87201307E-05  7.25135968E-06 -1.07418094E-09
  2.86888687E-04 -7.49652429E-05 -2.10099670E-04 -2.23639560E-09 -1.21015821E-04
  7.34322148E-05 -5.33110845E-05  6.84577052E-06  1.97459414E-09  5.23318008E-09
 -5.92326320E-06  5.31541728E-04  3.05124159E-05 -7.74451184E-06 -5.48072267E-09
 -7.69789054E-04  4.05546399E-04 -8.64012663E-05 -2.31565573E-08 -8.52794801E-04
 -6.28959738E-05 -4.22114726E-05  1.62323449E-04  3.70285143E-08 -6.22388379E-09
  1.13724157E-06  6.72765763E-06 -2.24045243E-07  1.38274289E-07 -1.63864340E-10
  4.41273780E-05 -1.06350614E-05 -6.23520266E-07  1.69719006E-09 -4.25866054E-06
  3.17901510E-06  1.63585453E-06  1.65798541E-06 -1.82287504E-10  8.62814885E-11
 -2.76629207E-05  5.68523538E-05 -3.75165005E-06 -3.60818769E-06 -7.13672186E-10
 -3.73726792E-04  6.50759478E-05  5.71820075E-05  5.81814468E-09  3.34552337E-05
  3.40937958E-05  3.50499944E-05 -3.65021173E-06 -4.53972909E-10 -3.28873485E-10
  9.94691652E-01  2.09962906E-02  1.60803800E-03 -2.87494368E-04 -7.80321357E-08
  4.51460782E-03 -1.99579556E-05  6.94583881E-06  6.53725642E-09 -3.60967779E-03
 -3.91384408E-03 -4.07732815E-03 -6.52282426E-05 -1.66519702E-08  1.40136093E-09
 -1.35653675E-06  7.13695027E-06  3.16077965E-06  2.83386751E-06 -1.05512862E-05
 -1.11445607E-04  2.03670416E-06 -2.95908645E-06  2.03636481E-06 -2.96049618E-06
 -1.44520952E-06  5.19097821E-06 -8.68805055E-07 -1.06908443E-06  2.94669018E-06
  6.64106013E-06  3.55121364E-10  1.45095004E-04 -3.08500737E-05  5.97966515E-05
 -4.30133988E-09 -1.49782429E-05 -1.16212829E-06  6.16756223E-06  1.09546458E-05
 -2.36798558E-10 -4.94367246E-10  2.08189199E-06  1.93823854E-05  1.61270737E-05
  9.06571457E-06 -9.93570091E-11  3.55923841E-05 -1.21662284E-05 -8.33177197E-06
  1.47888419E-10  2.91483363E-05 -1.68513145E-05  3.02077550E-06  1.71560263E-05
 -7.79190259E-10  5.30183463E-10 -9.73401987E-07 -2.29450620E-06 -1.42404543E-05
 -1.68080276E-05 -1.32709654E-09 -1.54165511E-04  1.44543554E-04 -5.00264816E-05
  4.46081637E-09  4.43967519E-05 -5.03409679E-05 -1.81365178E-05 -7.02656025E-05
  2.58810040E-09 -2.43401775E-09 -7.24022935E-06  5.03880320E-04 -1.71619363E-05
 -8.28450490E-06 -3.21413184E-09 -4.84151293E-04 -1.75979647E-04 -6.35602926E-04
 -1.73862458E-08 -3.20270381E-04 -5.32963480E-04 -5.04383646E-05 -4.14746687E-04
 -1.73379492E-08 -2.40402570E-08 -1.23322382E-05 -3.94455943E-05 -4.33436139E-05
 -1.34351824E-05 -4.02096612E-10  2.08586553E-04  2.31074814E-04  1.82349439E-05
 -2.27517490E-09 -4.78691480E-05 -1.82116512E-05 -5.51778308E-05 -9.24809338E-05
 -3.42969018E-09  1.85177871E-09  9.45524767E-06  3.40224149E-05  2.02117955E-05
  2.30026777E-05 -3.40339478E-11  1.02234396E-05 -2.53294385E-04  1.80269216E-04
  7.62930984E-09  1.40830524E-05  4.23575032E-05  1.71903203E-05  2.31390652E-05
 -1.79829863E-10  6.94514776E-10  2.55831485E-06  1.94052087E-05  6.79048528E-06
  2.20175122E-05 -9.29433755E-10 -6.11160635E-05  6.81397398E-05 -1.00735453E-04
  4.90502010E-09 -2.12263971E-05  9.17526596E-06 -2.06451769E-07 -3.40150335E-06
  2.68377318E-10 -5.68695789E-10  9.94692306E-01  2.09436922E-02 -9.47633918E-04
 -1.24422973E-03 -6.12094244E-08  4.60945180E-03 -7.64267093E-06  2.92424769E-05
  2.37932242E-09 -3.81590365E-03 -3.73445948E-03 -4.11839916E-03  1.52185174E-04
  9.29431315E-09  1.21378005E-08  5.11098723E-05  5.06120459E-05  4.77191428E-06
 -3.10670842E-07 -5.77004828E-10 -3.07273898E-04 -8.07608800E-05 -5.60354902E-06
  4.84802726E-09  2.33989870E-05  3.14905128E-05  3.11963108E-05  9.77993977E-07
  5.41419541E-10  1.25970333E-10 -5.18098572E-06 -2.45767578E-06 -6.75724639E-06
 -1.57597663E-05  3.72431360E-06 -7.29685126E-06  2.41130830E-05 -2.00495031E-05
  2.41152730E-05 -2.00595355E-05 -9.53463188E-06 -5.99937319E-05  9.94959759E-01
  2.55010144E-02  1.66746582E-04  1.46421106E-04 -2.49774398E-08 -4.47232048E-03
 -7.88077035E-04 -1.25625901E-03  4.03790757E-08 -3.43587741E-03 -3.44763441E-03