32879                                                                   
Freq      RMP2-FC                                                     6-31G(d)            
Number of atoms                            I               22
Info1-9                                    I   N=           9
          34          32        1002           0           0         100
           6           2           1
Charge                                     I                0
Multiplicity                               I                1
Number of electrons                        I               98
Number of alpha electrons                  I               49
Number of beta electrons                   I               49
Number of basis functions                  I              204
Number of independent functions            I              204
Number of point charges in /Mol/           I                0
Number of translation vectors              I                0
Atomic numbers                             I   N=          22
          16           8           8           8           6           6
           6           6           6           6           6           6
           1           1           1           1           1           1
           1           1           1           1
Nuclear charges                            R   N=          22
  1.60000000E+01  8.00000000E+00  8.00000000E+00  8.00000000E+00  6.00000000E+00
  6.00000000E+00  6.00000000E+00  6.00000000E+00  6.00000000E+00  6.00000000E+00
  6.00000000E+00  6.00000000E+00  1.00000000E+00  1.00000000E+00  1.00000000E+00
  1.00000000E+00  1.00000000E+00  1.00000000E+00  1.00000000E+00  1.00000000E+00
  1.00000000E+00  1.00000000E+00
Current cartesian coordinates              R   N=          66
 -3.76186706E+00 -2.36399267E-02 -2.58047418E-01 -4.46296666E+00 -3.21374451E-01
  2.75726365E+00 -4.58941767E+00 -2.33264786E+00 -1.49737967E+00 -4.67241907E+00
  2.47371633E+00 -1.01909640E+00 -4.23846688E-01 -4.15594026E-03 -1.65256561E-01
  3.49349278E+00 -2.30566553E+00  5.26299648E-02  3.47692302E+00  2.32938594E+00
  1.65837148E-02  8.37003729E-01  2.30944946E+00 -1.18623493E-01  8.55090418E-01
 -2.30799769E+00 -9.29096764E-02  4.76170939E+00  1.75367685E-02  1.04210740E-01
  4.94223009E+00 -4.75576056E+00  6.26820634E-02  4.90768836E+00  4.78991351E+00
 -2.00428784E-02 -2.31490927E-01  4.06211485E+00 -2.13051301E-01 -1.98648464E-01
 -4.07077805E+00 -1.61901339E-01  6.81824922E+00  2.59785162E-02  2.25958892E-01
  3.83443514E+00 -6.26936132E+00  9.28247192E-01  5.41193355E+00 -5.34130082E+00
 -1.86590366E+00  6.71136840E+00 -4.56631971E+00  1.11324695E+00  5.37005855E+00
  5.34455313E+00 -1.95950771E+00  3.79122854E+00  6.31169390E+00  8.20136221E-01
  6.68011820E+00  4.63223392E+00  1.03026341E+00 -5.30069866E+00  1.25563650E+00
  3.24932611E+00
Force Field                                I                0
Int Atom Types                             I   N=          22
           0           0           0           0           0           0
           0           0           0           0           0           0
           0           0           0           0           0           0
           0           0           0           0
MM charges                                 R   N=          22
  0.00000000E+00  0.00000000E+00  0.00000000E+00  0.00000000E+00  0.00000000E+00
  0.00000000E+00  0.00000000E+00  0.00000000E+00  0.00000000E+00  0.00000000E+00
  0.00000000E+00  0.00000000E+00  0.00000000E+00  0.00000000E+00  0.00000000E+00
  0.00000000E+00  0.00000000E+00  0.00000000E+00  0.00000000E+00  0.00000000E+00
  0.00000000E+00  0.00000000E+00
Integer atomic weights                     I   N=          22
          32          16          16          16          12          12
          12          12          12          12          12          12
           1           1           1           1           1           1
           1           1           1           1
Real atomic weights                        R   N=          22
  3.19720718E+01  1.59949146E+01  1.59949146E+01  1.59949146E+01  1.20000000E+01
  1.20000000E+01  1.20000000E+01  1.20000000E+01  1.20000000E+01  1.20000000E+01
  1.20000000E+01  1.20000000E+01  1.00782504E+00  1.00782504E+00  1.00782504E+00
  1.00782504E+00  1.00782504E+00  1.00782504E+00  1.00782504E+00  1.00782504E+00
  1.00782504E+00  1.00782504E+00
Atom fragment info                         I   N=          22
           0           0           0           0           0           0
           0           0           0           0           0           0
           0           0           0           0           0           0
           0           0           0           0
Atom residue num                           I   N=          22
           0           0           0           0           0           0
           0           0           0           0           0           0
           0           0           0           0           0           0
           0           0           0           0
Nuclear spins                              I   N=          22
           0           0           0           0           0           0
           0           0           0           0           0           0
           1           1           1           1           1           1
           1           1           1           1
Nuclear ZEff                               R   N=          22
 -1.36000000E+01 -5.60000000E+00 -5.60000000E+00 -5.60000000E+00 -3.60000000E+00
 -3.60000000E+00 -3.60000000E+00 -3.60000000E+00 -3.60000000E+00 -3.60000000E+00
 -3.60000000E+00 -3.60000000E+00 -1.00000000E+00 -1.00000000E+00 -1.00000000E+00
 -1.00000000E+00 -1.00000000E+00 -1.00000000E+00 -1.00000000E+00 -1.00000000E+00
 -1.00000000E+00 -1.00000000E+00
Nuclear QMom                               R   N=          22
  0.00000000E+00  0.00000000E+00  0.00000000E+00  0.00000000E+00  0.00000000E+00
  0.00000000E+00  0.00000000E+00  0.00000000E+00  0.00000000E+00  0.00000000E+00
  0.00000000E+00  0.00000000E+00  0.00000000E+00  0.00000000E+00  0.00000000E+00
  0.00000000E+00  0.00000000E+00  0.00000000E+00  0.00000000E+00  0.00000000E+00
  0.00000000E+00  0.00000000E+00
Nuclear GFac                               R   N=          22
  0.00000000E+00  0.00000000E+00  0.00000000E+00  0.00000000E+00  0.00000000E+00
  0.00000000E+00  0.00000000E+00  0.00000000E+00  0.00000000E+00  0.00000000E+00
  0.00000000E+00  0.00000000E+00  2.79284600E+00  2.79284600E+00  2.79284600E+00
  2.79284600E+00  2.79284600E+00  2.79284600E+00  2.79284600E+00  2.79284600E+00
  2.79284600E+00  2.79284600E+00
MicOpt                                     I   N=          22
          -1          -1          -1          -1          -1          -1
          -1          -1          -1          -1          -1          -1
          -1          -1          -1          -1          -1          -1
          -1          -1          -1          -1
Number of contracted shells                I               69
Number of primitive shells                 I              178
Pure/Cartesian d shells                    I                1
Pure/Cartesian f shells                    I                0
Highest angular momentum                   I                2
Largest degree of contraction              I                6
Shell types                                I   N=          69
           0          -1          -1          -1           2           0
          -1          -1           2           0          -1          -1
           2           0          -1          -1           2           0
          -1          -1           2           0          -1          -1
           2           0          -1          -1           2           0
          -1          -1           2           0          -1          -1
           2           0          -1          -1           2           0
          -1          -1           2           0          -1          -1
           2           0           0           0           0           0
           0           0           0           0           0           0
           0           0           0           0           0           0
           0           0           0
Number of primitives per shell             I   N=          69
           6           6           3           1           1           6
           3           1           1           6           3           1
           1           6           3           1           1           6
           3           1           1           6           3           1
           1           6           3           1           1           6
           3           1           1           6           3           1
           1           6           3           1           1           6
           3           1           1           6           3           1
           1           3           1           3           1           3
           1           3           1           3           1           3
           1           3           1           3           1           3
           1           3           1
Shell to atom map                          I   N=          69
           1           1           1           1           1           2
           2           2           2           3           3           3
           3           4           4           4           4           5
           5           5           5           6           6           6
           6           7           7           7           7           8
           8           8           8           9           9           9
           9          10          10          10          10          11
          11          11          11          12          12          12
          12          13          13          14          14          15
          15          16          16          17          17          18
          18          19          19          20          20          21
          21          22          22
Primitive exponents                        R   N=         178
  2.19171000E+04  3.30149000E+03  7.54146000E+02  2.12711000E+02  6.79896000E+01
  2.30515000E+01  4.23735000E+02  1.00710000E+02  3.21599000E+01  1.18079000E+01
  4.63110000E+00  1.87025000E+00  2.61584000E+00  9.22167000E-01  3.41287000E-01
  1.17167000E-01  6.50000000E-01  5.48467166E+03  8.25234946E+02  1.88046958E+02
  5.29645000E+01  1.68975704E+01  5.79963534E+00  1.55396162E+01  3.59993359E+00
  1.01376175E+00  2.70005823E-01  8.00000000E-01  5.48467166E+03  8.25234946E+02
  1.88046958E+02  5.29645000E+01  1.68975704E+01  5.79963534E+00  1.55396162E+01
  3.59993359E+00  1.01376175E+00  2.70005823E-01  8.00000000E-01  5.48467166E+03
  8.25234946E+02  1.88046958E+02  5.29645000E+01  1.68975704E+01  5.79963534E+00
  1.55396162E+01  3.59993359E+00  1.01376175E+00  2.70005823E-01  8.00000000E-01
  3.04752488E+03  4.57369518E+02  1.03948685E+02  2.92101553E+01  9.28666296E+00
  3.16392696E+00  7.86827235E+00  1.88128854E+00  5.44249258E-01  1.68714478E-01
  8.00000000E-01  3.04752488E+03  4.57369518E+02  1.03948685E+02  2.92101553E+01
  9.28666296E+00  3.16392696E+00  7.86827235E+00  1.88128854E+00  5.44249258E-01
  1.68714478E-01  8.00000000E-01  3.04752488E+03  4.57369518E+02  1.03948685E+02
  2.92101553E+01  9.28666296E+00  3.16392696E+00  7.86827235E+00  1.88128854E+00
  5.44249258E-01  1.68714478E-01  8.00000000E-01  3.04752488E+03  4.57369518E+02
  1.03948685E+02  2.92101553E+01  9.28666296E+00  3.16392696E+00  7.86827235E+00
  1.88128854E+00  5.44249258E-01  1.68714478E-01  8.00000000E-01  3.04752488E+03
  4.57369518E+02  1.03948685E+02  2.92101553E+01  9.28666296E+00  3.16392696E+00
  7.86827235E+00  1.88128854E+00  5.44249258E-01  1.68714478E-01  8.00000000E-01
  3.04752488E+03  4.57369518E+02  1.03948685E+02  2.92101553E+01  9.28666296E+00
  3.16392696E+00  7.86827235E+00  1.88128854E+00  5.44249258E-01  1.68714478E-01
  8.00000000E-01  3.04752488E+03  4.57369518E+02  1.03948685E+02  2.92101553E+01
  9.28666296E+00  3.16392696E+00  7.86827235E+00  1.88128854E+00  5.44249258E-01
  1.68714478E-01  8.00000000E-01  3.04752488E+03  4.57369518E+02  1.03948685E+02
  2.92101553E+01  9.28666296E+00  3.16392696E+00  7.86827235E+00  1.88128854E+00
  5.44249258E-01  1.68714478E-01  8.00000000E-01  1.87311370E+01  2.82539436E+00
  6.40121692E-01  1.61277759E-01  1.87311370E+01  2.82539436E+00  6.40121692E-01
  1.61277759E-01  1.87311370E+01  2.82539436E+00  6.40121692E-01  1.61277759E-01
  1.87311370E+01  2.82539436E+00  6.40121692E-01  1.61277759E-01  1.87311370E+01
  2.82539436E+00  6.40121692E-01  1.61277759E-01  1.87311370E+01  2.82539436E+00
  6.40121692E-01  1.61277759E-01  1.87311370E+01  2.82539436E+00  6.40121692E-01
  1.61277759E-01  1.87311370E+01  2.82539436E+00  6.40121692E-01  1.61277759E-01
  1.87311370E+01  2.82539436E+00  6.40121692E-01  1.61277759E-01  1.87311370E+01
  2.82539436E+00  6.40121692E-01  1.61277759E-01
Contraction coefficients                   R   N=         178
  1.86924085E-03  1.42303065E-02  6.96962317E-02  2.38487108E-01  4.83307220E-01
  3.38074154E-01 -2.37677050E-03 -3.16930067E-02 -1.13317024E-01  5.60900118E-02
  5.92255124E-01  4.55006095E-01 -2.50373114E-01  6.69567631E-02  1.05450627E+00
  1.00000000E+00  1.00000000E+00  1.83107443E-03  1.39501722E-02  6.84450781E-02
  2.32714336E-01  4.70192898E-01  3.58520853E-01 -1.10777550E-01 -1.48026263E-01
  1.13076702E+00  1.00000000E+00  1.00000000E+00  1.83107443E-03  1.39501722E-02
  6.84450781E-02  2.32714336E-01  4.70192898E-01  3.58520853E-01 -1.10777550E-01
 -1.48026263E-01  1.13076702E+00  1.00000000E+00  1.00000000E+00  1.83107443E-03
  1.39501722E-02  6.84450781E-02  2.32714336E-01  4.70192898E-01  3.58520853E-01
 -1.10777550E-01 -1.48026263E-01  1.13076702E+00  1.00000000E+00  1.00000000E+00
  1.83473713E-03  1.40373228E-02  6.88426223E-02  2.32184443E-01  4.67941348E-01
  3.62311985E-01 -1.19332420E-01 -1.60854152E-01  1.14345644E+00  1.00000000E+00
  1.00000000E+00  1.83473713E-03  1.40373228E-02  6.88426223E-02  2.32184443E-01
  4.67941348E-01  3.62311985E-01 -1.19332420E-01 -1.60854152E-01  1.14345644E+00
  1.00000000E+00  1.00000000E+00  1.83473713E-03  1.40373228E-02  6.88426223E-02
  2.32184443E-01  4.67941348E-01  3.62311985E-01 -1.19332420E-01 -1.60854152E-01
  1.14345644E+00  1.00000000E+00  1.00000000E+00  1.83473713E-03  1.40373228E-02
  6.88426223E-02  2.32184443E-01  4.67941348E-01  3.62311985E-01 -1.19332420E-01
 -1.60854152E-01  1.14345644E+00  1.00000000E+00  1.00000000E+00  1.83473713E-03
  1.40373228E-02  6.88426223E-02  2.32184443E-01  4.67941348E-01  3.62311985E-01
 -1.19332420E-01 -1.60854152E-01  1.14345644E+00  1.00000000E+00  1.00000000E+00
  1.83473713E-03  1.40373228E-02  6.88426223E-02  2.32184443E-01  4.67941348E-01
  3.62311985E-01 -1.19332420E-01 -1.60854152E-01  1.14345644E+00  1.00000000E+00
  1.00000000E+00  1.83473713E-03  1.40373228E-02  6.88426223E-02  2.32184443E-01
  4.67941348E-01  3.62311985E-01 -1.19332420E-01 -1.60854152E-01  1.14345644E+00
  1.00000000E+00  1.00000000E+00  1.83473713E-03  1.40373228E-02  6.88426223E-02
  2.32184443E-01  4.67941348E-01  3.62311985E-01 -1.19332420E-01 -1.60854152E-01
  1.14345644E+00  1.00000000E+00  1.00000000E+00  3.34946043E-02  2.34726953E-01
  8.13757326E-01  1.00000000E+00  3.34946043E-02  2.34726953E-01  8.13757326E-01
  1.00000000E+00  3.34946043E-02  2.34726953E-01  8.13757326E-01  1.00000000E+00
  3.34946043E-02  2.34726953E-01  8.13757326E-01  1.00000000E+00  3.34946043E-02
  2.34726953E-01  8.13757326E-01  1.00000000E+00  3.34946043E-02  2.34726953E-01
  8.13757326E-01  1.00000000E+00  3.34946043E-02  2.34726953E-01  8.13757326E-01
  1.00000000E+00  3.34946043E-02  2.34726953E-01  8.13757326E-01  1.00000000E+00
  3.34946043E-02  2.34726953E-01  8.13757326E-01  1.00000000E+00  3.34946043E-02
  2.34726953E-01  8.13757326E-01  1.00000000E+00
P(S=P) Contraction coefficients            R   N=         178
  0.00000000E+00  0.00000000E+00  0.00000000E+00  0.00000000E+00  0.00000000E+00
  0.00000000E+00  4.06100998E-03  3.06812999E-02  1.30451999E-01  3.27204999E-01
  4.52850998E-01  2.56041999E-01 -1.45104895E-02  3.10262776E-01  7.54482456E-01
  1.00000000E+00  0.00000000E+00  0.00000000E+00  0.00000000E+00  0.00000000E+00
  0.00000000E+00  0.00000000E+00  0.00000000E+00  7.08742682E-02  3.39752839E-01
  7.27158577E-01  1.00000000E+00  0.00000000E+00  0.00000000E+00  0.00000000E+00
  0.00000000E+00  0.00000000E+00  0.00000000E+00  0.00000000E+00  7.08742682E-02
  3.39752839E-01  7.27158577E-01  1.00000000E+00  0.00000000E+00  0.00000000E+00
  0.00000000E+00  0.00000000E+00  0.00000000E+00  0.00000000E+00  0.00000000E+00
  7.08742682E-02  3.39752839E-01  7.27158577E-01  1.00000000E+00  0.00000000E+00
  0.00000000E+00  0.00000000E+00  0.00000000E+00  0.00000000E+00  0.00000000E+00
  0.00000000E+00  6.89990666E-02  3.16423961E-01  7.44308291E-01  1.00000000E+00
  0.00000000E+00  0.00000000E+00  0.00000000E+00  0.00000000E+00  0.00000000E+00
  0.00000000E+00  0.00000000E+00  6.89990666E-02  3.16423961E-01  7.44308291E-01
  1.00000000E+00  0.00000000E+00  0.00000000E+00  0.00000000E+00  0.00000000E+00
  0.00000000E+00  0.00000000E+00  0.00000000E+00  6.89990666E-02  3.16423961E-01
  7.44308291E-01  1.00000000E+00  0.00000000E+00  0.00000000E+00  0.00000000E+00
  0.00000000E+00  0.00000000E+00  0.00000000E+00  0.00000000E+00  6.89990666E-02
  3.16423961E-01  7.44308291E-01  1.00000000E+00  0.00000000E+00  0.00000000E+00
  0.00000000E+00  0.00000000E+00  0.00000000E+00  0.00000000E+00  0.00000000E+00
  6.89990666E-02  3.16423961E-01  7.44308291E-01  1.00000000E+00  0.00000000E+00
  0.00000000E+00  0.00000000E+00  0.00000000E+00  0.00000000E+00  0.00000000E+00
  0.00000000E+00  6.89990666E-02  3.16423961E-01  7.44308291E-01  1.00000000E+00
  0.00000000E+00  0.00000000E+00  0.00000000E+00  0.00000000E+00  0.00000000E+00
  0.00000000E+00  0.00000000E+00  6.89990666E-02  3.16423961E-01  7.44308291E-01
  1.00000000E+00  0.00000000E+00  0.00000000E+00  0.00000000E+00  0.00000000E+00
  0.00000000E+00  0.00000000E+00  0.00000000E+00  6.89990666E-02  3.16423961E-01
  7.44308291E-01  1.00000000E+00  0.00000000E+00  0.00000000E+00  0.00000000E+00
  0.00000000E+00  0.00000000E+00  0.00000000E+00  0.00000000E+00  0.00000000E+00
  0.00000000E+00  0.00000000E+00  0.00000000E+00  0.00000000E+00  0.00000000E+00
  0.00000000E+00  0.00000000E+00  0.00000000E+00  0.00000000E+00  0.00000000E+00
  0.00000000E+00  0.00000000E+00  0.00000000E+00  0.00000000E+00  0.00000000E+00
  0.00000000E+00  0.00000000E+00  0.00000000E+00  0.00000000E+00  0.00000000E+00
  0.00000000E+00  0.00000000E+00  0.00000000E+00  0.00000000E+00  0.00000000E+00
  0.00000000E+00  0.00000000E+00  0.00000000E+00  0.00000000E+00  0.00000000E+00
  0.00000000E+00  0.00000000E+00  0.00000000E+00
Coordinates of each shell                  R   N=         207
 -3.76186706E+00 -2.36399267E-02 -2.58047418E-01 -3.76186706E+00 -2.36399267E-02
 -2.58047418E-01 -3.76186706E+00 -2.36399267E-02 -2.58047418E-01 -3.76186706E+00
 -2.36399267E-02 -2.58047418E-01 -3.76186706E+00 -2.36399267E-02 -2.58047418E-01
 -4.46296666E+00 -3.21374451E-01  2.75726365E+00 -4.46296666E+00 -3.21374451E-01
  2.75726365E+00 -4.46296666E+00 -3.21374451E-01  2.75726365E+00 -4.46296666E+00
 -3.21374451E-01  2.75726365E+00 -4.58941767E+00 -2.33264786E+00 -1.49737967E+00
 -4.58941767E+00 -2.33264786E+00 -1.49737967E+00 -4.58941767E+00 -2.33264786E+00
 -1.49737967E+00 -4.58941767E+00 -2.33264786E+00 -1.49737967E+00 -4.67241907E+00
  2.47371633E+00 -1.01909640E+00 -4.67241907E+00  2.47371633E+00 -1.01909640E+00
 -4.67241907E+00  2.47371633E+00 -1.01909640E+00 -4.67241907E+00  2.47371633E+00
 -1.01909640E+00 -4.23846688E-01 -4.15594026E-03 -1.65256561E-01 -4.23846688E-01
 -4.15594026E-03 -1.65256561E-01 -4.23846688E-01 -4.15594026E-03 -1.65256561E-01
 -4.23846688E-01 -4.15594026E-03 -1.65256561E-01  3.49349278E+00 -2.30566553E+00
  5.26299648E-02  3.49349278E+00 -2.30566553E+00  5.26299648E-02  3.49349278E+00
 -2.30566553E+00  5.26299648E-02  3.49349278E+00 -2.30566553E+00  5.26299648E-02
  3.47692302E+00  2.32938594E+00  1.65837148E-02  3.47692302E+00  2.32938594E+00
  1.65837148E-02  3.47692302E+00  2.32938594E+00  1.65837148E-02  3.47692302E+00
  2.32938594E+00  1.65837148E-02  8.37003729E-01  2.30944946E+00 -1.18623493E-01
  8.37003729E-01  2.30944946E+00 -1.18623493E-01  8.37003729E-01  2.30944946E+00
 -1.18623493E-01  8.37003729E-01  2.30944946E+00 -1.18623493E-01  8.55090418E-01
 -2.30799769E+00 -9.29096764E-02  8.55090418E-01 -2.30799769E+00 -9.29096764E-02
  8.55090418E-01 -2.30799769E+00 -9.29096764E-02  8.55090418E-01 -2.30799769E+00
 -9.29096764E-02  4.76170939E+00  1.75367685E-02  1.04210740E-01  4.76170939E+00
  1.75367685E-02  1.04210740E-01  4.76170939E+00  1.75367685E-02  1.04210740E-01
  4.76170939E+00  1.75367685E-02  1.04210740E-01  4.94223009E+00 -4.75576056E+00
  6.26820634E-02  4.94223009E+00 -4.75576056E+00  6.26820634E-02  4.94223009E+00
 -4.75576056E+00  6.26820634E-02  4.94223009E+00 -4.75576056E+00  6.26820634E-02
  4.90768836E+00  4.78991351E+00 -2.00428784E-02  4.90768836E+00  4.78991351E+00
 -2.00428784E-02  4.90768836E+00  4.78991351E+00 -2.00428784E-02  4.90768836E+00
  4.78991351E+00 -2.00428784E-02 -2.31490927E-01  4.06211485E+00 -2.13051301E-01
 -2.31490927E-01  4.06211485E+00 -2.13051301E-01 -1.98648464E-01 -4.07077805E+00
 -1.61901339E-01 -1.98648464E-01 -4.07077805E+00 -1.61901339E-01  6.81824922E+00
  2.59785162E-02  2.25958892E-01  6.81824922E+00  2.59785162E-02  2.25958892E-01
  3.83443514E+00 -6.26936132E+00  9.28247192E-01  3.83443514E+00 -6.26936132E+00
  9.28247192E-01  5.41193355E+00 -5.34130082E+00 -1.86590366E+00  5.41193355E+00
 -5.34130082E+00 -1.86590366E+00  6.71136840E+00 -4.56631971E+00  1.11324695E+00
  6.71136840E+00 -4.56631971E+00  1.11324695E+00  5.37005855E+00  5.34455313E+00
 -1.95950771E+00  5.37005855E+00  5.34455313E+00 -1.95950771E+00  3.79122854E+00
  6.31169390E+00  8.20136221E-01  3.79122854E+00  6.31169390E+00  8.20136221E-01
  6.68011820E+00  4.63223392E+00  1.03026341E+00  6.68011820E+00  4.63223392E+00
  1.03026341E+00 -5.30069866E+00  1.25563650E+00  3.24932611E+00 -5.30069866E+00
  1.25563650E+00  3.24932611E+00
Constraint Structure                       R   N=          66
 -3.76186706E+00 -2.36399267E-02 -2.58047418E-01 -4.46296666E+00 -3.21374451E-01
  2.75726365E+00 -4.58941767E+00 -2.33264786E+00 -1.49737967E+00 -4.67241907E+00
  2.47371633E+00 -1.01909640E+00 -4.23846688E-01 -4.15594026E-03 -1.65256561E-01
  3.49349278E+00 -2.30566553E+00  5.26299648E-02  3.47692302E+00  2.32938594E+00
  1.65837148E-02  8.37003729E-01  2.30944946E+00 -1.18623493E-01  8.55090418E-01
 -2.30799769E+00 -9.29096764E-02  4.76170939E+00  1.75367685E-02  1.04210740E-01
  4.94223009E+00 -4.75576056E+00  6.26820634E-02  4.90768836E+00  4.78991351E+00
 -2.00428784E-02 -2.31490927E-01  4.06211485E+00 -2.13051301E-01 -1.98648464E-01
 -4.07077805E+00 -1.61901339E-01  6.81824922E+00  2.59785162E-02  2.25958892E-01
  3.83443514E+00 -6.26936132E+00  9.28247192E-01  5.41193355E+00 -5.34130082E+00
 -1.86590366E+00  6.71136840E+00 -4.56631971E+00  1.11324695E+00  5.37005855E+00
  5.34455313E+00 -1.95950771E+00  3.79122854E+00  6.31169390E+00  8.20136221E-01
  6.68011820E+00  4.63223392E+00  1.03026341E+00 -5.30069866E+00  1.25563650E+00
  3.24932611E+00
Num ILSW                                   I              100
ILSW                                       I   N=         100
           0           1           0           1           2           0
           0           0           0           0           0          -1
           0           0           0           0           0           0
           0           0           0           0           1           0
           1           0           0           0           0           0
           0           0      100000           0          -1           0
           0           0           0           0           0           0
           0           0           0           1           1           0
           0           0           1           0           0           0
           0           0           4          40           0           0
           0           0           0           0           0           0
           0           0           0           0           0           0
           0           0           0           0           0           0
           0           0           0           0           0           0
           0           0           0           0           0           0
           0           0           0           0           0           0
           0           0           0           0
Num RLSW                                   I               40
RLSW                                       R   N=          40
  1.00000000E+00  1.00000000E+00  1.00000000E+00  1.00000000E+00  1.00000000E+00
  0.00000000E+00  0.00000000E+00  1.00000000E+00  0.00000000E+00  0.00000000E+00
  0.00000000E+00  0.00000000E+00  1.00000000E+00  0.00000000E+00  0.00000000E+00
  0.00000000E+00  0.00000000E+00  1.00000000E+00  0.00000000E+00  0.00000000E+00
  0.00000000E+00  0.00000000E+00  1.00000000E+00  0.00000000E+00  0.00000000E+00
  0.00000000E+00  0.00000000E+00  1.00000000E+00  0.00000000E+00  0.00000000E+00
  0.00000000E+00  0.00000000E+00  0.00000000E+00  0.00000000E+00  0.00000000E+00
  0.00000000E+00  0.00000000E+00  0.00000000E+00  1.00000000E+00  1.00000000E+00
MxBond                                     I                4
NBond                                      I   N=          22
           4           2           1           1           3           3
           3           3           3           3           4           4
           1           1           1           1           1           1
           1           1           1           1
IBond                                      I   N=          88
           2           3           4           5           1          22
           0           0           1           0           0           0
           1           0           0           0           1           8
           9           0           9          10          11           0
           8          10          12           0           5           7
          13           0           5           6          14           0
           6           7          15           0           6          16
          17          18           7          19          20          21
           8           0           0           0           9           0
           0           0          10           0           0           0
          11           0           0           0          11           0
           0           0          11           0           0           0
          12           0           0           0          12           0
           0           0          12           0           0           0
           2           0           0           0
RBond                                      R   N=          88
  1.00000000E+00  2.00000000E+00  2.00000000E+00  1.00000000E+00  1.00000000E+00
  1.00000000E+00  0.00000000E+00  0.00000000E+00  2.00000000E+00  0.00000000E+00
  0.00000000E+00  0.00000000E+00  2.00000000E+00  0.00000000E+00  0.00000000E+00
  0.00000000E+00  1.00000000E+00  1.50000000E+00  1.50000000E+00  0.00000000E+00
  1.50000000E+00  1.50000000E+00  1.00000000E+00  0.00000000E+00  1.50000000E+00
  1.50000000E+00  1.00000000E+00  0.00000000E+00  1.50000000E+00  1.50000000E+00
  1.00000000E+00  0.00000000E+00  1.50000000E+00  1.50000000E+00  1.00000000E+00
  0.00000000E+00  1.50000000E+00  1.50000000E+00  1.00000000E+00  0.00000000E+00
  1.00000000E+00  1.00000000E+00  1.00000000E+00  1.00000000E+00  1.00000000E+00
  1.00000000E+00  1.00000000E+00  1.00000000E+00  1.00000000E+00  0.00000000E+00
  0.00000000E+00  0.00000000E+00  1.00000000E+00  0.00000000E+00  0.00000000E+00
  0.00000000E+00  1.00000000E+00  0.00000000E+00  0.00000000E+00  0.00000000E+00
  1.00000000E+00  0.00000000E+00  0.00000000E+00  0.00000000E+00  1.00000000E+00
  0.00000000E+00  0.00000000E+00  0.00000000E+00  1.00000000E+00  0.00000000E+00
  0.00000000E+00  0.00000000E+00  1.00000000E+00  0.00000000E+00  0.00000000E+00
  0.00000000E+00  1.00000000E+00  0.00000000E+00  0.00000000E+00  0.00000000E+00
  1.00000000E+00  0.00000000E+00  0.00000000E+00  0.00000000E+00  1.00000000E+00
  0.00000000E+00  0.00000000E+00  0.00000000E+00
Virial Ratio                               R      2.002136652332299E+00
SCF Energy                                 R     -9.307932157884935E+02
MP2 Energy                                 R     -9.325067789907688E+02
Total Energy                               R     -9.325067789907688E+02
Post-SCF wavefunction norm                 R      1.777803277321284E+00
RMS Force                                  R      5.697191191917387E-08
RMS Density                                R      1.358322978313662E-09
External E-field                           R   N=          35
  0.00000000E+00  0.00000000E+00  0.00000000E+00  0.00000000E+00  0.00000000E+00
  0.00000000E+00  0.00000000E+00  0.00000000E+00  0.00000000E+00  0.00000000E+00
  0.00000000E+00  0.00000000E+00  0.00000000E+00  0.00000000E+00  0.00000000E+00
  0.00000000E+00  0.00000000E+00  0.00000000E+00  0.00000000E+00  0.00000000E+00
  0.00000000E+00  0.00000000E+00  0.00000000E+00  0.00000000E+00  0.00000000E+00
  0.00000000E+00  0.00000000E+00  0.00000000E+00  0.00000000E+00  0.00000000E+00
  0.00000000E+00  0.00000000E+00  0.00000000E+00  0.00000000E+00  0.00000000E+00
IOpCl                                      I                0
IROHF                                      I                0
Alpha Orbital Energies                     R   N=         204
 -9.22387170E+01 -2.06373044E+01 -2.05750061E+01 -2.05698535E+01 -1.12873008E+01