
    -----------------------------------------------------------------------
          Psi4: An Open-Source Ab Initio Electronic Structure Package
                               Psi4 1.3.2 release

                         Git: Rev {HEAD} ecbda83 


    R. M. Parrish, L. A. Burns, D. G. A. Smith, A. C. Simmonett,
    A. E. DePrince III, E. G. Hohenstein, U. Bozkaya, A. Yu. Sokolov,
    R. Di Remigio, R. M. Richard, J. F. Gonthier, A. M. James,
    H. R. McAlexander, A. Kumar, M. Saitow, X. Wang, B. P. Pritchard,
    P. Verma, H. F. Schaefer III, K. Patkowski, R. A. King, E. F. Valeev,
    F. A. Evangelista, J. M. Turney, T. D. Crawford, and C. D. Sherrill,
    J. Chem. Theory Comput. 13(7) pp 3185--3197 (2017).
    (doi: 10.1021/acs.jctc.7b00174)


                         Additional Contributions by
    P. Kraus, H. Kruse, M. H. Lechner, M. C. Schieber, R. A. Shaw,
    A. Alenaizan, R. Galvelis, Z. L. Glick, S. Lehtola, and J. P. Misiewicz

    -----------------------------------------------------------------------


    Psi4 started on: Thursday, 04 February 2021 02:03PM

    Process ID: 17022
    Host:       node35.bme.utexas.edu
    PSIDATADIR: /home/xy3866/psi4conda/share/psi4
    Memory:     500.0 MiB
    Threads:    8
    
  ==> Input File <==

--------------------------------------------------------------------------
#psi4
#
memory 32 gb

molecule  {
0 1
  F        0.9463590     1.6328250    -0.0000060
  O       -1.4337610     0.6405030     0.0000000
  O       -0.6598449    -1.5240212    -0.0000080
  C        0.8874440     0.2587590    -0.0000040
  C        1.9567240    -0.4715930    -0.7531570
  C        1.9567160    -0.4715890     0.7531700
  C       -0.4871510    -0.3137100    -0.0000050
  C       -2.7814420     0.1202980     0.0000060
  H        2.6839580     0.1584250    -1.2535400
  H        1.6654270    -1.3795450    -1.2692510
  H        1.6654180    -1.3795360     1.2692720
  H        2.6839450     0.1584310     1.2535580
  H       -3.4198550     1.0009170     0.0000120
  H       -2.9519650    -0.4865460     0.8901010
  H       -2.9519750    -0.4865410    -0.8900910
units angstrom
no_reorient  #important for SAPT in psi4, default
symmetry c1  #important for SAPT in psi4, default
}

set PROPERTIES_ORIGIN ["COM"]
properties('MP2/aug-cc-pvtz', properties = ['dipole'])
--------------------------------------------------------------------------

  Memory set to  29.802 GiB by Python driver.
    SCF Algorithm Type (re)set to DF.

*** tstart() called on node35.bme.utexas.edu
*** at Thu Feb  4 14:03:08 2021

   => Loading Basis Set <=

    Name: AUG-CC-PVTZ
    Role: ORBITAL
    Keyword: BASIS
    atoms 1    entry F          line   373 file /home/xy3866/psi4conda/share/psi4/basis/aug-cc-pvtz.gbs 
    atoms 2-3  entry O          line   327 file /home/xy3866/psi4conda/share/psi4/basis/aug-cc-pvtz.gbs 
    atoms 4-8  entry C          line   235 file /home/xy3866/psi4conda/share/psi4/basis/aug-cc-pvtz.gbs 
    atoms 9-15 entry H          line    36 file /home/xy3866/psi4conda/share/psi4/basis/aug-cc-pvtz.gbs 


         ---------------------------------------------------------
                                   SCF
               by Justin Turney, Rob Parrish, Andy Simmonett
                          and Daniel G. A. Smith
                              RHF Reference
                        8 Threads,  30517 MiB Core
         ---------------------------------------------------------

  ==> Geometry <==

    Molecular point group: c1
    Full point group: C1

    Geometry (in Angstrom), charge = 0, multiplicity = 1:

       Center              X                  Y                   Z               Mass       
    ------------   -----------------  -----------------  -----------------  -----------------
         F            0.927299707684     1.599600145513    -0.000005487709    18.998403162730
         O           -1.452820292316     0.607278145513     0.000000512291    15.994914619570
         O           -0.678904192316    -1.557246054487    -0.000007487709    15.994914619570
         C            0.868384707684     0.225534145513    -0.000003487709    12.000000000000
         C            1.937664707684    -0.504817854487    -0.753156487709    12.000000000000
         C            1.937656707684    -0.504813854487     0.753170512291    12.000000000000
         C           -0.506210292316    -0.346934854487    -0.000004487709    12.000000000000
         C           -2.800501292316     0.087073145513     0.000006512291    12.000000000000
         H            2.664898707684     0.125200145513    -1.253539487709     1.007825032230
         H            1.646367707684    -1.412769854487    -1.269250487709     1.007825032230
         H            1.646358707684    -1.412760854487     1.269272512291     1.007825032230
         H            2.664885707684     0.125206145513     1.253558512291     1.007825032230
         H           -3.438914292316     0.967692145513     0.000012512291     1.007825032230
         H           -2.971024292316    -0.519770854487     0.890101512291     1.007825032230
         H           -2.971034292316    -0.519765854487    -0.890090487709     1.007825032230

  Running in c1 symmetry.

  Rotational constants: A =      0.13107  B =      0.05186  C =      0.04108 [cm^-1]
  Rotational constants: A =   3929.47118  B =   1554.79185  C =   1231.40879 [MHz]
  Nuclear repulsion =  390.709271736221410

  Charge       = 0
  Multiplicity = 1
  Electrons    = 62
  Nalpha       = 31
  Nbeta        = 31

  ==> Algorithm <==

  SCF Algorithm Type is DF.
  DIIS enabled.
  MOM disabled.
  Fractional occupation disabled.
  Guess Type is SAD.
  Energy threshold   = 1.00e-10
  Density threshold  = 1.00e-10
  Integral threshold = 0.00e+00

  ==> Primary Basis <==

  Basis Set: AUG-CC-PVTZ
    Blend: AUG-CC-PVTZ
    Number of shells: 175
    Number of basis function: 529
    Number of Cartesian functions: 615
    Spherical Harmonics?: true
    Max angular momentum: 3

   => Loading Basis Set <=

    Name: (AUG-CC-PVTZ AUX)
    Role: JKFIT
    Keyword: DF_BASIS_SCF
    atoms 1    entry F          line   348 file /home/xy3866/psi4conda/share/psi4/basis/aug-cc-pvtz-jkfit.gbs 
    atoms 2-3  entry O          line   286 file /home/xy3866/psi4conda/share/psi4/basis/aug-cc-pvtz-jkfit.gbs 
    atoms 4-8  entry C          line   162 file /home/xy3866/psi4conda/share/psi4/basis/aug-cc-pvtz-jkfit.gbs 
    atoms 9-15 entry H          line    70 file /home/xy3866/psi4conda/share/psi4/basis/aug-cc-pvtz-jkfit.gbs 

  ==> Pre-Iterations <==

   -------------------------------------------------------
    Irrep   Nso     Nmo     Nalpha   Nbeta   Ndocc  Nsocc
   -------------------------------------------------------
     A        529     529       0       0       0       0
   -------------------------------------------------------
    Total     529     529      31      31      31       0
   -------------------------------------------------------

  ==> Integral Setup <==

  DFHelper Memory: AOs need 2.380 GiB; user supplied 22.352 GiB. Using in-core AOs.

  ==> MemDFJK: Density-Fitted J/K Matrices <==

    J tasked:                   Yes
    K tasked:                   Yes
    wK tasked:                   No
    OpenMP threads:               8
    Memory [MiB]:             22888
    Algorithm:                 Disk
    Schwarz Cutoff:           1E-12
    Mask sparsity (%):       4.5118
    Fitting Condition:        1E-10

   => Auxiliary Basis Set <=

  Basis Set: (AUG-CC-PVTZ AUX)
    Blend: AUG-CC-PVTZ-JKFIT
    Number of shells: 338
    Number of basis function: 1154
    Number of Cartesian functions: 1433
    Spherical Harmonics?: true
    Max angular momentum: 4

  Minimum eigenvalue in the overlap matrix is 5.4245447556E-06.
  Using Symmetric Orthogonalization.

  SCF Guess: Superposition of Atomic Densities via on-the-fly atomic UHF.

  ==> Iterations <==

                           Total Energy        Delta E     RMS |[F,P]|

   @DF-RHF iter SAD:  -441.85932240647321   -4.41859e+02   0.00000e+00 
   @DF-RHF iter   1:  -442.50309502979314   -6.43773e-01   1.25224e-03 DIIS
   @DF-RHF iter   2:  -442.65629220337883   -1.53197e-01   7.45551e-04 DIIS
   @DF-RHF iter   3:  -442.71068850251066   -5.43963e-02   1.56100e-04 DIIS
   @DF-RHF iter   4:  -442.71435132724719   -3.66282e-03   6.10710e-05 DIIS
   @DF-RHF iter   5:  -442.71492661440607   -5.75287e-04   1.34267e-05 DIIS
   @DF-RHF iter   6:  -442.71497354429556   -4.69299e-05   6.00189e-06 DIIS
   @DF-RHF iter   7:  -442.71498308621955   -9.54192e-06   2.19218e-06 DIIS
   @DF-RHF iter   8:  -442.71498487404637   -1.78783e-06   9.00377e-07 DIIS
   @DF-RHF iter   9:  -442.71498518647144   -3.12425e-07   3.17050e-07 DIIS
   @DF-RHF iter  10:  -442.71498522691104   -4.04396e-08   9.71959e-08 DIIS
   @DF-RHF iter  11:  -442.71498523005368   -3.14265e-09   3.42022e-08 DIIS
   @DF-RHF iter  12:  -442.71498523029481   -2.41130e-10   1.22321e-08 DIIS
   @DF-RHF iter  13:  -442.71498523032960   -3.47882e-11   2.52677e-09 DIIS
   @DF-RHF iter  14:  -442.71498523033193   -2.33058e-12   8.37249e-10 DIIS
   @DF-RHF iter  15:  -442.71498523033119    7.38964e-13   3.41566e-10 DIIS
   @DF-RHF iter  16:  -442.71498523033108    1.13687e-13   9.49318e-11 DIIS
  Energy and wave function converged.


  ==> Post-Iterations <==

    Orbital Energies [Eh]
    ---------------------

    Doubly Occupied:                                                      

       1A    -26.297201     2A    -20.619398     3A    -20.553934  
       4A    -11.397129     5A    -11.337963     6A    -11.293711  
       7A    -11.252558     8A    -11.251882     9A     -1.609370  
      10A     -1.466074    11A     -1.367775    12A     -1.170886  
      13A     -1.000501    14A     -0.893041    15A     -0.855210  
      16A     -0.782371    17A     -0.759020    18A     -0.709012  
      19A     -0.688827    20A     -0.669575    21A     -0.668892  
      22A     -0.645581    23A     -0.628014    24A     -0.588341  
      25A     -0.566736    26A     -0.542119    27A     -0.534093  
      28A     -0.483845    29A     -0.474739    30A     -0.443322  
      31A     -0.433686  

    Virtual:                                                              

      32A      0.029836    33A      0.033381    34A      0.039357  
      35A      0.044828    36A      0.053029    37A      0.055101  
      38A      0.065063    39A      0.067651    40A      0.095792  
      41A      0.098606    42A      0.101586    43A      0.108632  
      44A      0.116726    45A      0.123087    46A      0.123929  
      47A      0.130926    48A      0.134593    49A      0.147471  
      50A      0.147943    51A      0.151354    52A      0.153803  
      53A      0.161257    54A      0.164021    55A      0.174154  
      56A      0.182410    57A      0.185480    58A      0.192586  
      59A      0.209215    60A      0.219867    61A      0.220596  
      62A      0.229301    63A      0.236230    64A      0.256425  
      65A      0.263142    66A      0.264679    67A      0.275838  
      68A      0.277605    69A      0.287448    70A      0.294299  
      71A      0.308858    72A      0.309680    73A      0.314836  
      74A      0.316369    75A      0.322657    76A      0.325973  
      77A      0.333314    78A      0.338608    79A      0.344234  
      80A      0.348217    81A      0.352580    82A      0.362093  
      83A      0.364789    84A      0.365898    85A      0.371864  
      86A      0.378891    87A      0.380254    88A      0.381276  
      89A      0.400948    90A      0.417447    91A      0.420961  
      92A      0.424587    93A      0.425245    94A      0.430656  
      95A      0.436492    96A      0.437888    97A      0.446182  
      98A      0.448163    99A      0.448490   100A      0.451885  
     101A      0.459948   102A      0.466284   103A      0.474336  
     104A      0.476588   105A      0.496964   106A      0.501768  
     107A      0.503870   108A      0.509542   109A      0.515347  
     110A      0.518711   111A      0.527333   112A      0.532795  
     113A      0.548010   114A      0.562579   115A      0.567445  
     116A      0.571599   117A      0.578982   118A      0.583330  
     119A      0.589953   120A      0.602476   121A      0.602861  
     122A      0.613011   123A      0.626618   124A      0.627771  
     125A      0.631862   126A      0.636026   127A      0.659675  
     128A      0.665868   129A      0.692336   130A      0.710052  
     131A      0.714047   132A      0.723125   133A      0.728825  
     134A      0.735774   135A      0.751868   136A      0.774178  
     137A      0.781033   138A      0.785084   139A      0.801254  
     140A      0.819306   141A      0.822600   142A      0.828681  
     143A      0.836719   144A      0.841180   145A      0.853635  
     146A      0.857152   147A      0.872821   148A      0.877755  
     149A      0.881212   150A      0.881224   151A      0.890559  
     152A      0.902115   153A      0.911311   154A      0.913014  
     155A      0.921054   156A      0.928972   157A      0.933567  
     158A      0.939344   159A      0.948957   160A      0.959173  
     161A      0.965403   162A      0.981541   163A      0.985772  
     164A      0.993352   165A      1.000324   166A      1.005381  
     167A      1.011570   168A      1.022870   169A      1.025244  
     170A      1.030622   171A      1.044097   172A      1.051598  
     173A      1.053319   174A      1.072312   175A      1.073752  
     176A      1.094931   177A      1.099800   178A      1.105084  
     179A      1.106537   180A      1.110280   181A      1.111740  
     182A      1.131852   183A      1.133626   184A      1.150814  
     185A      1.158568   186A      1.180065   187A      1.183009  
     188A      1.190622   189A      1.190772   190A      1.193901  
     191A      1.221596   192A      1.222885   193A      1.228446  
     194A      1.231813   195A      1.254552   196A      1.276903  
     197A      1.281627   198A      1.294846   199A      1.298745  
     200A      1.300674   201A      1.311267   202A      1.320898  
     203A      1.325950   204A      1.337036   205A      1.347572  
     206A      1.357144   207A      1.386329   208A      1.387861  
     209A      1.406277   210A      1.408024   211A      1.427549  
     212A      1.428691   213A      1.437345   214A      1.446643  
     215A      1.453720   216A      1.477928   217A      1.484060  
     218A      1.501602   219A      1.513884   220A      1.514112  
     221A      1.525201   222A      1.525451   223A      1.550603  
     224A      1.561376   225A      1.578928   226A      1.595084  
     227A      1.595581   228A      1.602179   229A      1.602909  
     230A      1.604922   231A      1.633798   232A      1.646931  
     233A      1.650775   234A      1.660606   235A      1.666828  
     236A      1.668346   237A      1.683872   238A      1.697834  
     239A      1.723350   240A      1.730260   241A      1.737396  
     242A      1.738860   243A      1.757395   244A      1.761429  
     245A      1.773592   246A      1.775285   247A      1.795753  
     248A      1.800236   249A      1.814337   250A      1.832476  
     251A      1.849365   252A      1.861034   253A      1.867210  
     254A      1.891998   255A      1.904141   256A      1.918651  
     257A      1.923252   258A      1.926268   259A      1.941568  
     260A      1.949000   261A      1.953240   262A      1.964581  
     263A      1.978056   264A      2.009556   265A      2.015232  
     266A      2.027527   267A      2.031795   268A      2.056663  
     269A      2.063982   270A      2.067124   271A      2.090427  
     272A      2.094496   273A      2.114656   274A      2.142077  
     275A      2.143550   276A      2.153903   277A      2.154621  
     278A      2.181583   279A      2.201139   280A      2.211926  
     281A      2.226924   282A      2.238204   283A      2.239231  
     284A      2.260811   285A      2.290126   286A      2.293214  
     287A      2.318666   288A      2.372540   289A      2.392727  
     290A      2.407754   291A      2.429019   292A      2.442415  
     293A      2.462956   294A      2.467677   295A      2.488932  
     296A      2.494171   297A      2.513042   298A      2.564064  
     299A      2.584971   300A      2.595354   301A      2.621122  
     302A      2.651948   303A      2.657651   304A      2.675372  
     305A      2.700283   306A      2.720564   307A      2.739891  
     308A      2.752251   309A      2.771292   310A      2.818181  
     311A      2.872259   312A      2.894439   313A      2.908839  
     314A      2.914307   315A      2.929988   316A      2.947657  
     317A      3.004648   318A      3.024528   319A      3.045954  
     320A      3.047111   321A      3.067306   322A      3.070106  
     323A      3.102119   324A      3.131218   325A      3.135512  
     326A      3.194298   327A      3.210287   328A      3.212058  
     329A      3.228765   330A      3.252944   331A      3.271043  
     332A      3.330854   333A      3.338026   334A      3.387645  
     335A      3.389692   336A      3.407016   337A      3.423148  
     338A      3.426270   339A      3.427915   340A      3.475752  
     341A      3.480416   342A      3.488093   343A      3.522490  
     344A      3.535453   345A      3.555323   346A      3.579904  
     347A      3.580509   348A      3.589748   349A      3.604413  
     350A      3.615436   351A      3.626490   352A      3.634679  
     353A      3.647754   354A      3.667473   355A      3.694285  
     356A      3.704523   357A      3.716551   358A      3.730879  
     359A      3.733022   360A      3.744012   361A      3.750727  
     362A      3.791321   363A      3.812028   364A      3.823652  
     365A      3.856767   366A      3.861310   367A      3.862613  
     368A      3.877494   369A      3.890198   370A      3.907279  
     371A      3.910753   372A      3.929860   373A      3.942691  
     374A      3.956276   375A      3.977110   376A      3.981161  
     377A      3.991893   378A      4.002147   379A      4.019472  
     380A      4.045308   381A      4.073590   382A      4.089997  
     383A      4.092882   384A      4.127959   385A      4.132109  
     386A      4.167059   387A      4.173657   388A      4.184169  
     389A      4.189702   390A      4.201694   391A      4.205793  
     392A      4.207017   393A      4.217594   394A      4.255113  
     395A      4.271837   396A      4.279739   397A      4.318620  
     398A      4.338130   399A      4.341969   400A      4.353680  
     401A      4.354977   402A      4.384383   403A      4.399157  
     404A      4.402724   405A      4.427202   406A      4.481189  
     407A      4.492273   408A      4.515570   409A      4.516610  
     410A      4.527081   411A      4.601331   412A      4.605542  
     413A      4.626828   414A      4.650437   415A      4.687419  
     416A      4.695192   417A      4.703299   418A      4.725920  
     419A      4.771936   420A      4.777911   421A      4.778835  
     422A      4.815776   423A      4.822216   424A      4.850897  
     425A      4.855163   426A      4.868214   427A      4.880337  
     428A      4.901878   429A      4.905164   430A      4.964330  
     431A      4.977771   432A      4.981620   433A      5.009259  
     434A      5.032649   435A      5.052532   436A      5.054346  
     437A      5.118767   438A      5.123907   439A      5.146399  
     440A      5.156480   441A      5.171054   442A      5.223826  
     443A      5.240751   444A      5.258448   445A      5.275739  
     446A      5.322329   447A      5.349354   448A      5.372944  
     449A      5.396493   450A      5.407343   451A      5.503945  
     452A      5.523877   453A      5.559625   454A      5.567319  
     455A      5.597322   456A      5.611918   457A      5.613949  
     458A      5.634365   459A      5.681833   460A      5.684488  
     461A      5.710484   462A      5.723361   463A      5.821518  
     464A      5.871272   465A      5.881460   466A      5.908777  
     467A      5.914289   468A      6.032851   469A      6.053987  
     470A      6.055657   471A      6.090324   472A      6.163761  
     473A      6.179023   474A      6.270759   475A      6.364385  
     476A      6.387456   477A      6.461034   478A      6.523983  
     479A      6.575011   480A      6.594184   481A      6.678112  
     482A      6.680763   483A      6.703630   484A      6.774192  
     485A      6.828645   486A      6.865722   487A      6.902879  
     488A      6.935188   489A      7.027538   490A      7.103209  
     491A      7.129549   492A      7.147973   493A      7.211933  
     494A      7.225997   495A      7.392654   496A      7.414413  
     497A      7.424151   498A      7.465508   499A      7.569299  
     500A      7.586466   501A      7.658905   502A      7.704322  
     503A      7.782786   504A      7.878265   505A      7.882613  
     506A      7.963861   507A      8.062928   508A      8.267674  
     509A      8.542847   510A      9.066349   511A      9.080536  
     512A      9.319808   513A      9.389962   514A      9.463179  
     515A      9.538754   516A      9.567648   517A      9.578396  
     518A      9.657613   519A      9.801456   520A      9.984700  
     521A     10.032073   522A     15.018234   523A     15.429371  
     524A     16.403955   525A     17.013447   526A     17.915569  
     527A     18.156060   528A     18.214281   529A     19.878948  

    Final Occupation by Irrep:
              A 
    DOCC [    31 ]

  @DF-RHF Final Energy:  -442.71498523033108

   => Energetics <=

    Nuclear Repulsion Energy =            390.7092717362214103
    One-Electron Energy =               -1382.8788979533587735
    Two-Electron Energy =                 549.4546409868063392
    Total Energy =                       -442.7149852303310809

Computation Completed

*** tstop() called on node35.bme.utexas.edu at Thu Feb  4 14:04:08 2021
Module time:
	user time   =     240.58 seconds =       4.01 minutes
	system time =      46.44 seconds =       0.77 minutes
	total time  =         60 seconds =       1.00 minutes
Total time:
	user time   =     240.58 seconds =       4.01 minutes
	system time =      46.44 seconds =       0.77 minutes
	total time  =         60 seconds =       1.00 minutes
   => Loading Basis Set <=

    Name: (AUG-CC-PVTZ AUX)
    Role: RIFIT
    Keyword: DF_BASIS_MP2
    atoms 1    entry F          line   322 file /home/xy3866/psi4conda/share/psi4/basis/aug-cc-pvtz-ri.gbs 
    atoms 2-3  entry O          line   264 file /home/xy3866/psi4conda/share/psi4/basis/aug-cc-pvtz-ri.gbs 
    atoms 4-8  entry C          line   148 file /home/xy3866/psi4conda/share/psi4/basis/aug-cc-pvtz-ri.gbs 
    atoms 9-15 entry H          line    30 file /home/xy3866/psi4conda/share/psi4/basis/aug-cc-pvtz-ri.gbs 


*** tstart() called on node35.bme.utexas.edu
*** at Thu Feb  4 14:04:09 2021


  //>>>>>>>>>>>>>>>>>>>>>>>>>>>>>>>>>>>//
  //               DFMP2               //
  //<<<<<<<<<<<<<<<<<<<<<<<<<<<<<<<<<<<//

	 --------------------------------------------------------
	                          DF-MP2                         
	      2nd-Order Density-Fitted Moller-Plesset Theory     
	              RMP2 Wavefunction,   8 Threads             
	                                                         
	        Rob Parrish, Justin Turney, Andy Simmonett,      
	           Ed Hohenstein, and C. David Sherrill          
	 --------------------------------------------------------

   => Auxiliary Basis Set <=

  Basis Set: (AUG-CC-PVTZ AUX)
    Blend: AUG-CC-PVTZ-RI
    Number of shells: 322
    Number of basis function: 1170
    Number of Cartesian functions: 1473
    Spherical Harmonics?: true
    Max angular momentum: 4

	 --------------------------------------------------------
	                 NBF =   529, NAUX =  1170
	 --------------------------------------------------------
	   CLASS    FOCC     OCC    AOCC    AVIR     VIR    FVIR
	   PAIRS       0      31      31     498     498       0
	 --------------------------------------------------------

  DFHelper Memory: AOs need 2.380 GiB; user supplied 22.352 GiB. Using in-core AOs.


         ------------------------------------------------------------
                                     CPHF                           
                                  Rob Parrish                       
         ------------------------------------------------------------

  ==> Geometry <==

    Molecular point group: c1
    Full point group: C1

    Geometry (in Angstrom), charge = 0, multiplicity = 1:

       Center              X                  Y                   Z               Mass       
    ------------   -----------------  -----------------  -----------------  -----------------
         F            0.927299707684     1.599600145513    -0.000005487709    18.998403162730
         O           -1.452820292316     0.607278145513     0.000000512291    15.994914619570
         O           -0.678904192316    -1.557246054487    -0.000007487709    15.994914619570
         C            0.868384707684     0.225534145513    -0.000003487709    12.000000000000
         C            1.937664707684    -0.504817854487    -0.753156487709    12.000000000000
         C            1.937656707684    -0.504813854487     0.753170512291    12.000000000000
         C           -0.506210292316    -0.346934854487    -0.000004487709    12.000000000000
         C           -2.800501292316     0.087073145513     0.000006512291    12.000000000000
         H            2.664898707684     0.125200145513    -1.253539487709     1.007825032230
         H            1.646367707684    -1.412769854487    -1.269250487709     1.007825032230
         H            1.646358707684    -1.412760854487     1.269272512291     1.007825032230
         H            2.664885707684     0.125206145513     1.253558512291     1.007825032230
         H           -3.438914292316     0.967692145513     0.000012512291     1.007825032230
         H           -2.971024292316    -0.519770854487     0.890101512291     1.007825032230
         H           -2.971034292316    -0.519765854487    -0.890090487709     1.007825032230

  Nuclear repulsion =  390.709271736221410
  Reference energy  = -442.714985230331081

  ==> Basis Set <==

  Basis Set: AUG-CC-PVTZ
    Blend: AUG-CC-PVTZ
    Number of shells: 175
    Number of basis function: 529
    Number of Cartesian functions: 615
    Spherical Harmonics?: true
    Max angular momentum: 3

  ==> CGRSolver (by Rob Parrish) <==

   Number of roots    =         1
   Preconditioning    =    JACOBI
   Convergence cutoff =     1E-06
   Maximum iterations =       100

  ==> CPHFRHamiltonian (by Rob Parrish) <== 

  ==> MemDFJK: Density-Fitted J/K Matrices <==

    J tasked:                   Yes
    K tasked:                   Yes
    wK tasked:                   No
    OpenMP threads:               8
    Memory [MiB]:             22888
    Algorithm:                 Disk
    Schwarz Cutoff:           1E-12
    Mask sparsity (%):       4.5118
    Fitting Condition:        1E-10

   => Auxiliary Basis Set <=

  Basis Set: (AUG-CC-PVTZ AUX)
    Blend: AUG-CC-PVTZ-JKFIT
    Number of shells: 338
    Number of basis function: 1154
    Number of Cartesian functions: 1433
    Spherical Harmonics?: true
    Max angular momentum: 4

  ==> CPHF Iterations <==

  => Iterations <=

             Iter  Converged  Remaining    Residual
  CGR           1          0          1   1.083E-01
  CGR           2          0          1   2.975E-02
  CGR           3          0          1   1.175E-02
  CGR           4          0          1   4.017E-03
  CGR           5          0          1   1.336E-03
  CGR           6          0          1   3.700E-04
  CGR           7          0          1   1.004E-04
  CGR           8          0          1   3.182E-05
  CGR           9          0          1   8.843E-06
  CGR          10          0          1   2.335E-06
  CGR          11          1          0   7.507E-07

    CGRSolver converged.

	-----------------------------------------------------------
	 ==================> DF-MP2 Energies <==================== 
	-----------------------------------------------------------
	 Reference Energy          =    -442.7149852303310809 [Eh]
	 Singles Energy            =      -0.0000000000000000 [Eh]
	 Same-Spin Energy          =      -0.4150467439433467 [Eh]
	 Opposite-Spin Energy      =      -1.2896847965798337 [Eh]
	 Correlation Energy        =      -1.7047315405231804 [Eh]
	 Total Energy              =    -444.4197167708542793 [Eh]
	-----------------------------------------------------------
	 ================> DF-SCS-MP2 Energies <================== 
	-----------------------------------------------------------
	 SCS Same-Spin Scale       =       0.3333333333333333 [-]
	 SCS Opposite-Spin Scale   =       1.2000000000000000 [-]
	 SCS Same-Spin Energy      =      -0.1383489146477822 [Eh]
	 SCS Opposite-Spin Energy  =      -1.5476217558958003 [Eh]
	 SCS Correlation Energy    =      -1.6859706705435826 [Eh]
	 SCS Total Energy          =    -444.4009559008746919 [Eh]
	-----------------------------------------------------------



Properties will be evaluated at   0.000000,  -0.000000,   0.000000 [a0]

Properties computed using the MP2 density matrix

  Nuclear Dipole Moment: [e a0]
     X:    -1.5961      Y:    -3.9950      Z:     0.0001

  Electronic Dipole Moment: [e a0]
     X:     1.4565      Y:     3.9436      Z:    -0.0001

  Dipole Moment: [e a0]
     X:    -0.1396      Y:    -0.0514      Z:     0.0000     Total:     0.1488

  Dipole Moment: [D]
     X:    -0.3548      Y:    -0.1307      Z:     0.0000     Total:     0.3781


*** tstop() called on node35.bme.utexas.edu at Thu Feb  4 14:06:11 2021
Module time:
	user time   =     636.75 seconds =      10.61 minutes
	system time =      71.48 seconds =       1.19 minutes
	total time  =        122 seconds =       2.03 minutes
Total time:
	user time   =     877.57 seconds =      14.63 minutes
	system time =     117.94 seconds =       1.97 minutes
	total time  =        183 seconds =       3.05 minutes

    Psi4 stopped on: Thursday, 04 February 2021 02:06PM
    Psi4 wall time for execution: 0:03:03.05

*** Psi4 exiting successfully. Buy a developer a beer!
