
    -----------------------------------------------------------------------
          Psi4: An Open-Source Ab Initio Electronic Structure Package
                               Psi4 1.4a3.dev225 

                         Git: Rev {master} 7105e37 


    D. G. A. Smith, L. A. Burns, A. C. Simmonett, R. M. Parrish,
    M. C. Schieber, R. Galvelis, P. Kraus, H. Kruse, R. Di Remigio,
    A. Alenaizan, A. M. James, S. Lehtola, J. P. Misiewicz, M. Scheurer,
    R. A. Shaw, J. B. Schriber, Y. Xie, Z. L. Glick, D. A. Sirianni,
    J. S. O'Brien, J. M. Waldrop, A. Kumar, E. G. Hohenstein,
    B. P. Pritchard, B. R. Brooks, H. F. Schaefer III, A. Yu. Sokolov,
    K. Patkowski, A. E. DePrince III, U. Bozkaya, R. A. King,
    F. A. Evangelista, J. M. Turney, T. D. Crawford, C. D. Sherrill,
    J. Chem. Phys. 152(18) 184108 (2020). https://doi.org/10.1063/5.0006002

                            Additional Code Authors
    E. T. Seidl, C. L. Janssen, E. F. Valeev, M. L. Leininger,
    J. F. Gonthier, R. M. Richard, H. R. McAlexander, M. Saitow, X. Wang,
    P. Verma, and M. H. Lechner

             Previous Authors, Complete List of Code Contributors,
                       and Citations for Specific Modules
    https://github.com/psi4/psi4/blob/master/codemeta.json
    https://github.com/psi4/psi4/graphs/contributors
    http://psicode.org/psi4manual/master/introduction.html#citing-psifour

    -----------------------------------------------------------------------


    Psi4 started on: Sunday, 07 March 2021 12:24AM

    Process ID: 190672
    Host:       c419-013.stampede2.tacc.utexas.edu
    PSIDATADIR: /home1/07844/xy3866/miniconda3/envs/p4env/share/psi4
    Memory:     500.0 MiB
    Threads:    32
    
  ==> Input File <==

--------------------------------------------------------------------------
#psi4
#
memory 32 gb

molecule  {
-1 1
  O       -2.4775990    -1.4732410    -0.5357720
  O       -2.5836320     0.8103810    -0.7086120
  C        0.1769840    -0.1996970     0.5360780
  C        0.8050282     0.8886607     0.1558503
  C       -1.2378850    -0.1617980     1.0317040
  C        0.8256870    -1.4354030     0.3918760
  C        2.1654290     0.8711020    -0.3500530
  C        0.1613040     2.3091050     0.2016770
  C        2.1298550    -1.5237740    -0.0958170
  C        2.8103870    -0.3625320    -0.4658790
  C       -2.2184660    -0.2891600    -0.2009230
  H       -1.4126520    -1.0091000     1.7035120
  H       -1.4413430     0.7679950     1.5725290
  H        0.2756770    -2.3364080     0.6567980
  H        2.6838580     1.7794620    -0.6595800
  H       -0.8491240     2.2156170    -0.2099720
  H        0.0735000     2.6566880     1.2394400
  H        0.7245490     3.0640340    -0.3581400
  H        2.6081740    -2.4970700    -0.1982670
  H        3.8302350    -0.4147610    -0.8445580
units angstrom
no_reorient  #important for SAPT in psi4, default
symmetry c1  #important for SAPT in psi4, default
}

set PROPERTIES_ORIGIN ["COM"]
properties('MP2/aug-cc-pvtz', properties = ['dipole'])
--------------------------------------------------------------------------

  Memory set to  29.802 GiB by Python driver.
    SCF Algorithm Type (re)set to DF.

*** tstart() called on c419-013.stampede2.tacc.utexas.edu
*** at Sun Mar  7 00:24:51 2021

   => Loading Basis Set <=

    Name: AUG-CC-PVTZ
    Role: ORBITAL
    Keyword: BASIS
    atoms 1-2   entry O          line   331 file /home1/07844/xy3866/miniconda3/envs/p4env/share/psi4/basis/aug-cc-pvtz.gbs 
    atoms 3-11  entry C          line   239 file /home1/07844/xy3866/miniconda3/envs/p4env/share/psi4/basis/aug-cc-pvtz.gbs 
    atoms 12-20 entry H          line    40 file /home1/07844/xy3866/miniconda3/envs/p4env/share/psi4/basis/aug-cc-pvtz.gbs 


         ---------------------------------------------------------
                                   SCF
               by Justin Turney, Rob Parrish, Andy Simmonett
                          and Daniel G. A. Smith
                              RHF Reference
                       32 Threads,  30517 MiB Core
         ---------------------------------------------------------

  ==> Geometry <==

    Molecular point group: c1
    Full point group: C1

    Geometry (in Angstrom), charge = -1, multiplicity = 1:

       Center              X                  Y                   Z               Mass       
    ------------   -----------------  -----------------  -----------------  -----------------
         O           -2.430702539312    -1.438457646390    -0.518831281223    15.994914619570
         O           -2.536735539312     0.845164353610    -0.691671281223    15.994914619570
         C            0.223880460688    -0.164913646390     0.553018718777    12.000000000000
         C            0.851924660688     0.923444053610     0.172791018777    12.000000000000
         C           -1.190988539312    -0.127014646390     1.048644718777    12.000000000000
         C            0.872583460688    -1.400619646390     0.408816718777    12.000000000000
         C            2.212325460688     0.905885353610    -0.333112281223    12.000000000000
         C            0.208200460688     2.343888353610     0.218617718777    12.000000000000
         C            2.176751460688    -1.488990646390    -0.078876281223    12.000000000000
         C            2.857283460688    -0.327748646390    -0.448938281223    12.000000000000
         C           -2.171569539312    -0.254376646390    -0.183982281223    12.000000000000
         H           -1.365755539312    -0.974316646390     1.720452718777     1.007825032230
         H           -1.394446539312     0.802778353610     1.589469718777     1.007825032230
         H            0.322573460688    -2.301624646390     0.673738718777     1.007825032230
         H            2.730754460688     1.814245353610    -0.642639281223     1.007825032230
         H           -0.802227539312     2.250400353610    -0.193031281223     1.007825032230
         H            0.120396460688     2.691471353610     1.256380718777     1.007825032230
         H            0.771445460688     3.098817353610    -0.341199281223     1.007825032230
         H            2.655070460688    -2.462286646390    -0.181326281223     1.007825032230
         H            3.877131460688    -0.379977646390    -0.827617281223     1.007825032230

  Running in c1 symmetry.

  Rotational constants: A =      0.06325  B =      0.02889  C =      0.02216 [cm^-1]
  Rotational constants: A =   1896.25581  B =    866.24366  C =    664.43836 [MHz]
  Nuclear repulsion =  573.076053440583451

  Charge       = -1
  Multiplicity = 1
  Electrons    = 80
  Nalpha       = 40
  Nbeta        = 40

  ==> Algorithm <==

  SCF Algorithm Type is DF.
  DIIS enabled.
  MOM disabled.
  Fractional occupation disabled.
  Guess Type is SAD.
  Energy threshold   = 1.00e-10
  Density threshold  = 1.00e-10
  Integral threshold = 1.00e-12

  ==> Primary Basis <==

  Basis Set: AUG-CC-PVTZ
    Blend: AUG-CC-PVTZ
    Number of shells: 235
    Number of basis functions: 713
    Number of Cartesian functions: 830
    Spherical Harmonics?: true
    Max angular momentum: 3

   => Loading Basis Set <=

    Name: (AUG-CC-PVTZ AUX)
    Role: JKFIT
    Keyword: DF_BASIS_SCF
    atoms 1-2   entry O          line   286 file /home1/07844/xy3866/miniconda3/envs/p4env/share/psi4/basis/aug-cc-pvtz-jkfit.gbs 
    atoms 3-11  entry C          line   162 file /home1/07844/xy3866/miniconda3/envs/p4env/share/psi4/basis/aug-cc-pvtz-jkfit.gbs 
    atoms 12-20 entry H          line    70 file /home1/07844/xy3866/miniconda3/envs/p4env/share/psi4/basis/aug-cc-pvtz-jkfit.gbs 

  ==> Integral Setup <==

  DFHelper Memory: AOs need 5.618 GiB; user supplied 22.352 GiB. Using in-core AOs.

  ==> MemDFJK: Density-Fitted J/K Matrices <==

    J tasked:                   Yes
    K tasked:                   Yes
    wK tasked:                   No
    OpenMP threads:              32
    Memory [MiB]:             22888
    Algorithm:                 Core
    Schwarz Cutoff:           1E-12
    Mask sparsity (%):       8.8920
    Fitting Condition:        1E-10

   => Auxiliary Basis Set <=

  Basis Set: (AUG-CC-PVTZ AUX)
    Blend: AUG-CC-PVTZ-JKFIT
    Number of shells: 456
    Number of basis functions: 1558
    Number of Cartesian functions: 1936
    Spherical Harmonics?: true
    Max angular momentum: 4

  Minimum eigenvalue in the overlap matrix is 4.5339227504E-07.
  Reciprocal condition number of the overlap matrix is 2.1762177228E-08.
    Using symmetric orthogonalization.

  ==> Pre-Iterations <==

  SCF Guess: Superposition of Atomic Densities via on-the-fly atomic UHF (no occupation information).

   -------------------------
    Irrep   Nso     Nmo    
   -------------------------
     A        713     713 
   -------------------------
    Total     713     713
   -------------------------

  ==> Iterations <==

                           Total Energy        Delta E     RMS |[F,P]|

   @DF-RHF iter SAD:  -494.91493869129539   -4.94915e+02   0.00000e+00 
   @DF-RHF iter   1:  -495.57821928238548   -6.63281e-01   1.23280e-03 DIIS
   @DF-RHF iter   2:  -495.88097436841224   -3.02755e-01   7.17149e-04 DIIS
   @DF-RHF iter   3:  -495.98087414170584   -9.98998e-02   1.10803e-04 DIIS
   @DF-RHF iter   4:  -495.98507545649124   -4.20131e-03   4.22224e-05 DIIS
   @DF-RHF iter   5:  -495.98567531568153   -5.99859e-04   8.28152e-06 DIIS
   @DF-RHF iter   6:  -495.98570968914930   -3.43735e-05   3.03579e-06 DIIS
   @DF-RHF iter   7:  -495.98571481566836   -5.12652e-06   1.18401e-06 DIIS
   @DF-RHF iter   8:  -495.98571602338018   -1.20771e-06   5.35411e-07 DIIS
   @DF-RHF iter   9:  -495.98571637092851   -3.47548e-07   2.85995e-07 DIIS
   @DF-RHF iter  10:  -495.98571649172118   -1.20793e-07   1.03604e-07 DIIS
   @DF-RHF iter  11:  -495.98571650947196   -1.77508e-08   3.79285e-08 DIIS
   @DF-RHF iter  12:  -495.98571651061445   -1.14250e-09   1.59663e-08 DIIS
   @DF-RHF iter  13:  -495.98571651076531   -1.50862e-10   4.81894e-09 DIIS
   @DF-RHF iter  14:  -495.98571651077992   -1.46088e-11   1.93101e-09 DIIS
   @DF-RHF iter  15:  -495.98571651078413   -4.20641e-12   1.02200e-09 DIIS
   @DF-RHF iter  16:  -495.98571651078419   -5.68434e-14   4.65699e-10 DIIS
   @DF-RHF iter  17:  -495.98571651078419    0.00000e+00   2.17477e-10 DIIS
   @DF-RHF iter  18:  -495.98571651078510   -9.09495e-13   8.22610e-11 DIIS
  Energy and wave function converged.


  ==> Post-Iterations <==

    Orbital Energies [Eh]
    ---------------------

    Doubly Occupied:                                                      

       1A    -20.308394     2A    -20.308203     3A    -11.155814  
       4A    -11.120904     5A    -11.119475     6A    -11.115377  
       7A    -11.112381     8A    -11.110829     9A    -11.099164  
      10A    -11.092474    11A    -11.072386    12A     -1.178507  
      13A     -1.082614    14A     -1.038508    15A     -0.932043  
      16A     -0.899007    17A     -0.815916    18A     -0.789253  
      19A     -0.705300    20A     -0.657198    21A     -0.564004  
      22A     -0.532588    23A     -0.523169    24A     -0.499910  
      25A     -0.461129    26A     -0.451868    27A     -0.440906  
      28A     -0.425743    29A     -0.423233    30A     -0.410357  
      31A     -0.382064    32A     -0.375967    33A     -0.367824  
      34A     -0.352739    35A     -0.322763    36A     -0.240140  
      37A     -0.225227    38A     -0.210073    39A     -0.202284  
      40A     -0.183937  

    Virtual:                                                              

      41A      0.098019    42A      0.105498    43A      0.111836  
      44A      0.120726    45A      0.123890    46A      0.135065  
      47A      0.139607    48A      0.152710    49A      0.166632  
      50A      0.175622    51A      0.180863    52A      0.186923  
      53A      0.192012    54A      0.196758    55A      0.198977  
      56A      0.205327    57A      0.208427    58A      0.209823  
      59A      0.210318    60A      0.213931    61A      0.220327  
      62A      0.230609    63A      0.233443    64A      0.238531  
      65A      0.244093    66A      0.246461    67A      0.252250  
      68A      0.254695    69A      0.259559    70A      0.265248  
      71A      0.266234    72A      0.268064    73A      0.275337  
      74A      0.284599    75A      0.288413    76A      0.294112  
      77A      0.299933    78A      0.307676    79A      0.315758  
      80A      0.322598    81A      0.333374    82A      0.348043  
      83A      0.349405    84A      0.356139    85A      0.363299  
      86A      0.366162    87A      0.372883    88A      0.376666  
      89A      0.380797    90A      0.386494    91A      0.389396  
      92A      0.396076    93A      0.397813    94A      0.401945  
      95A      0.405880    96A      0.414991    97A      0.418837  
      98A      0.421335    99A      0.431848   100A      0.432766  
     101A      0.436851   102A      0.440523   103A      0.447236  
     104A      0.449772   105A      0.452851   106A      0.459958  
     107A      0.467159   108A      0.469478   109A      0.483414  
     110A      0.485245   111A      0.489205   112A      0.496513  
     113A      0.503218   114A      0.504908   115A      0.509194  
     116A      0.510914   117A      0.518644   118A      0.521192  
     119A      0.535555   120A      0.541313   121A      0.548606  
     122A      0.552410   123A      0.554771   124A      0.559284  
     125A      0.568831   126A      0.569667   127A      0.571020  
     128A      0.576478   129A      0.579290   130A      0.582960  
     131A      0.590234   132A      0.592322   133A      0.597482  
     134A      0.600605   135A      0.605476   136A      0.610693  
     137A      0.614871   138A      0.619486   139A      0.623480  
     140A      0.624455   141A      0.626734   142A      0.636710  
     143A      0.638556   144A      0.643790   145A      0.647254  
     146A      0.651352   147A      0.655760   148A      0.665390  
     149A      0.668327   150A      0.669058   151A      0.676197  
     152A      0.686951   153A      0.691791   154A      0.694007  
     155A      0.704908   156A      0.707904   157A      0.713679  
     158A      0.720104   159A      0.729000   160A      0.734522  
     161A      0.744055   162A      0.748838   163A      0.756152  
     164A      0.762114   165A      0.768617   166A      0.775122  
     167A      0.784477   168A      0.788844   169A      0.792789  
     170A      0.798792   171A      0.801844   172A      0.802392  
     173A      0.815410   174A      0.821751   175A      0.825578  
     176A      0.830893   177A      0.833268   178A      0.853080  
     179A      0.856060   180A      0.862571   181A      0.874267  
     182A      0.880487   183A      0.890782   184A      0.900221  
     185A      0.901474   186A      0.913216   187A      0.919079  
     188A      0.925200   189A      0.930538   190A      0.940882  
     191A      0.946550   192A      0.953802   193A      0.957284  
     194A      0.966413   195A      0.972456   196A      0.977115  
     197A      0.978167   198A      0.981830   199A      0.994886  
     200A      0.998462   201A      1.002014   202A      1.014834  
     203A      1.020313   204A      1.031538   205A      1.032731  
     206A      1.041446   207A      1.044925   208A      1.049374  
     209A      1.053847   210A      1.054742   211A      1.060194  
     212A      1.065850   213A      1.070761   214A      1.074410  
     215A      1.085065   216A      1.095165   217A      1.098942  
     218A      1.099378   219A      1.108461   220A      1.114801  
     221A      1.118422   222A      1.131217   223A      1.137563  
     224A      1.142771   225A      1.146934   226A      1.151942  
     227A      1.153224   228A      1.162101   229A      1.167295  
     230A      1.171420   231A      1.174758   232A      1.178803  
     233A      1.184910   234A      1.186231   235A      1.193972  
     236A      1.197577   237A      1.204989   238A      1.206956  
     239A      1.217338   240A      1.224544   241A      1.225873  
     242A      1.229609   243A      1.238689   244A      1.241349  
     245A      1.246811   246A      1.251234   247A      1.258614  
     248A      1.265392   249A      1.274209   250A      1.279418  
     251A      1.284069   252A      1.290994   253A      1.297022  
     254A      1.299583   255A      1.302585   256A      1.313269  
     257A      1.322330   258A      1.325709   259A      1.334247  
     260A      1.335917   261A      1.339002   262A      1.345854  
     263A      1.348247   264A      1.361397   265A      1.368090  
     266A      1.371519   267A      1.377161   268A      1.384676  
     269A      1.391753   270A      1.397690   271A      1.408775  
     272A      1.417032   273A      1.422781   274A      1.427583  
     275A      1.442686   276A      1.449579   277A      1.451662  
     278A      1.466888   279A      1.477781   280A      1.483524  
     281A      1.488945   282A      1.492247   283A      1.502084  
     284A      1.505441   285A      1.514154   286A      1.528149  
     287A      1.536351   288A      1.548381   289A      1.553421  
     290A      1.556796   291A      1.556947   292A      1.569444  
     293A      1.577424   294A      1.592264   295A      1.598574  
     296A      1.605899   297A      1.619096   298A      1.624013  
     299A      1.631647   300A      1.644711   301A      1.651619  
     302A      1.657101   303A      1.663077   304A      1.675844  
     305A      1.684710   306A      1.687913   307A      1.698587  
     308A      1.707984   309A      1.711383   310A      1.720960  
     311A      1.737136   312A      1.740175   313A      1.750718  
     314A      1.764372   315A      1.771277   316A      1.781492  
     317A      1.787872   318A      1.793935   319A      1.797583  
     320A      1.803487   321A      1.808233   322A      1.815446  
     323A      1.825893   324A      1.830964   325A      1.842088  
     326A      1.848064   327A      1.856513   328A      1.866406  
     329A      1.876872   330A      1.887761   331A      1.900070  
     332A      1.905617   333A      1.910935   334A      1.918619  
     335A      1.922917   336A      1.940314   337A      1.948839  
     338A      1.956770   339A      1.962074   340A      1.971697  
     341A      1.977401   342A      1.990229   343A      1.995890  
     344A      2.007208   345A      2.009281   346A      2.021201  
     347A      2.027230   348A      2.033916   349A      2.057368  
     350A      2.062346   351A      2.067802   352A      2.076207  
     353A      2.078808   354A      2.087353   355A      2.110478  
     356A      2.124919   357A      2.135887   358A      2.142432  
     359A      2.151740   360A      2.155642   361A      2.170758  
     362A      2.174227   363A      2.177615   364A      2.185471  
     365A      2.196244   366A      2.201021   367A      2.208232  
     368A      2.223535   369A      2.229641   370A      2.239442  
     371A      2.241217   372A      2.253079   373A      2.266916  
     374A      2.268213   375A      2.281600   376A      2.287678  
     377A      2.294596   378A      2.302839   379A      2.306237  
     380A      2.314814   381A      2.327282   382A      2.331506  
     383A      2.345191   384A      2.351116   385A      2.374194  
     386A      2.379481   387A      2.387615   388A      2.394232  
     389A      2.406729   390A      2.414574   391A      2.427445  
     392A      2.434516   393A      2.454463   394A      2.465594  
     395A      2.478151   396A      2.485839   397A      2.499332  
     398A      2.504068   399A      2.531068   400A      2.535527  
     401A      2.541347   402A      2.561896   403A      2.573447  
     404A      2.586517   405A      2.596457   406A      2.603609  
     407A      2.624005   408A      2.643248   409A      2.649697  
     410A      2.663961   411A      2.692032   412A      2.695701  
     413A      2.706237   414A      2.724661   415A      2.735707  
     416A      2.740236   417A      2.750245   418A      2.755192  
     419A      2.768042   420A      2.782206   421A      2.790026  
     422A      2.807720   423A      2.826435   424A      2.839612  
     425A      2.847217   426A      2.861564   427A      2.893365  
     428A      2.902378   429A      2.916251   430A      2.936046  
     431A      2.940405   432A      2.952028   433A      2.979417  
     434A      2.980789   435A      2.985986   436A      3.007419  
     437A      3.024627   438A      3.043034   439A      3.091057  
     440A      3.107924   441A      3.120006   442A      3.141752  
     443A      3.176808   444A      3.188367   445A      3.210736  
     446A      3.261072   447A      3.267652   448A      3.282047  
     449A      3.297932   450A      3.322823   451A      3.350888  
     452A      3.363423   453A      3.382552   454A      3.406214  
     455A      3.413871   456A      3.423577   457A      3.446745  
     458A      3.448235   459A      3.484541   460A      3.497226  
     461A      3.504460   462A      3.529328   463A      3.546867  
     464A      3.555168   465A      3.560565   466A      3.572027  
     467A      3.577610   468A      3.595666   469A      3.607862  
     470A      3.617088   471A      3.625027   472A      3.629826  
     473A      3.632324   474A      3.659276   475A      3.663975  
     476A      3.677753   477A      3.689653   478A      3.701606  
     479A      3.713433   480A      3.725043   481A      3.737458  
     482A      3.747883   483A      3.756094   484A      3.766283  
     485A      3.772024   486A      3.787877   487A      3.801284  
     488A      3.813962   489A      3.828791   490A      3.845732  
     491A      3.847520   492A      3.860725   493A      3.869343  
     494A      3.873518   495A      3.894126   496A      3.899263  
     497A      3.909826   498A      3.916856   499A      3.928722  
     500A      3.942490   501A      3.952529   502A      3.979428  
     503A      3.989864   504A      3.994290   505A      4.011340  
     506A      4.014160   507A      4.017879   508A      4.034430  
     509A      4.045318   510A      4.050788   511A      4.057176  
     512A      4.069443   513A      4.080141   514A      4.092880  
     515A      4.101256   516A      4.108105   517A      4.111038  
     518A      4.122272   519A      4.136897   520A      4.144967  
     521A      4.160115   522A      4.171095   523A      4.180925  
     524A      4.190115   525A      4.193090   526A      4.204966  
     527A      4.222200   528A      4.225580   529A      4.239843  
     530A      4.248354   531A      4.270839   532A      4.290724  
     533A      4.295853   534A      4.303485   535A      4.313622  
     536A      4.330242   537A      4.338853   538A      4.348243  
     539A      4.356248   540A      4.370181   541A      4.373879  
     542A      4.381084   543A      4.390211   544A      4.402484  
     545A      4.408873   546A      4.418688   547A      4.430703  
     548A      4.436449   549A      4.438230   550A      4.464519  
     551A      4.471688   552A      4.484788   553A      4.492653  
     554A      4.504008   555A      4.507130   556A      4.522715  
     557A      4.533394   558A      4.545239   559A      4.550279  
     560A      4.566603   561A      4.571875   562A      4.581088  
     563A      4.586903   564A      4.599977   565A      4.618599  
     566A      4.634603   567A      4.640495   568A      4.651272  
     569A      4.661727   570A      4.679655   571A      4.695898  
     572A      4.704938   573A      4.714015   574A      4.741195  
     575A      4.750464   576A      4.772357   577A      4.788974  
     578A      4.802691   579A      4.812807   580A      4.820782  
     581A      4.841198   582A      4.861594   583A      4.870835  
     584A      4.880296   585A      4.903445   586A      4.906192  
     587A      4.918618   588A      4.925704   589A      4.949979  
     590A      4.973100   591A      4.974876   592A      5.001267  
     593A      5.003124   594A      5.015913   595A      5.053371  
     596A      5.063068   597A      5.069724   598A      5.080571  
     599A      5.090195   600A      5.104925   601A      5.115288  
     602A      5.138569   603A      5.150733   604A      5.164383  
     605A      5.182001   606A      5.205802   607A      5.219880  
     608A      5.224680   609A      5.244259   610A      5.251648  
     611A      5.258144   612A      5.275247   613A      5.287719  
     614A      5.308031   615A      5.317349   616A      5.332508  
     617A      5.359711   618A      5.367479   619A      5.385224  
     620A      5.390257   621A      5.398956   622A      5.417293  
     623A      5.438932   624A      5.450853   625A      5.462176  
     626A      5.478285   627A      5.497261   628A      5.532618  
     629A      5.548040   630A      5.561714   631A      5.574285  
     632A      5.577303   633A      5.602332   634A      5.612824  
     635A      5.634991   636A      5.652735   637A      5.673010  
     638A      5.724540   639A      5.737869   640A      5.774412  
     641A      5.791364   642A      5.808964   643A      5.827522  
     644A      5.832575   645A      5.851856   646A      5.879920  
     647A      5.898402   648A      5.927446   649A      5.954354  
     650A      5.995714   651A      6.050352   652A      6.081399  
     653A      6.180804   654A      6.232291   655A      6.262438  
     656A      6.275606   657A      6.301643   658A      6.308362  
     659A      6.357462   660A      6.365340   661A      6.400505  
     662A      6.408134   663A      6.434900   664A      6.452182  
     665A      6.511055   666A      6.581056   667A      6.636604  
     668A      6.676622   669A      6.730137   670A      6.746636  
     671A      6.823775   672A      6.924963   673A      6.939906  
     674A      6.966357   675A      6.978993   676A      7.016361  
     677A      7.064315   678A      7.090240   679A      7.126517  
     680A      7.133482   681A      7.188240   682A      7.209311  
     683A      7.223816   684A      7.229989   685A      7.312027  
     686A      7.338032   687A      7.392537   688A      7.430912  
     689A      7.470100   690A      7.573623   691A      7.609664  
     692A      7.630217   693A      7.662177   694A      7.826054  
     695A      7.847438   696A      7.928436   697A      7.938548  
     698A      7.986097   699A      8.098563   700A      8.108124  
     701A      8.241820   702A      8.294320   703A     15.347445  
     704A     15.476641   705A     16.329947   706A     17.087664  
     707A     17.541934   708A     18.450783   709A     19.252076  
     710A     19.379996   711A     20.433019   712A     20.671154  
     713A     21.204984  

    Final Occupation by Irrep:
              A 
    DOCC [    40 ]

  @DF-RHF Final Energy:  -495.98571651078510

   => Energetics <=

    Nuclear Repulsion Energy =            573.0760534405834505
    One-Electron Energy =               -1825.5041939963643927
    Two-Electron Energy =                 756.4424240449957324
    Total Energy =                       -495.9857165107850960

Computation Completed

*** tstop() called on c419-013.stampede2.tacc.utexas.edu at Sun Mar  7 00:25:35 2021
Module time:
	user time   =     810.63 seconds =      13.51 minutes
	system time =      54.17 seconds =       0.90 minutes
	total time  =         44 seconds =       0.73 minutes
Total time:
	user time   =     810.63 seconds =      13.51 minutes
	system time =      54.17 seconds =       0.90 minutes
	total time  =         44 seconds =       0.73 minutes
   => Loading Basis Set <=

    Name: (AUG-CC-PVTZ AUX)
    Role: RIFIT
    Keyword: DF_BASIS_MP2
    atoms 1-2   entry O          line   264 file /home1/07844/xy3866/miniconda3/envs/p4env/share/psi4/basis/aug-cc-pvtz-ri.gbs 
    atoms 3-11  entry C          line   148 file /home1/07844/xy3866/miniconda3/envs/p4env/share/psi4/basis/aug-cc-pvtz-ri.gbs 
    atoms 12-20 entry H          line    30 file /home1/07844/xy3866/miniconda3/envs/p4env/share/psi4/basis/aug-cc-pvtz-ri.gbs 


*** tstart() called on c419-013.stampede2.tacc.utexas.edu
*** at Sun Mar  7 00:25:36 2021


  //>>>>>>>>>>>>>>>>>>>>>>>>>>>>>>>>>>>//
  //               DFMP2               //
  //<<<<<<<<<<<<<<<<<<<<<<<<<<<<<<<<<<<//

	 --------------------------------------------------------
	                          DF-MP2                         
	      2nd-Order Density-Fitted Moller-Plesset Theory     
	              RMP2 Wavefunction,  32 Threads             
	                                                         
	        Rob Parrish, Justin Turney, Andy Simmonett,      
	           Ed Hohenstein, and C. David Sherrill          
	 --------------------------------------------------------

   => Auxiliary Basis Set <=

  Basis Set: (AUG-CC-PVTZ AUX)
    Blend: AUG-CC-PVTZ-RI
    Number of shells: 434
    Number of basis functions: 1580
    Number of Cartesian functions: 1991
    Spherical Harmonics?: true
    Max angular momentum: 4

	 --------------------------------------------------------
	                 NBF =   713, NAUX =  1580
	 --------------------------------------------------------
	   CLASS    FOCC     OCC    AOCC    AVIR     VIR    FVIR
	   PAIRS       0      40      40     673     673       0
	 --------------------------------------------------------

  DFHelper Memory: AOs need 5.829 GiB; user supplied 22.352 GiB. Using in-core AOs.


         ------------------------------------------------------------
                                     CPHF                           
                                  Rob Parrish                       
         ------------------------------------------------------------

  ==> Geometry <==

    Molecular point group: c1
    Full point group: C1

    Geometry (in Angstrom), charge = -1, multiplicity = 1:

       Center              X                  Y                   Z               Mass       
    ------------   -----------------  -----------------  -----------------  -----------------
         O           -2.430702539312    -1.438457646390    -0.518831281223    15.994914619570
         O           -2.536735539312     0.845164353610    -0.691671281223    15.994914619570
         C            0.223880460688    -0.164913646390     0.553018718777    12.000000000000
         C            0.851924660688     0.923444053610     0.172791018777    12.000000000000
         C           -1.190988539312    -0.127014646390     1.048644718777    12.000000000000
         C            0.872583460688    -1.400619646390     0.408816718777    12.000000000000
         C            2.212325460688     0.905885353610    -0.333112281223    12.000000000000
         C            0.208200460688     2.343888353610     0.218617718777    12.000000000000
         C            2.176751460688    -1.488990646390    -0.078876281223    12.000000000000
         C            2.857283460688    -0.327748646390    -0.448938281223    12.000000000000
         C           -2.171569539312    -0.254376646390    -0.183982281223    12.000000000000
         H           -1.365755539312    -0.974316646390     1.720452718777     1.007825032230
         H           -1.394446539312     0.802778353610     1.589469718777     1.007825032230
         H            0.322573460688    -2.301624646390     0.673738718777     1.007825032230
         H            2.730754460688     1.814245353610    -0.642639281223     1.007825032230
         H           -0.802227539312     2.250400353610    -0.193031281223     1.007825032230
         H            0.120396460688     2.691471353610     1.256380718777     1.007825032230
         H            0.771445460688     3.098817353610    -0.341199281223     1.007825032230
         H            2.655070460688    -2.462286646390    -0.181326281223     1.007825032230
         H            3.877131460688    -0.379977646390    -0.827617281223     1.007825032230

  Nuclear repulsion =  573.076053440583451
  Reference energy  = -495.985716510785096

  ==> Basis Set <==

  Basis Set: AUG-CC-PVTZ
    Blend: AUG-CC-PVTZ
    Number of shells: 235
    Number of basis functions: 713
    Number of Cartesian functions: 830
    Spherical Harmonics?: true
    Max angular momentum: 3

  ==> CGRSolver (by Rob Parrish) <==

   Number of roots    =         1
   Preconditioning    =    JACOBI
   Convergence cutoff =     1E-06
   Maximum iterations =       100

  ==> CPHFRHamiltonian (by Rob Parrish) <== 

  ==> MemDFJK: Density-Fitted J/K Matrices <==

    J tasked:                   Yes
    K tasked:                   Yes
    wK tasked:                   No
    OpenMP threads:              32
    Memory [MiB]:             22888
    Algorithm:                 Core
    Schwarz Cutoff:           1E-12
    Mask sparsity (%):       5.3099
    Fitting Condition:        1E-10

   => Auxiliary Basis Set <=

  Basis Set: (AUG-CC-PVTZ AUX)
    Blend: AUG-CC-PVTZ-JKFIT
    Number of shells: 456
    Number of basis functions: 1558
    Number of Cartesian functions: 1936
    Spherical Harmonics?: true
    Max angular momentum: 4

  ==> CPHF Iterations <==

  => Iterations <=

             Iter  Converged  Remaining    Residual
  CGR           1          0          1   1.111E-01
  CGR           2          0          1   3.024E-02
  CGR           3          0          1   1.398E-02
  CGR           4          0          1   5.876E-03
  CGR           5          0          1   2.920E-03
  CGR           6          0          1   1.307E-03
  CGR           7          0          1   4.161E-04
  CGR           8          0          1   1.573E-04
  CGR           9          0          1   5.744E-05
  CGR          10          0          1   2.536E-05
  CGR          11          0          1   1.133E-05
  CGR          12          0          1   5.040E-06
  CGR          13          0          1   2.308E-06
  CGR          14          1          0   6.231E-07

    CGRSolver converged.

	-----------------------------------------------------------
	 ==================> DF-MP2 Energies <==================== 
	-----------------------------------------------------------
	 Reference Energy          =    -495.9857165107850960 [Eh]
	 Singles Energy            =      -0.0000000000000000 [Eh]
	 Same-Spin Energy          =      -0.5323575321174530 [Eh]
	 Opposite-Spin Energy      =      -1.6354346031477722 [Eh]
	 Correlation Energy        =      -2.1677921352652252 [Eh]
	 Total Energy              =    -498.1535086460503408 [Eh]
	-----------------------------------------------------------
	 ================> DF-SCS-MP2 Energies <================== 
	-----------------------------------------------------------
	 SCS Same-Spin Scale       =       0.3333333333333333 [-]
	 SCS Opposite-Spin Scale   =       1.2000000000000000 [-]
	 SCS Same-Spin Energy      =      -0.1774525107058176 [Eh]
	 SCS Opposite-Spin Energy  =      -1.9625215237773266 [Eh]
	 SCS Correlation Energy    =      -2.1399740344831444 [Eh]
	 SCS Total Energy          =    -498.1256905452682417 [Eh]
	-----------------------------------------------------------



Properties will be evaluated at  -0.000000,   0.000000,   0.000000 [a0]

Properties computed using the MP2 density matrix

  Nuclear Dipole Moment: [e a0]
     X:     6.4587      Y:     4.2528      Z:     2.8574

  Electronic Dipole Moment: [e a0]
     X:    -3.0669      Y:    -3.7396      Z:    -1.6975

  Dipole Moment: [e a0]
     X:     3.3917      Y:     0.5132      Z:     1.1600     Total:     3.6212

  Dipole Moment: [D]
     X:     8.6209      Y:     1.3045      Z:     2.9483     Total:     9.2041


*** tstop() called on c419-013.stampede2.tacc.utexas.edu at Sun Mar  7 00:30:00 2021
Module time:
	user time   =    2422.77 seconds =      40.38 minutes
	system time =      71.06 seconds =       1.18 minutes
	total time  =        264 seconds =       4.40 minutes
Total time:
	user time   =    3234.41 seconds =      53.91 minutes
	system time =     125.25 seconds =       2.09 minutes
	total time  =        309 seconds =       5.15 minutes

    Psi4 stopped on: Sunday, 07 March 2021 12:30AM
    Psi4 wall time for execution: 0:05:09.98

*** Psi4 exiting successfully. Buy a developer a beer!
