
    -----------------------------------------------------------------------
          Psi4: An Open-Source Ab Initio Electronic Structure Package
                               Psi4 1.4a3.dev225 

                         Git: Rev {master} 7105e37 


    D. G. A. Smith, L. A. Burns, A. C. Simmonett, R. M. Parrish,
    M. C. Schieber, R. Galvelis, P. Kraus, H. Kruse, R. Di Remigio,
    A. Alenaizan, A. M. James, S. Lehtola, J. P. Misiewicz, M. Scheurer,
    R. A. Shaw, J. B. Schriber, Y. Xie, Z. L. Glick, D. A. Sirianni,
    J. S. O'Brien, J. M. Waldrop, A. Kumar, E. G. Hohenstein,
    B. P. Pritchard, B. R. Brooks, H. F. Schaefer III, A. Yu. Sokolov,
    K. Patkowski, A. E. DePrince III, U. Bozkaya, R. A. King,
    F. A. Evangelista, J. M. Turney, T. D. Crawford, C. D. Sherrill,
    J. Chem. Phys. 152(18) 184108 (2020). https://doi.org/10.1063/5.0006002

                            Additional Code Authors
    E. T. Seidl, C. L. Janssen, E. F. Valeev, M. L. Leininger,
    J. F. Gonthier, R. M. Richard, H. R. McAlexander, M. Saitow, X. Wang,
    P. Verma, and M. H. Lechner

             Previous Authors, Complete List of Code Contributors,
                       and Citations for Specific Modules
    https://github.com/psi4/psi4/blob/master/codemeta.json
    https://github.com/psi4/psi4/graphs/contributors
    http://psicode.org/psi4manual/master/introduction.html#citing-psifour

    -----------------------------------------------------------------------


    Psi4 started on: Sunday, 07 March 2021 02:37AM

    Process ID: 211803
    Host:       c419-013.stampede2.tacc.utexas.edu
    PSIDATADIR: /home1/07844/xy3866/miniconda3/envs/p4env/share/psi4
    Memory:     500.0 MiB
    Threads:    32
    
  ==> Input File <==

--------------------------------------------------------------------------
#psi4
#
memory 32 gb

molecule  {
-1 1
  O       -2.4775990    -1.4732410    -0.5357720
  O       -2.5836320     0.8103810    -0.7086120
  C        0.1769840    -0.1996970     0.5360780
  C        0.8528670     0.9715620     0.1268880
  C       -1.2378850    -0.1617980     1.0317040
  C        0.8256870    -1.4354030     0.3918760
  C        2.1654290     0.8711020    -0.3500530
  C        0.1613040     2.3091050     0.2016770
  C        2.1298550    -1.5237740    -0.0958170
  C        2.8103870    -0.3625320    -0.4658790
  C       -2.0943600    -0.2730406    -0.0449171
  H       -1.4126520    -1.0091000     1.7035120
  H       -1.4413430     0.7679950     1.5725290
  H        0.2756770    -2.3364080     0.6567980
  H        2.6838580     1.7794620    -0.6595800
  H       -0.8491240     2.2156170    -0.2099720
  H        0.0735000     2.6566880     1.2394400
  H        0.7245490     3.0640340    -0.3581400
  H        2.6081740    -2.4970700    -0.1982670
  H        3.8302350    -0.4147610    -0.8445580
units angstrom
no_reorient  #important for SAPT in psi4, default
symmetry c1  #important for SAPT in psi4, default
}

set PROPERTIES_ORIGIN ["COM"]
properties('MP2/aug-cc-pvtz', properties = ['dipole'])
--------------------------------------------------------------------------

  Memory set to  29.802 GiB by Python driver.
    SCF Algorithm Type (re)set to DF.

*** tstart() called on c419-013.stampede2.tacc.utexas.edu
*** at Sun Mar  7 02:37:21 2021

   => Loading Basis Set <=

    Name: AUG-CC-PVTZ
    Role: ORBITAL
    Keyword: BASIS
    atoms 1-2   entry O          line   331 file /home1/07844/xy3866/miniconda3/envs/p4env/share/psi4/basis/aug-cc-pvtz.gbs 
    atoms 3-11  entry C          line   239 file /home1/07844/xy3866/miniconda3/envs/p4env/share/psi4/basis/aug-cc-pvtz.gbs 
    atoms 12-20 entry H          line    40 file /home1/07844/xy3866/miniconda3/envs/p4env/share/psi4/basis/aug-cc-pvtz.gbs 


         ---------------------------------------------------------
                                   SCF
               by Justin Turney, Rob Parrish, Andy Simmonett
                          and Daniel G. A. Smith
                              RHF Reference
                       32 Threads,  30517 MiB Core
         ---------------------------------------------------------

  ==> Geometry <==

    Molecular point group: c1
    Full point group: C1

    Geometry (in Angstrom), charge = -1, multiplicity = 1:

       Center              X                  Y                   Z               Mass       
    ------------   -----------------  -----------------  -----------------  -----------------
         O           -2.444544844939    -1.446429244210    -0.529058844599    15.994914619570
         O           -2.550577844939     0.837192755790    -0.701898844599    15.994914619570
         C            0.210038155061    -0.172885244210     0.542791155401    12.000000000000
         C            0.885921155061     0.998373755790     0.133601155401    12.000000000000
         C           -1.204830844939    -0.134986244210     1.038417155401    12.000000000000
         C            0.858741155061    -1.408591244210     0.398589155401    12.000000000000
         C            2.198483155061     0.897913755790    -0.343339844599    12.000000000000
         C            0.194358155061     2.335916755790     0.208390155401    12.000000000000
         C            2.162909155061    -1.496962244210    -0.089103844599    12.000000000000
         C            2.843441155061    -0.335720244210    -0.459165844599    12.000000000000
         C           -2.061305844939    -0.246228844210    -0.038203944599    12.000000000000
         H           -1.379597844939    -0.982288244210     1.710225155401     1.007825032230
         H           -1.408288844939     0.794806755790     1.579242155401     1.007825032230
         H            0.308731155061    -2.309596244210     0.663511155401     1.007825032230
         H            2.716912155061     1.806273755790    -0.652866844599     1.007825032230
         H           -0.816069844939     2.242428755790    -0.203258844599     1.007825032230
         H            0.106554155061     2.683499755790     1.246153155401     1.007825032230
         H            0.757603155061     3.090845755790    -0.351426844599     1.007825032230
         H            2.641228155061    -2.470258244210    -0.191553844599     1.007825032230
         H            3.863289155061    -0.387949244210    -0.837844844599     1.007825032230

  Running in c1 symmetry.

  Rotational constants: A =      0.06292  B =      0.02919  C =      0.02227 [cm^-1]
  Rotational constants: A =   1886.19086  B =    874.96992  C =    667.62546 [MHz]
  Nuclear repulsion =  572.798100163068057

  Charge       = -1
  Multiplicity = 1
  Electrons    = 80
  Nalpha       = 40
  Nbeta        = 40

  ==> Algorithm <==

  SCF Algorithm Type is DF.
  DIIS enabled.
  MOM disabled.
  Fractional occupation disabled.
  Guess Type is SAD.
  Energy threshold   = 1.00e-10
  Density threshold  = 1.00e-10
  Integral threshold = 1.00e-12

  ==> Primary Basis <==

  Basis Set: AUG-CC-PVTZ
    Blend: AUG-CC-PVTZ
    Number of shells: 235
    Number of basis functions: 713
    Number of Cartesian functions: 830
    Spherical Harmonics?: true
    Max angular momentum: 3

   => Loading Basis Set <=

    Name: (AUG-CC-PVTZ AUX)
    Role: JKFIT
    Keyword: DF_BASIS_SCF
    atoms 1-2   entry O          line   286 file /home1/07844/xy3866/miniconda3/envs/p4env/share/psi4/basis/aug-cc-pvtz-jkfit.gbs 
    atoms 3-11  entry C          line   162 file /home1/07844/xy3866/miniconda3/envs/p4env/share/psi4/basis/aug-cc-pvtz-jkfit.gbs 
    atoms 12-20 entry H          line    70 file /home1/07844/xy3866/miniconda3/envs/p4env/share/psi4/basis/aug-cc-pvtz-jkfit.gbs 

  ==> Integral Setup <==

  DFHelper Memory: AOs need 5.620 GiB; user supplied 22.352 GiB. Using in-core AOs.

  ==> MemDFJK: Density-Fitted J/K Matrices <==

    J tasked:                   Yes
    K tasked:                   Yes
    wK tasked:                   No
    OpenMP threads:              32
    Memory [MiB]:             22888
    Algorithm:                 Core
    Schwarz Cutoff:           1E-12
    Mask sparsity (%):       8.8514
    Fitting Condition:        1E-10

   => Auxiliary Basis Set <=

  Basis Set: (AUG-CC-PVTZ AUX)
    Blend: AUG-CC-PVTZ-JKFIT
    Number of shells: 456
    Number of basis functions: 1558
    Number of Cartesian functions: 1936
    Spherical Harmonics?: true
    Max angular momentum: 4

  Minimum eigenvalue in the overlap matrix is 4.6092490852E-07.
  Reciprocal condition number of the overlap matrix is 2.2052589688E-08.
    Using symmetric orthogonalization.

  ==> Pre-Iterations <==

  SCF Guess: Superposition of Atomic Densities via on-the-fly atomic UHF (no occupation information).

   -------------------------
    Irrep   Nso     Nmo    
   -------------------------
     A        713     713 
   -------------------------
    Total     713     713
   -------------------------

  ==> Iterations <==

                           Total Energy        Delta E     RMS |[F,P]|

   @DF-RHF iter SAD:  -494.83784002471111   -4.94838e+02   0.00000e+00 
   @DF-RHF iter   1:  -495.51582716075762   -6.77987e-01   1.25244e-03 DIIS
   @DF-RHF iter   2:  -495.81928468375389   -3.03458e-01   7.91330e-04 DIIS
   @DF-RHF iter   3:  -495.93537831316542   -1.16094e-01   1.36643e-04 DIIS
   @DF-RHF iter   4:  -495.94074315472972   -5.36484e-03   5.42569e-05 DIIS
   @DF-RHF iter   5:  -495.94170081438881   -9.57660e-04   1.24098e-05 DIIS
   @DF-RHF iter   6:  -495.94175508681400   -5.42724e-05   4.84532e-06 DIIS
   @DF-RHF iter   7:  -495.94176436293276   -9.27612e-06   1.49175e-06 DIIS
   @DF-RHF iter   8:  -495.94176542714376   -1.06421e-06   5.23625e-07 DIIS
   @DF-RHF iter   9:  -495.94176557221931   -1.45076e-07   1.66922e-07 DIIS
   @DF-RHF iter  10:  -495.94176559115931   -1.89400e-08   6.29884e-08 DIIS
   @DF-RHF iter  11:  -495.94176559347636   -2.31705e-09   2.92474e-08 DIIS
   @DF-RHF iter  12:  -495.94176559400131   -5.24949e-10   1.36828e-08 DIIS
   @DF-RHF iter  13:  -495.94176559415075   -1.49441e-10   5.04021e-09 DIIS
   @DF-RHF iter  14:  -495.94176559417485   -2.41016e-11   2.62617e-09 DIIS
   @DF-RHF iter  15:  -495.94176559418088   -6.02540e-12   1.08509e-09 DIIS
   @DF-RHF iter  16:  -495.94176559418088    0.00000e+00   4.50475e-10 DIIS
   @DF-RHF iter  17:  -495.94176559418224   -1.36424e-12   1.96414e-10 DIIS
   @DF-RHF iter  18:  -495.94176559418247   -2.27374e-13   8.98278e-11 DIIS
  Energy and wave function converged.


  ==> Post-Iterations <==

    Orbital Energies [Eh]
    ---------------------

    Doubly Occupied:                                                      

       1A    -20.300721     2A    -20.300638     3A    -11.160125  
       4A    -11.126776     5A    -11.126513     6A    -11.123784  
       7A    -11.122285     8A    -11.120864     9A    -11.116583  
      10A    -11.095821    11A    -11.086087    12A     -1.128452  
      13A     -1.040796    14A     -1.018291    15A     -0.942728  
      16A     -0.920285    17A     -0.849777    18A     -0.805505  
      19A     -0.701815    20A     -0.678290    21A     -0.578917  
      22A     -0.552437    23A     -0.534191    24A     -0.510149  
      25A     -0.466489    26A     -0.457317    27A     -0.446610  
      28A     -0.440300    29A     -0.422902    30A     -0.415372  
      31A     -0.377320    32A     -0.370779    33A     -0.367213  
      34A     -0.332207    35A     -0.295666    36A     -0.238543  
      37A     -0.216243    38A     -0.201026    39A     -0.193249  
      40A     -0.181874  

    Virtual:                                                              

      41A      0.096432    42A      0.104330    43A      0.110306  
      44A      0.118870    45A      0.122476    46A      0.134163  
      47A      0.138913    48A      0.152723    49A      0.166930  
      50A      0.172943    51A      0.179687    52A      0.185474  
      53A      0.190886    54A      0.194405    55A      0.198170  
      56A      0.203374    57A      0.206094    58A      0.207606  
      59A      0.210103    60A      0.213003    61A      0.218812  
      62A      0.228852    63A      0.230355    64A      0.238353  
      65A      0.245305    66A      0.247503    67A      0.248502  
      68A      0.254471    69A      0.255797    70A      0.259586  
      71A      0.263805    72A      0.265667    73A      0.276476  
      74A      0.284770    75A      0.286471    76A      0.291270  
      77A      0.299808    78A      0.307069    79A      0.313937  
      80A      0.321123    81A      0.332619    82A      0.344012  
      83A      0.347282    84A      0.352130    85A      0.355835  
      86A      0.363329    87A      0.365626    88A      0.376578  
      89A      0.380835    90A      0.387384    91A      0.389937  
      92A      0.393088    93A      0.398010    94A      0.400683  
      95A      0.404879    96A      0.412777    97A      0.417645  
      98A      0.421496    99A      0.428235   100A      0.429493  
     101A      0.430863   102A      0.437112   103A      0.444269  
     104A      0.446719   105A      0.451512   106A      0.458383  
     107A      0.462201   108A      0.465860   109A      0.478625  
     110A      0.483425   111A      0.488643   112A      0.495274  
     113A      0.500308   114A      0.504127   115A      0.507594  
     116A      0.511532   117A      0.513583   118A      0.515360  
     119A      0.533751   120A      0.542370   121A      0.547373  
     122A      0.551235   123A      0.554472   124A      0.556180  
     125A      0.564910   126A      0.566138   127A      0.567716  
     128A      0.572304   129A      0.579558   130A      0.580526  
     131A      0.587992   132A      0.590010   133A      0.596242  
     134A      0.599311   135A      0.604359   136A      0.609014  
     137A      0.611245   138A      0.617695   139A      0.619399  
     140A      0.622269   141A      0.626447   142A      0.627895  
     143A      0.635778   144A      0.640681   145A      0.646508  
     146A      0.649358   147A      0.652320   148A      0.658961  
     149A      0.661759   150A      0.667977   151A      0.674263  
     152A      0.686622   153A      0.688061   154A      0.692120  
     155A      0.703011   156A      0.706168   157A      0.713761  
     158A      0.716316   159A      0.726027   160A      0.729664  
     161A      0.742589   162A      0.750457   163A      0.752058  
     164A      0.763693   165A      0.769648   166A      0.771704  
     167A      0.785648   168A      0.787061   169A      0.792315  
     170A      0.795916   171A      0.807132   172A      0.808988  
     173A      0.811637   174A      0.819763   175A      0.827937  
     176A      0.829055   177A      0.840326   178A      0.851498  
     179A      0.858072   180A      0.865054   181A      0.869542  
     182A      0.880755   183A      0.881125   184A      0.891431  
     185A      0.903115   186A      0.909836   187A      0.916577  
     188A      0.922048   189A      0.928945   190A      0.939443  
     191A      0.950163   192A      0.953741   193A      0.956953  
     194A      0.961469   195A      0.972337   196A      0.973910  
     197A      0.979864   198A      0.987706   199A      0.991652  
     200A      0.997535   201A      1.006745   202A      1.015170  
     203A      1.019422   204A      1.025170   205A      1.031440  
     206A      1.039788   207A      1.044199   208A      1.047022  
     209A      1.048497   210A      1.052522   211A      1.057813  
     212A      1.064119   213A      1.068564   214A      1.075179  
     215A      1.088641   216A      1.092906   217A      1.093054  
     218A      1.098064   219A      1.106753   220A      1.112919  
     221A      1.114866   222A      1.116557   223A      1.134847  
     224A      1.139205   225A      1.145194   226A      1.147227  
     227A      1.150446   228A      1.153459   229A      1.165826  
     230A      1.169280   231A      1.172650   232A      1.177852  
     233A      1.182601   234A      1.190276   235A      1.191929  
     236A      1.195518   237A      1.203164   238A      1.204794  
     239A      1.213049   240A      1.216210   241A      1.221490  
     242A      1.227092   243A      1.230875   244A      1.238973  
     245A      1.247075   246A      1.250389   247A      1.256137  
     248A      1.262191   249A      1.265741   250A      1.279382  
     251A      1.282510   252A      1.287772   253A      1.292087  
     254A      1.295931   255A      1.302293   256A      1.305668  
     257A      1.312190   258A      1.325983   259A      1.328960  
     260A      1.332493   261A      1.337798   262A      1.345651  
     263A      1.348407   264A      1.359209   265A      1.362318  
     266A      1.365378   267A      1.369243   268A      1.380474  
     269A      1.382346   270A      1.397625   271A      1.409818  
     272A      1.411714   273A      1.423741   274A      1.426453  
     275A      1.434880   276A      1.443463   277A      1.455085  
     278A      1.462248   279A      1.477160   280A      1.479993  
     281A      1.487433   282A      1.492161   283A      1.498166  
     284A      1.502466   285A      1.513160   286A      1.522749  
     287A      1.535381   288A      1.545357   289A      1.549048  
     290A      1.555224   291A      1.559193   292A      1.568827  
     293A      1.580102   294A      1.589383   295A      1.596912  
     296A      1.609970   297A      1.615954   298A      1.621430  
     299A      1.629084   300A      1.643653   301A      1.652273  
     302A      1.660370   303A      1.663747   304A      1.673544  
     305A      1.687269   306A      1.691213   307A      1.700518  
     308A      1.703016   309A      1.708551   310A      1.716154  
     311A      1.734490   312A      1.739722   313A      1.748068  
     314A      1.758586   315A      1.763098   316A      1.776221  
     317A      1.777815   318A      1.789638   319A      1.797322  
     320A      1.806283   321A      1.811953   322A      1.819272  
     323A      1.824177   324A      1.827853   325A      1.843483  
     326A      1.849397   327A      1.863246   328A      1.868485  
     329A      1.873220   330A      1.886081   331A      1.895323  
     332A      1.897369   333A      1.904362   334A      1.920746  
     335A      1.927051   336A      1.930421   337A      1.940720  
     338A      1.951424   339A      1.960862   340A      1.965540  
     341A      1.974849   342A      1.978614   343A      1.993145  
     344A      2.001319   345A      2.014702   346A      2.020127  
     347A      2.023817   348A      2.038356   349A      2.051348  
     350A      2.060221   351A      2.068422   352A      2.076613  
     353A      2.090330   354A      2.096876   355A      2.115532  
     356A      2.123026   357A      2.136735   358A      2.142481  
     359A      2.151212   360A      2.158218   361A      2.161098  
     362A      2.171733   363A      2.175402   364A      2.191159  
     365A      2.200307   366A      2.204428   367A      2.210820  
     368A      2.220358   369A      2.225818   370A      2.239693  
     371A      2.243491   372A      2.253344   373A      2.266485  
     374A      2.276796   375A      2.282723   376A      2.291442  
     377A      2.301691   378A      2.307987   379A      2.313396  
     380A      2.324936   381A      2.325441   382A      2.337882  
     383A      2.339925   384A      2.360975   385A      2.368016  
     386A      2.388704   387A      2.390250   388A      2.397684  
     389A      2.402792   390A      2.406697   391A      2.431968  
     392A      2.437258   393A      2.456157   394A      2.468308  
     395A      2.479202   396A      2.489127   397A      2.499517  
     398A      2.518694   399A      2.529574   400A      2.546152  
     401A      2.555975   402A      2.568140   403A      2.574000  
     404A      2.578699   405A      2.590867   406A      2.607444  
     407A      2.633865   408A      2.645821   409A      2.648704  
     410A      2.668556   411A      2.685291   412A      2.697139  
     413A      2.710301   414A      2.722175   415A      2.731836  
     416A      2.740784   417A      2.748329   418A      2.755492  
     419A      2.775763   420A      2.781232   421A      2.811060  
     422A      2.826957   423A      2.833334   424A      2.851003  
     425A      2.861040   426A      2.872112   427A      2.898890  
     428A      2.901326   429A      2.918842   430A      2.926126  
     431A      2.940063   432A      2.943519   433A      2.960751  
     434A      2.968193   435A      3.006592   436A      3.019153  
     437A      3.040276   438A      3.068485   439A      3.081651  
     440A      3.111327   441A      3.133432   442A      3.143735  
     443A      3.149137   444A      3.179617   445A      3.202924  
     446A      3.244903   447A      3.263359   448A      3.285058  
     449A      3.308330   450A      3.327425   451A      3.348261  
     452A      3.351268   453A      3.377873   454A      3.400569  
     455A      3.410886   456A      3.434377   457A      3.438614  
     458A      3.456890   459A      3.479739   460A      3.500661  
     461A      3.504893   462A      3.527181   463A      3.537656  
     464A      3.547128   465A      3.551448   466A      3.552848  
     467A      3.577014   468A      3.594905   469A      3.598552  
     470A      3.600147   471A      3.614415   472A      3.616817  
     473A      3.629995   474A      3.648992   475A      3.655061  
     476A      3.670776   477A      3.679968   478A      3.696417  
     479A      3.704045   480A      3.708335   481A      3.728934  
     482A      3.729968   483A      3.742319   484A      3.756847  
     485A      3.769089   486A      3.775559   487A      3.802293  
     488A      3.809057   489A      3.817836   490A      3.825083  
     491A      3.836428   492A      3.848533   493A      3.861143  
     494A      3.884327   495A      3.886933   496A      3.893398  
     497A      3.899091   498A      3.910504   499A      3.921669  
     500A      3.937508   501A      3.941299   502A      3.977291  
     503A      3.988336   504A      4.001203   505A      4.002738  
     506A      4.012556   507A      4.015238   508A      4.040445  
     509A      4.043994   510A      4.044956   511A      4.051532  
     512A      4.067909   513A      4.072635   514A      4.081460  
     515A      4.091095   516A      4.099030   517A      4.103420  
     518A      4.111884   519A      4.128725   520A      4.137775  
     521A      4.144605   522A      4.162930   523A      4.167213  
     524A      4.178188   525A      4.191262   526A      4.202633  
     527A      4.204147   528A      4.213396   529A      4.227604  
     530A      4.240756   531A      4.258703   532A      4.273126  
     533A      4.288110   534A      4.296255   535A      4.312069  
     536A      4.327524   537A      4.347028   538A      4.349788  
     539A      4.357660   540A      4.361282   541A      4.376152  
     542A      4.377663   543A      4.391828   544A      4.394934  
     545A      4.411176   546A      4.412065   547A      4.432671  
     548A      4.445134   549A      4.451737   550A      4.461525  
     551A      4.472988   552A      4.483569   553A      4.498350  
     554A      4.513312   555A      4.516502   556A      4.529749  
     557A      4.531631   558A      4.541192   559A      4.550067  
     560A      4.558612   561A      4.572428   562A      4.576011  
     563A      4.590408   564A      4.594420   565A      4.621639  
     566A      4.623383   567A      4.628208   568A      4.648525  
     569A      4.660450   570A      4.685453   571A      4.689972  
     572A      4.717836   573A      4.730738   574A      4.740006  
     575A      4.757954   576A      4.779240   577A      4.784755  
     578A      4.788981   579A      4.811079   580A      4.829700  
     581A      4.850516   582A      4.853943   583A      4.860981  
     584A      4.874397   585A      4.889430   586A      4.905028  
     587A      4.914704   588A      4.927597   589A      4.935861  
     590A      4.949970   591A      4.975504   592A      4.989085  
     593A      5.012449   594A      5.038775   595A      5.054561  
     596A      5.060559   597A      5.074831   598A      5.079324  
     599A      5.088703   600A      5.111269   601A      5.124172  
     602A      5.142866   603A      5.148274   604A      5.187856  
     605A      5.190954   606A      5.200153   607A      5.218710  
     608A      5.222955   609A      5.239814   610A      5.249670  
     611A      5.254324   612A      5.275733   613A      5.284592  
     614A      5.293717   615A      5.311038   616A      5.313888  
     617A      5.331326   618A      5.362219   619A      5.369273  
     620A      5.386861   621A      5.389057   622A      5.398311  
     623A      5.402369   624A      5.446377   625A      5.460288  
     626A      5.476220   627A      5.499642   628A      5.531609  
     629A      5.544142   630A      5.578863   631A      5.588557  
     632A      5.592623   633A      5.606023   634A      5.615394  
     635A      5.637247   636A      5.649345   637A      5.671837  
     638A      5.734205   639A      5.755513   640A      5.770118  
     641A      5.802471   642A      5.822631   643A      5.830757  
     644A      5.857245   645A      5.888840   646A      5.890879  
     647A      5.916843   648A      5.934582   649A      5.966025  
     650A      5.998714   651A      6.036338   652A      6.095191  
     653A      6.190561   654A      6.228596   655A      6.238782  
     656A      6.296807   657A      6.305406   658A      6.327829  
     659A      6.358586   660A      6.378932   661A      6.409618  
     662A      6.428113   663A      6.481059   664A      6.508692  
     665A      6.568791   666A      6.632867   667A      6.651783  
     668A      6.666709   669A      6.694206   670A      6.794839  
     671A      6.817346   672A      6.928805   673A      6.930779  
     674A      6.973310   675A      6.983598   676A      7.017813  
     677A      7.070407   678A      7.097155   679A      7.113496  
     680A      7.152686   681A      7.171378   682A      7.194428  
     683A      7.211920   684A      7.226860   685A      7.275515  
     686A      7.307689   687A      7.346498   688A      7.382209  
     689A      7.418686   690A      7.542421   691A      7.600075  
     692A      7.621893   693A      7.646611   694A      7.666944  
     695A      7.823994   696A      7.884673   697A      7.925332  
     698A      7.930954   699A      8.052264   700A      8.096653  
     701A      8.233582   702A      8.283584   703A     14.124780  
     704A     14.732401   705A     16.361222   706A     16.516290  
     707A     17.667335   708A     18.409963   709A     19.275006  
     710A     19.376366   711A     20.345845   712A     20.934554  
     713A     21.698671  

    Final Occupation by Irrep:
              A 
    DOCC [    40 ]

  @DF-RHF Final Energy:  -495.94176559418247

   => Energetics <=

    Nuclear Repulsion Energy =            572.7981001630680566
    One-Electron Energy =               -1824.7498579415591848
    Two-Electron Energy =                 756.0099921843086577
    Total Energy =                       -495.9417655941824705

Computation Completed

*** tstop() called on c419-013.stampede2.tacc.utexas.edu at Sun Mar  7 02:38:04 2021
Module time:
	user time   =     823.23 seconds =      13.72 minutes
	system time =      52.67 seconds =       0.88 minutes
	total time  =         43 seconds =       0.72 minutes
Total time:
	user time   =     823.23 seconds =      13.72 minutes
	system time =      52.67 seconds =       0.88 minutes
	total time  =         43 seconds =       0.72 minutes
   => Loading Basis Set <=

    Name: (AUG-CC-PVTZ AUX)
    Role: RIFIT
    Keyword: DF_BASIS_MP2
    atoms 1-2   entry O          line   264 file /home1/07844/xy3866/miniconda3/envs/p4env/share/psi4/basis/aug-cc-pvtz-ri.gbs 
    atoms 3-11  entry C          line   148 file /home1/07844/xy3866/miniconda3/envs/p4env/share/psi4/basis/aug-cc-pvtz-ri.gbs 
    atoms 12-20 entry H          line    30 file /home1/07844/xy3866/miniconda3/envs/p4env/share/psi4/basis/aug-cc-pvtz-ri.gbs 


*** tstart() called on c419-013.stampede2.tacc.utexas.edu
*** at Sun Mar  7 02:38:06 2021


  //>>>>>>>>>>>>>>>>>>>>>>>>>>>>>>>>>>>//
  //               DFMP2               //
  //<<<<<<<<<<<<<<<<<<<<<<<<<<<<<<<<<<<//

	 --------------------------------------------------------
	                          DF-MP2                         
	      2nd-Order Density-Fitted Moller-Plesset Theory     
	              RMP2 Wavefunction,  32 Threads             
	                                                         
	        Rob Parrish, Justin Turney, Andy Simmonett,      
	           Ed Hohenstein, and C. David Sherrill          
	 --------------------------------------------------------

   => Auxiliary Basis Set <=

  Basis Set: (AUG-CC-PVTZ AUX)
    Blend: AUG-CC-PVTZ-RI
    Number of shells: 434
    Number of basis functions: 1580
    Number of Cartesian functions: 1991
    Spherical Harmonics?: true
    Max angular momentum: 4

	 --------------------------------------------------------
	                 NBF =   713, NAUX =  1580
	 --------------------------------------------------------
	   CLASS    FOCC     OCC    AOCC    AVIR     VIR    FVIR
	   PAIRS       0      40      40     673     673       0
	 --------------------------------------------------------

  DFHelper Memory: AOs need 5.832 GiB; user supplied 22.352 GiB. Using in-core AOs.


         ------------------------------------------------------------
                                     CPHF                           
                                  Rob Parrish                       
         ------------------------------------------------------------

  ==> Geometry <==

    Molecular point group: c1
    Full point group: C1

    Geometry (in Angstrom), charge = -1, multiplicity = 1:

       Center              X                  Y                   Z               Mass       
    ------------   -----------------  -----------------  -----------------  -----------------
         O           -2.444544844939    -1.446429244210    -0.529058844599    15.994914619570
         O           -2.550577844939     0.837192755790    -0.701898844599    15.994914619570
         C            0.210038155061    -0.172885244210     0.542791155401    12.000000000000
         C            0.885921155061     0.998373755790     0.133601155401    12.000000000000
         C           -1.204830844939    -0.134986244210     1.038417155401    12.000000000000
         C            0.858741155061    -1.408591244210     0.398589155401    12.000000000000
         C            2.198483155061     0.897913755790    -0.343339844599    12.000000000000
         C            0.194358155061     2.335916755790     0.208390155401    12.000000000000
         C            2.162909155061    -1.496962244210    -0.089103844599    12.000000000000
         C            2.843441155061    -0.335720244210    -0.459165844599    12.000000000000
         C           -2.061305844939    -0.246228844210    -0.038203944599    12.000000000000
         H           -1.379597844939    -0.982288244210     1.710225155401     1.007825032230
         H           -1.408288844939     0.794806755790     1.579242155401     1.007825032230
         H            0.308731155061    -2.309596244210     0.663511155401     1.007825032230
         H            2.716912155061     1.806273755790    -0.652866844599     1.007825032230
         H           -0.816069844939     2.242428755790    -0.203258844599     1.007825032230
         H            0.106554155061     2.683499755790     1.246153155401     1.007825032230
         H            0.757603155061     3.090845755790    -0.351426844599     1.007825032230
         H            2.641228155061    -2.470258244210    -0.191553844599     1.007825032230
         H            3.863289155061    -0.387949244210    -0.837844844599     1.007825032230

  Nuclear repulsion =  572.798100163068057
  Reference energy  = -495.941765594182471

  ==> Basis Set <==

  Basis Set: AUG-CC-PVTZ
    Blend: AUG-CC-PVTZ
    Number of shells: 235
    Number of basis functions: 713
    Number of Cartesian functions: 830
    Spherical Harmonics?: true
    Max angular momentum: 3

  ==> CGRSolver (by Rob Parrish) <==

   Number of roots    =         1
   Preconditioning    =    JACOBI
   Convergence cutoff =     1E-06
   Maximum iterations =       100

  ==> CPHFRHamiltonian (by Rob Parrish) <== 

  ==> MemDFJK: Density-Fitted J/K Matrices <==

    J tasked:                   Yes
    K tasked:                   Yes
    wK tasked:                   No
    OpenMP threads:              32
    Memory [MiB]:             22888
    Algorithm:                 Core
    Schwarz Cutoff:           1E-12
    Mask sparsity (%):       5.2729
    Fitting Condition:        1E-10

   => Auxiliary Basis Set <=

  Basis Set: (AUG-CC-PVTZ AUX)
    Blend: AUG-CC-PVTZ-JKFIT
    Number of shells: 456
    Number of basis functions: 1558
    Number of Cartesian functions: 1936
    Spherical Harmonics?: true
    Max angular momentum: 4

  ==> CPHF Iterations <==

  => Iterations <=

             Iter  Converged  Remaining    Residual
  CGR           1          0          1   1.335E-01
  CGR           2          0          1   4.334E-02
  CGR           3          0          1   2.003E-02
  CGR           4          0          1   6.780E-03
  CGR           5          0          1   2.880E-03
  CGR           6          0          1   1.348E-03
  CGR           7          0          1   5.754E-04
  CGR           8          0          1   2.880E-04
  CGR           9          0          1   1.260E-04
  CGR          10          0          1   4.868E-05
  CGR          11          0          1   1.464E-05
  CGR          12          0          1   4.192E-06
  CGR          13          0          1   1.642E-06
  CGR          14          1          0   5.523E-07

    CGRSolver converged.

	-----------------------------------------------------------
	 ==================> DF-MP2 Energies <==================== 
	-----------------------------------------------------------
	 Reference Energy          =    -495.9417655941824705 [Eh]
	 Singles Energy            =      -0.0000000000000000 [Eh]
	 Same-Spin Energy          =      -0.5378819606951402 [Eh]
	 Opposite-Spin Energy      =      -1.6461898722530797 [Eh]
	 Correlation Energy        =      -2.1840718329482200 [Eh]
	 Total Energy              =    -498.1258374271307048 [Eh]
	-----------------------------------------------------------
	 ================> DF-SCS-MP2 Energies <================== 
	-----------------------------------------------------------
	 SCS Same-Spin Scale       =       0.3333333333333333 [-]
	 SCS Opposite-Spin Scale   =       1.2000000000000000 [-]
	 SCS Same-Spin Energy      =      -0.1792939868983801 [Eh]
	 SCS Opposite-Spin Energy  =      -1.9754278467036954 [Eh]
	 SCS Correlation Energy    =      -2.1547218336020753 [Eh]
	 SCS Total Energy          =    -498.0964874277845524 [Eh]
	-----------------------------------------------------------



Properties will be evaluated at  -0.000000,   0.000000,   0.000000 [a0]

Properties computed using the MP2 density matrix

  Nuclear Dipole Moment: [e a0]
     X:     6.3418      Y:     4.1855      Z:     2.7710

  Electronic Dipole Moment: [e a0]
     X:    -2.5515      Y:    -3.5969      Z:    -1.3274

  Dipole Moment: [e a0]
     X:     3.7903      Y:     0.5886      Z:     1.4437     Total:     4.0984

  Dipole Moment: [D]
     X:     9.6340      Y:     1.4960      Z:     3.6694     Total:    10.4171


*** tstop() called on c419-013.stampede2.tacc.utexas.edu at Sun Mar  7 02:42:30 2021
Module time:
	user time   =    2446.17 seconds =      40.77 minutes
	system time =      71.19 seconds =       1.19 minutes
	total time  =        264 seconds =       4.40 minutes
Total time:
	user time   =    3270.40 seconds =      54.51 minutes
	system time =     123.88 seconds =       2.06 minutes
	total time  =        309 seconds =       5.15 minutes

    Psi4 stopped on: Sunday, 07 March 2021 02:42AM
    Psi4 wall time for execution: 0:05:10.24

*** Psi4 exiting successfully. Buy a developer a beer!
