
    -----------------------------------------------------------------------
          Psi4: An Open-Source Ab Initio Electronic Structure Package
                               Psi4 1.4a3.dev225 

                         Git: Rev {master} 7105e37 


    D. G. A. Smith, L. A. Burns, A. C. Simmonett, R. M. Parrish,
    M. C. Schieber, R. Galvelis, P. Kraus, H. Kruse, R. Di Remigio,
    A. Alenaizan, A. M. James, S. Lehtola, J. P. Misiewicz, M. Scheurer,
    R. A. Shaw, J. B. Schriber, Y. Xie, Z. L. Glick, D. A. Sirianni,
    J. S. O'Brien, J. M. Waldrop, A. Kumar, E. G. Hohenstein,
    B. P. Pritchard, B. R. Brooks, H. F. Schaefer III, A. Yu. Sokolov,
    K. Patkowski, A. E. DePrince III, U. Bozkaya, R. A. King,
    F. A. Evangelista, J. M. Turney, T. D. Crawford, C. D. Sherrill,
    J. Chem. Phys. 152(18) 184108 (2020). https://doi.org/10.1063/5.0006002

                            Additional Code Authors
    E. T. Seidl, C. L. Janssen, E. F. Valeev, M. L. Leininger,
    J. F. Gonthier, R. M. Richard, H. R. McAlexander, M. Saitow, X. Wang,
    P. Verma, and M. H. Lechner

             Previous Authors, Complete List of Code Contributors,
                       and Citations for Specific Modules
    https://github.com/psi4/psi4/blob/master/codemeta.json
    https://github.com/psi4/psi4/graphs/contributors
    http://psicode.org/psi4manual/master/introduction.html#citing-psifour

    -----------------------------------------------------------------------


    Psi4 started on: Sunday, 07 March 2021 01:01AM

    Process ID: 196606
    Host:       c419-013.stampede2.tacc.utexas.edu
    PSIDATADIR: /home1/07844/xy3866/miniconda3/envs/p4env/share/psi4
    Memory:     500.0 MiB
    Threads:    32
    
  ==> Input File <==

--------------------------------------------------------------------------
#psi4
#
memory 32 gb

molecule  {
-1 1
  O       -2.4775990    -1.4732410    -0.5357720
  O       -2.5836320     0.8103810    -0.7086120
  C        0.1769840    -0.1996970     0.5360780
  C        0.7290307     1.0452762     0.1600617
  C       -1.2378850    -0.1617980     1.0317040
  C        0.8256870    -1.4354030     0.3918760
  C        2.1654290     0.8711020    -0.3500530
  C        0.1613040     2.3091050     0.2016770
  C        2.1298550    -1.5237740    -0.0958170
  C        2.8103870    -0.3625320    -0.4658790
  C       -2.2184660    -0.2891600    -0.2009230
  H       -1.4126520    -1.0091000     1.7035120
  H       -1.4413430     0.7679950     1.5725290
  H        0.2756770    -2.3364080     0.6567980
  H        2.6838580     1.7794620    -0.6595800
  H       -0.8491240     2.2156170    -0.2099720
  H        0.0735000     2.6566880     1.2394400
  H        0.7245490     3.0640340    -0.3581400
  H        2.6081740    -2.4970700    -0.1982670
  H        3.8302350    -0.4147610    -0.8445580
units angstrom
no_reorient  #important for SAPT in psi4, default
symmetry c1  #important for SAPT in psi4, default
}

set PROPERTIES_ORIGIN ["COM"]
properties('MP2/aug-cc-pvtz', properties = ['dipole'])
--------------------------------------------------------------------------

  Memory set to  29.802 GiB by Python driver.
    SCF Algorithm Type (re)set to DF.

*** tstart() called on c419-013.stampede2.tacc.utexas.edu
*** at Sun Mar  7 01:02:03 2021

   => Loading Basis Set <=

    Name: AUG-CC-PVTZ
    Role: ORBITAL
    Keyword: BASIS
    atoms 1-2   entry O          line   331 file /home1/07844/xy3866/miniconda3/envs/p4env/share/psi4/basis/aug-cc-pvtz.gbs 
    atoms 3-11  entry C          line   239 file /home1/07844/xy3866/miniconda3/envs/p4env/share/psi4/basis/aug-cc-pvtz.gbs 
    atoms 12-20 entry H          line    40 file /home1/07844/xy3866/miniconda3/envs/p4env/share/psi4/basis/aug-cc-pvtz.gbs 


         ---------------------------------------------------------
                                   SCF
               by Justin Turney, Rob Parrish, Andy Simmonett
                          and Daniel G. A. Smith
                              RHF Reference
                       32 Threads,  30517 MiB Core
         ---------------------------------------------------------

  ==> Geometry <==

    Molecular point group: c1
    Full point group: C1

    Geometry (in Angstrom), charge = -1, multiplicity = 1:

       Center              X                  Y                   Z               Mass       
    ------------   -----------------  -----------------  -----------------  -----------------
         O           -2.424584409413    -1.451065876571    -0.519170317274    15.994914619570
         O           -2.530617409413     0.832556123429    -0.692010317274    15.994914619570
         C            0.229998590587    -0.177521876571     0.552679682726    12.000000000000
         C            0.782045290587     1.067451323429     0.176663382726    12.000000000000
         C           -1.184870409413    -0.139622876571     1.048305682726    12.000000000000
         C            0.878701590587    -1.413227876571     0.408477682726    12.000000000000
         C            2.218443590587     0.893277123429    -0.333451317274    12.000000000000
         C            0.214318590587     2.331280123429     0.218278682726    12.000000000000
         C            2.182869590587    -1.501598876571    -0.079215317274    12.000000000000
         C            2.863401590587    -0.340356876571    -0.449277317274    12.000000000000
         C           -2.165451409413    -0.266984876571    -0.184321317274    12.000000000000
         H           -1.359637409413    -0.986924876571     1.720113682726     1.007825032230
         H           -1.388328409413     0.790170123429     1.589130682726     1.007825032230
         H            0.328691590587    -2.314232876571     0.673399682726     1.007825032230
         H            2.736872590587     1.801637123429    -0.642978317274     1.007825032230
         H           -0.796109409413     2.237792123429    -0.193370317274     1.007825032230
         H            0.126514590587     2.678863123429     1.256041682726     1.007825032230
         H            0.777563590587     3.086209123429    -0.341538317274     1.007825032230
         H            2.661188590587    -2.474894876571    -0.181665317274     1.007825032230
         H            3.883249590587    -0.392585876571    -0.827956317274     1.007825032230

  Running in c1 symmetry.

  Rotational constants: A =      0.06237  B =      0.02897  C =      0.02210 [cm^-1]
  Rotational constants: A =   1869.90348  B =    868.42954  C =    662.47786 [MHz]
  Nuclear repulsion =  571.814687183212868

  Charge       = -1
  Multiplicity = 1
  Electrons    = 80
  Nalpha       = 40
  Nbeta        = 40

  ==> Algorithm <==

  SCF Algorithm Type is DF.
  DIIS enabled.
  MOM disabled.
  Fractional occupation disabled.
  Guess Type is SAD.
  Energy threshold   = 1.00e-10
  Density threshold  = 1.00e-10
  Integral threshold = 1.00e-12

  ==> Primary Basis <==

  Basis Set: AUG-CC-PVTZ
    Blend: AUG-CC-PVTZ
    Number of shells: 235
    Number of basis functions: 713
    Number of Cartesian functions: 830
    Spherical Harmonics?: true
    Max angular momentum: 3

   => Loading Basis Set <=

    Name: (AUG-CC-PVTZ AUX)
    Role: JKFIT
    Keyword: DF_BASIS_SCF
    atoms 1-2   entry O          line   286 file /home1/07844/xy3866/miniconda3/envs/p4env/share/psi4/basis/aug-cc-pvtz-jkfit.gbs 
    atoms 3-11  entry C          line   162 file /home1/07844/xy3866/miniconda3/envs/p4env/share/psi4/basis/aug-cc-pvtz-jkfit.gbs 
    atoms 12-20 entry H          line    70 file /home1/07844/xy3866/miniconda3/envs/p4env/share/psi4/basis/aug-cc-pvtz-jkfit.gbs 

  ==> Integral Setup <==

  DFHelper Memory: AOs need 5.617 GiB; user supplied 22.352 GiB. Using in-core AOs.

  ==> MemDFJK: Density-Fitted J/K Matrices <==

    J tasked:                   Yes
    K tasked:                   Yes
    wK tasked:                   No
    OpenMP threads:              32
    Memory [MiB]:             22888
    Algorithm:                 Core
    Schwarz Cutoff:           1E-12
    Mask sparsity (%):       8.9152
    Fitting Condition:        1E-10

   => Auxiliary Basis Set <=

  Basis Set: (AUG-CC-PVTZ AUX)
    Blend: AUG-CC-PVTZ-JKFIT
    Number of shells: 456
    Number of basis functions: 1558
    Number of Cartesian functions: 1936
    Spherical Harmonics?: true
    Max angular momentum: 4

  Minimum eigenvalue in the overlap matrix is 5.2386414849E-07.
  Reciprocal condition number of the overlap matrix is 2.5160623644E-08.
    Using symmetric orthogonalization.

  ==> Pre-Iterations <==

  SCF Guess: Superposition of Atomic Densities via on-the-fly atomic UHF (no occupation information).

   -------------------------
    Irrep   Nso     Nmo    
   -------------------------
     A        713     713 
   -------------------------
    Total     713     713
   -------------------------

  ==> Iterations <==

                           Total Energy        Delta E     RMS |[F,P]|

   @DF-RHF iter SAD:  -494.87831079211901   -4.94878e+02   0.00000e+00 
   @DF-RHF iter   1:  -495.55356010017226   -6.75249e-01   1.23692e-03 DIIS
   @DF-RHF iter   2:  -495.86425774000492   -3.10698e-01   7.12543e-04 DIIS
   @DF-RHF iter   3:  -495.96240978963380   -9.81520e-02   1.10566e-04 DIIS
   @DF-RHF iter   4:  -495.96667173030022   -4.26194e-03   4.28301e-05 DIIS
   @DF-RHF iter   5:  -495.96728279497563   -6.11065e-04   8.47272e-06 DIIS
   @DF-RHF iter   6:  -495.96731722295698   -3.44280e-05   2.95965e-06 DIIS
   @DF-RHF iter   7:  -495.96732210829430   -4.88534e-06   1.10244e-06 DIIS
   @DF-RHF iter   8:  -495.96732309708995   -9.88796e-07   4.80607e-07 DIIS
   @DF-RHF iter   9:  -495.96732338924778   -2.92158e-07   2.84320e-07 DIIS
   @DF-RHF iter  10:  -495.96732350340682   -1.14159e-07   1.09499e-07 DIIS
   @DF-RHF iter  11:  -495.96732352670864   -2.33018e-08   3.90388e-08 DIIS
   @DF-RHF iter  12:  -495.96732352842940   -1.72076e-09   1.77037e-08 DIIS
   @DF-RHF iter  13:  -495.96732352864274   -2.13333e-10   6.54915e-09 DIIS
   @DF-RHF iter  14:  -495.96732352867821   -3.54703e-11   2.92015e-09 DIIS
   @DF-RHF iter  15:  -495.96732352868855   -1.03455e-11   1.45376e-09 DIIS
   @DF-RHF iter  16:  -495.96732352868963   -1.08002e-12   7.05301e-10 DIIS
   @DF-RHF iter  17:  -495.96732352869202   -2.38742e-12   3.10588e-10 DIIS
   @DF-RHF iter  18:  -495.96732352869122    7.95808e-13   1.14062e-10 DIIS
   @DF-RHF iter  19:  -495.96732352869179   -5.68434e-13   4.18465e-11 DIIS
  Energy and wave function converged.


  ==> Post-Iterations <==

    Orbital Energies [Eh]
    ---------------------

    Doubly Occupied:                                                      

       1A    -20.308818     2A    -20.308007     3A    -11.155583  
       4A    -11.126546     5A    -11.125535     6A    -11.118857  
       7A    -11.115579     8A    -11.111661     9A    -11.109500  
      10A    -11.089905    11A    -11.069744    12A     -1.178541  
      13A     -1.082769    14A     -1.025852    15A     -0.943329  
      16A     -0.905067    17A     -0.828626    18A     -0.780894  
      19A     -0.691497    20A     -0.652741    21A     -0.560954  
      22A     -0.533646    23A     -0.523910    24A     -0.507528  
      25A     -0.470808    26A     -0.450048    27A     -0.448333  
      28A     -0.431969    29A     -0.426905    30A     -0.415757  
      31A     -0.392895    32A     -0.365569    33A     -0.361600  
      34A     -0.356598    35A     -0.316472    36A     -0.236044  
      37A     -0.224728    38A     -0.209956    39A     -0.195013  
      40A     -0.173563  

    Virtual:                                                              

      41A      0.098741    42A      0.105565    43A      0.111573  
      44A      0.120406    45A      0.123934    46A      0.134631  
      47A      0.139818    48A      0.152417    49A      0.166071  
      50A      0.175116    51A      0.181441    52A      0.187496  
      53A      0.193208    54A      0.197471    55A      0.199361  
      56A      0.206340    57A      0.207376    58A      0.209132  
      59A      0.210953    60A      0.214666    61A      0.220730  
      62A      0.231992    63A      0.232224    64A      0.236952  
      65A      0.243714    66A      0.246498    67A      0.248288  
      68A      0.254540    69A      0.258679    70A      0.262541  
      71A      0.263574    72A      0.266920    73A      0.275141  
      74A      0.283463    75A      0.288329    76A      0.294324  
      77A      0.301630    78A      0.309727    79A      0.312703  
      80A      0.322414    81A      0.333112    82A      0.347488  
      83A      0.350457    84A      0.354665    85A      0.360996  
      86A      0.367504    87A      0.374626    88A      0.379155  
      89A      0.382995    90A      0.386474    91A      0.388985  
      92A      0.392429    93A      0.400321    94A      0.402043  
      95A      0.403266    96A      0.415270    97A      0.419523  
      98A      0.419901    99A      0.425615   100A      0.430256  
     101A      0.436914   102A      0.440333   103A      0.445264  
     104A      0.448998   105A      0.454184   106A      0.460817  
     107A      0.464339   108A      0.468398   109A      0.482529  
     110A      0.485378   111A      0.490217   112A      0.496740  
     113A      0.502458   114A      0.503862   115A      0.508682  
     116A      0.510240   117A      0.513766   118A      0.521310  
     119A      0.535274   120A      0.541547   121A      0.546391  
     122A      0.549473   123A      0.552545   124A      0.558301  
     125A      0.567179   126A      0.571269   127A      0.571923  
     128A      0.575768   129A      0.579901   130A      0.584694  
     131A      0.588054   132A      0.595185   133A      0.595926  
     134A      0.602424   135A      0.605129   136A      0.610880  
     137A      0.615245   138A      0.618297   139A      0.621137  
     140A      0.625912   141A      0.627316   142A      0.636702  
     143A      0.636974   144A      0.640019   145A      0.648667  
     146A      0.651348   147A      0.655336   148A      0.663111  
     149A      0.665086   150A      0.672001   151A      0.680372  
     152A      0.685003   153A      0.692411   154A      0.696970  
     155A      0.704377   156A      0.707732   157A      0.708822  
     158A      0.722376   159A      0.726484   160A      0.735429  
     161A      0.744007   162A      0.750107   163A      0.756737  
     164A      0.767525   165A      0.771592   166A      0.773602  
     167A      0.779297   168A      0.786301   169A      0.787085  
     170A      0.801402   171A      0.801831   172A      0.808168  
     173A      0.818499   174A      0.825628   175A      0.829868  
     176A      0.832938   177A      0.835551   178A      0.848894  
     179A      0.856149   180A      0.863160   181A      0.871542  
     182A      0.879543   183A      0.890407   184A      0.901163  
     185A      0.904659   186A      0.911552   187A      0.913937  
     188A      0.922464   189A      0.935644   190A      0.939953  
     191A      0.943676   192A      0.946100   193A      0.950321  
     194A      0.962877   195A      0.971249   196A      0.976794  
     197A      0.980428   198A      0.989037   199A      0.994942  
     200A      1.004235   201A      1.010136   202A      1.014462  
     203A      1.019174   204A      1.028807   205A      1.029622  
     206A      1.035223   207A      1.040601   208A      1.044933  
     209A      1.048819   210A      1.050225   211A      1.058713  
     212A      1.064307   213A      1.071631   214A      1.077848  
     215A      1.087673   216A      1.091872   217A      1.100104  
     218A      1.102664   219A      1.106462   220A      1.114970  
     221A      1.120802   222A      1.129804   223A      1.132893  
     224A      1.139211   225A      1.145094   226A      1.151585  
     227A      1.156412   228A      1.160974   229A      1.167074  
     230A      1.173353   231A      1.177199   232A      1.181741  
     233A      1.184458   234A      1.188083   235A      1.192781  
     236A      1.196257   237A      1.204398   238A      1.208510  
     239A      1.215220   240A      1.223441   241A      1.226550  
     242A      1.229384   243A      1.235216   244A      1.239133  
     245A      1.243975   246A      1.252087   247A      1.258556  
     248A      1.266687   249A      1.274918   250A      1.281241  
     251A      1.283666   252A      1.291266   253A      1.291972  
     254A      1.299562   255A      1.302214   256A      1.309598  
     257A      1.314647   258A      1.325105   259A      1.329975  
     260A      1.334005   261A      1.343048   262A      1.345120  
     263A      1.348742   264A      1.360895   265A      1.361182  
     266A      1.366744   267A      1.375410   268A      1.383364  
     269A      1.386631   270A      1.394593   271A      1.406937  
     272A      1.418949   273A      1.422657   274A      1.423910  
     275A      1.437454   276A      1.447244   277A      1.456941  
     278A      1.471493   279A      1.478015   280A      1.483967  
     281A      1.490870   282A      1.495027   283A      1.503795  
     284A      1.509421   285A      1.516302   286A      1.524636  
     287A      1.530702   288A      1.544883   289A      1.550549  
     290A      1.557071   291A      1.564163   292A      1.565846  
     293A      1.575258   294A      1.593831   295A      1.597638  
     296A      1.608404   297A      1.615349   298A      1.622882  
     299A      1.640515   300A      1.644963   301A      1.655013  
     302A      1.662624   303A      1.665103   304A      1.679132  
     305A      1.683966   306A      1.691341   307A      1.696737  
     308A      1.707816   309A      1.711712   310A      1.726305  
     311A      1.731817   312A      1.737678   313A      1.746630  
     314A      1.758315   315A      1.768847   316A      1.776620  
     317A      1.782615   318A      1.793259   319A      1.798538  
     320A      1.803777   321A      1.813460   322A      1.817011  
     323A      1.820197   324A      1.831193   325A      1.843764  
     326A      1.846037   327A      1.852953   328A      1.864320  
     329A      1.883541   330A      1.885385   331A      1.896635  
     332A      1.902321   333A      1.913397   334A      1.916514  
     335A      1.923328   336A      1.937775   337A      1.944553  
     338A      1.953572   339A      1.964043   340A      1.968026  
     341A      1.977083   342A      1.984344   343A      1.990944  
     344A      2.004999   345A      2.011497   346A      2.014942  
     347A      2.018883   348A      2.033201   349A      2.044430  
     350A      2.049594   351A      2.058967   352A      2.074250  
     353A      2.081415   354A      2.085739   355A      2.090947  
     356A      2.122234   357A      2.127812   358A      2.135752  
     359A      2.146224   360A      2.157756   361A      2.168417  
     362A      2.172285   363A      2.177842   364A      2.184519  
     365A      2.192043   366A      2.198790   367A      2.212182  
     368A      2.219132   369A      2.227309   370A      2.237944  
     371A      2.245209   372A      2.248692   373A      2.258110  
     374A      2.270803   375A      2.273759   376A      2.281727  
     377A      2.288689   378A      2.297152   379A      2.303161  
     380A      2.314277   381A      2.328731   382A      2.339791  
     383A      2.344652   384A      2.352372   385A      2.366553  
     386A      2.379503   387A      2.393859   388A      2.397089  
     389A      2.403808   390A      2.415553   391A      2.429017  
     392A      2.434891   393A      2.447476   394A      2.461467  
     395A      2.470555   396A      2.480551   397A      2.495409  
     398A      2.514387   399A      2.533750   400A      2.534443  
     401A      2.541953   402A      2.559818   403A      2.578285  
     404A      2.586434   405A      2.589717   406A      2.600703  
     407A      2.615341   408A      2.631520   409A      2.645451  
     410A      2.653153   411A      2.691374   412A      2.702401  
     413A      2.713719   414A      2.722721   415A      2.726684  
     416A      2.738576   417A      2.747661   418A      2.760429  
     419A      2.766152   420A      2.783720   421A      2.794425  
     422A      2.813650   423A      2.830785   424A      2.847478  
     425A      2.858724   426A      2.882220   427A      2.891906  
     428A      2.899477   429A      2.915484   430A      2.928819  
     431A      2.945689   432A      2.959374   433A      2.964827  
     434A      2.975424   435A      2.984626   436A      3.006779  
     437A      3.025852   438A      3.060972   439A      3.084617  
     440A      3.114331   441A      3.143027   442A      3.146328  
     443A      3.176633   444A      3.189550   445A      3.208158  
     446A      3.265209   447A      3.277938   448A      3.286146  
     449A      3.295775   450A      3.320858   451A      3.349433  
     452A      3.369764   453A      3.389725   454A      3.396503  
     455A      3.414390   456A      3.429479   457A      3.437998  
     458A      3.463203   459A      3.482662   460A      3.494571  
     461A      3.517666   462A      3.520351   463A      3.534982  
     464A      3.544650   465A      3.563161   466A      3.568201  
     467A      3.569785   468A      3.594642   469A      3.602184  
     470A      3.607746   471A      3.619683   472A      3.626306  
     473A      3.636981   474A      3.649247   475A      3.656297  
     476A      3.669717   477A      3.671885   478A      3.696822  
     479A      3.717854   480A      3.723988   481A      3.732126  
     482A      3.744115   483A      3.757292   484A      3.766109  
     485A      3.779729   486A      3.792241   487A      3.799117  
     488A      3.809788   489A      3.810304   490A      3.847238  
     491A      3.853070   492A      3.861525   493A      3.869584  
     494A      3.878289   495A      3.886617   496A      3.896688  
     497A      3.902743   498A      3.917186   499A      3.929179  
     500A      3.935034   501A      3.941264   502A      3.972749  
     503A      3.974902   504A      3.989971   505A      3.995241  
     506A      4.006761   507A      4.023190   508A      4.029966  
     509A      4.034767   510A      4.046899   511A      4.054181  
     512A      4.069306   513A      4.070876   514A      4.089993  
     515A      4.099065   516A      4.102081   517A      4.112820  
     518A      4.116004   519A      4.132638   520A      4.144284  
     521A      4.148015   522A      4.166803   523A      4.177198  
     524A      4.182491   525A      4.188879   526A      4.202866  
     527A      4.220034   528A      4.221959   529A      4.235079  
     530A      4.239432   531A      4.278890   532A      4.291238  
     533A      4.297265   534A      4.301141   535A      4.310712  
     536A      4.322486   537A      4.346809   538A      4.350407  
     539A      4.359191   540A      4.366639   541A      4.369763  
     542A      4.377691   543A      4.384345   544A      4.387823  
     545A      4.400670   546A      4.419673   547A      4.422009  
     548A      4.434747   549A      4.441446   550A      4.455611  
     551A      4.470271   552A      4.478634   553A      4.486662  
     554A      4.495138   555A      4.506148   556A      4.521713  
     557A      4.531731   558A      4.539884   559A      4.552543  
     560A      4.567267   561A      4.573914   562A      4.583995  
     563A      4.592550   564A      4.599422   565A      4.615491  
     566A      4.639099   567A      4.642628   568A      4.645239  
     569A      4.658454   570A      4.675524   571A      4.695784  
     572A      4.698252   573A      4.723507   574A      4.737255  
     575A      4.747488   576A      4.770747   577A      4.777404  
     578A      4.803497   579A      4.811010   580A      4.833349  
     581A      4.841577   582A      4.853448   583A      4.868041  
     584A      4.876618   585A      4.894799   586A      4.909673  
     587A      4.913936   588A      4.926920   589A      4.946619  
     590A      4.950967   591A      4.965481   592A      4.975691  
     593A      4.984929   594A      5.000197   595A      5.020393  
     596A      5.056143   597A      5.064666   598A      5.074117  
     599A      5.085668   600A      5.105166   601A      5.115743  
     602A      5.135829   603A      5.144219   604A      5.161950  
     605A      5.171826   606A      5.182255   607A      5.201084  
     608A      5.220644   609A      5.228964   610A      5.240038  
     611A      5.254553   612A      5.274532   613A      5.293909  
     614A      5.309560   615A      5.325796   616A      5.338153  
     617A      5.348959   618A      5.367085   619A      5.383519  
     620A      5.395467   621A      5.403929   622A      5.422569  
     623A      5.427466   624A      5.460652   625A      5.468302  
     626A      5.484212   627A      5.487788   628A      5.533449  
     629A      5.559246   630A      5.567895   631A      5.572962  
     632A      5.586124   633A      5.617290   634A      5.623012  
     635A      5.641620   636A      5.669384   637A      5.691845  
     638A      5.730289   639A      5.743160   640A      5.767663  
     641A      5.784670   642A      5.810258   643A      5.829713  
     644A      5.839567   645A      5.851755   646A      5.884087  
     647A      5.909155   648A      5.928333   649A      5.948241  
     650A      5.985751   651A      6.049990   652A      6.057785  
     653A      6.168516   654A      6.190462   655A      6.250047  
     656A      6.256755   657A      6.295719   658A      6.317300  
     659A      6.325040   660A      6.382334   661A      6.400839  
     662A      6.413712   663A      6.455287   664A      6.481663  
     665A      6.527804   666A      6.574877   667A      6.637843  
     668A      6.709147   669A      6.741911   670A      6.760323  
     671A      6.779643   672A      6.908618   673A      6.923236  
     674A      6.964078   675A      6.971848   676A      7.018729  
     677A      7.027744   678A      7.062735   679A      7.127425  
     680A      7.135270   681A      7.185175   682A      7.200722  
     683A      7.220521   684A      7.222218   685A      7.305623  
     686A      7.310785   687A      7.339380   688A      7.433627  
     689A      7.468318   690A      7.573935   691A      7.610388  
     692A      7.631937   693A      7.663137   694A      7.825859  
     695A      7.844761   696A      7.927104   697A      7.937868  
     698A      7.985510   699A      8.098164   700A      8.107287  
     701A      8.241965   702A      8.295435   703A     15.334726  
     704A     15.464462   705A     16.180916   706A     16.829884  
     707A     17.419442   708A     18.365792   709A     19.035923  
     710A     19.356499   711A     19.944203   712A     20.664873  
     713A     21.188895  

    Final Occupation by Irrep:
              A 
    DOCC [    40 ]

  @DF-RHF Final Energy:  -495.96732352869179

   => Energetics <=

    Nuclear Repulsion Energy =            571.8146871832128681
    One-Electron Energy =               -1822.9013230762548119
    Two-Electron Energy =                 755.1193123643503213
    Total Energy =                       -495.9673235286917361

Computation Completed

*** tstop() called on c419-013.stampede2.tacc.utexas.edu at Sun Mar  7 01:02:46 2021
Module time:
	user time   =     834.79 seconds =      13.91 minutes
	system time =      55.27 seconds =       0.92 minutes
	total time  =         43 seconds =       0.72 minutes
Total time:
	user time   =     834.79 seconds =      13.91 minutes
	system time =      55.27 seconds =       0.92 minutes
	total time  =         43 seconds =       0.72 minutes
   => Loading Basis Set <=

    Name: (AUG-CC-PVTZ AUX)
    Role: RIFIT
    Keyword: DF_BASIS_MP2
    atoms 1-2   entry O          line   264 file /home1/07844/xy3866/miniconda3/envs/p4env/share/psi4/basis/aug-cc-pvtz-ri.gbs 
    atoms 3-11  entry C          line   148 file /home1/07844/xy3866/miniconda3/envs/p4env/share/psi4/basis/aug-cc-pvtz-ri.gbs 
    atoms 12-20 entry H          line    30 file /home1/07844/xy3866/miniconda3/envs/p4env/share/psi4/basis/aug-cc-pvtz-ri.gbs 


*** tstart() called on c419-013.stampede2.tacc.utexas.edu
*** at Sun Mar  7 01:02:47 2021


  //>>>>>>>>>>>>>>>>>>>>>>>>>>>>>>>>>>>//
  //               DFMP2               //
  //<<<<<<<<<<<<<<<<<<<<<<<<<<<<<<<<<<<//

	 --------------------------------------------------------
	                          DF-MP2                         
	      2nd-Order Density-Fitted Moller-Plesset Theory     
	              RMP2 Wavefunction,  32 Threads             
	                                                         
	        Rob Parrish, Justin Turney, Andy Simmonett,      
	           Ed Hohenstein, and C. David Sherrill          
	 --------------------------------------------------------

   => Auxiliary Basis Set <=

  Basis Set: (AUG-CC-PVTZ AUX)
    Blend: AUG-CC-PVTZ-RI
    Number of shells: 434
    Number of basis functions: 1580
    Number of Cartesian functions: 1991
    Spherical Harmonics?: true
    Max angular momentum: 4

	 --------------------------------------------------------
	                 NBF =   713, NAUX =  1580
	 --------------------------------------------------------
	   CLASS    FOCC     OCC    AOCC    AVIR     VIR    FVIR
	   PAIRS       0      40      40     673     673       0
	 --------------------------------------------------------

  DFHelper Memory: AOs need 5.829 GiB; user supplied 22.352 GiB. Using in-core AOs.


         ------------------------------------------------------------
                                     CPHF                           
                                  Rob Parrish                       
         ------------------------------------------------------------

  ==> Geometry <==

    Molecular point group: c1
    Full point group: C1

    Geometry (in Angstrom), charge = -1, multiplicity = 1:

       Center              X                  Y                   Z               Mass       
    ------------   -----------------  -----------------  -----------------  -----------------
         O           -2.424584409413    -1.451065876571    -0.519170317274    15.994914619570
         O           -2.530617409413     0.832556123429    -0.692010317274    15.994914619570
         C            0.229998590587    -0.177521876571     0.552679682726    12.000000000000
         C            0.782045290587     1.067451323429     0.176663382726    12.000000000000
         C           -1.184870409413    -0.139622876571     1.048305682726    12.000000000000
         C            0.878701590587    -1.413227876571     0.408477682726    12.000000000000
         C            2.218443590587     0.893277123429    -0.333451317274    12.000000000000
         C            0.214318590587     2.331280123429     0.218278682726    12.000000000000
         C            2.182869590587    -1.501598876571    -0.079215317274    12.000000000000
         C            2.863401590587    -0.340356876571    -0.449277317274    12.000000000000
         C           -2.165451409413    -0.266984876571    -0.184321317274    12.000000000000
         H           -1.359637409413    -0.986924876571     1.720113682726     1.007825032230
         H           -1.388328409413     0.790170123429     1.589130682726     1.007825032230
         H            0.328691590587    -2.314232876571     0.673399682726     1.007825032230
         H            2.736872590587     1.801637123429    -0.642978317274     1.007825032230
         H           -0.796109409413     2.237792123429    -0.193370317274     1.007825032230
         H            0.126514590587     2.678863123429     1.256041682726     1.007825032230
         H            0.777563590587     3.086209123429    -0.341538317274     1.007825032230
         H            2.661188590587    -2.474894876571    -0.181665317274     1.007825032230
         H            3.883249590587    -0.392585876571    -0.827956317274     1.007825032230

  Nuclear repulsion =  571.814687183212868
  Reference energy  = -495.967323528691793

  ==> Basis Set <==

  Basis Set: AUG-CC-PVTZ
    Blend: AUG-CC-PVTZ
    Number of shells: 235
    Number of basis functions: 713
    Number of Cartesian functions: 830
    Spherical Harmonics?: true
    Max angular momentum: 3

  ==> CGRSolver (by Rob Parrish) <==

   Number of roots    =         1
   Preconditioning    =    JACOBI
   Convergence cutoff =     1E-06
   Maximum iterations =       100

  ==> CPHFRHamiltonian (by Rob Parrish) <== 

  ==> MemDFJK: Density-Fitted J/K Matrices <==

    J tasked:                   Yes
    K tasked:                   Yes
    wK tasked:                   No
    OpenMP threads:              32
    Memory [MiB]:             22888
    Algorithm:                 Core
    Schwarz Cutoff:           1E-12
    Mask sparsity (%):       5.3186
    Fitting Condition:        1E-10

   => Auxiliary Basis Set <=

  Basis Set: (AUG-CC-PVTZ AUX)
    Blend: AUG-CC-PVTZ-JKFIT
    Number of shells: 456
    Number of basis functions: 1558
    Number of Cartesian functions: 1936
    Spherical Harmonics?: true
    Max angular momentum: 4

  ==> CPHF Iterations <==

  => Iterations <=

             Iter  Converged  Remaining    Residual
  CGR           1          0          1   1.110E-01
  CGR           2          0          1   2.953E-02
  CGR           3          0          1   1.263E-02
  CGR           4          0          1   5.098E-03
  CGR           5          0          1   2.603E-03
  CGR           6          0          1   1.276E-03
  CGR           7          0          1   4.515E-04
  CGR           8          0          1   1.677E-04
  CGR           9          0          1   6.846E-05
  CGR          10          0          1   2.658E-05
  CGR          11          0          1   9.425E-06
  CGR          12          0          1   4.391E-06
  CGR          13          0          1   2.575E-06
  CGR          14          1          0   8.752E-07

    CGRSolver converged.

	-----------------------------------------------------------
	 ==================> DF-MP2 Energies <==================== 
	-----------------------------------------------------------
	 Reference Energy          =    -495.9673235286917929 [Eh]
	 Singles Energy            =      -0.0000000000000000 [Eh]
	 Same-Spin Energy          =      -0.5349866127428050 [Eh]
	 Opposite-Spin Energy      =      -1.6388717892435976 [Eh]
	 Correlation Energy        =      -2.1738584019864025 [Eh]
	 Total Energy              =    -498.1411819306782149 [Eh]
	-----------------------------------------------------------
	 ================> DF-SCS-MP2 Energies <================== 
	-----------------------------------------------------------
	 SCS Same-Spin Scale       =       0.3333333333333333 [-]
	 SCS Opposite-Spin Scale   =       1.2000000000000000 [-]
	 SCS Same-Spin Energy      =      -0.1783288709142683 [Eh]
	 SCS Opposite-Spin Energy  =      -1.9666461470923169 [Eh]
	 SCS Correlation Energy    =      -2.1449750180065852 [Eh]
	 SCS Total Energy          =    -498.1122985466983550 [Eh]
	-----------------------------------------------------------



Properties will be evaluated at  -0.000000,   0.000000,   0.000000 [a0]

Properties computed using the MP2 density matrix

  Nuclear Dipole Moment: [e a0]
     X:     6.5104      Y:     4.1463      Z:     2.8546

  Electronic Dipole Moment: [e a0]
     X:    -3.2061      Y:    -3.5169      Z:    -1.6795

  Dipole Moment: [e a0]
     X:     3.3043      Y:     0.6294      Z:     1.1750     Total:     3.5630

  Dipole Moment: [D]
     X:     8.3987      Y:     1.5999      Z:     2.9866     Total:     9.0563


*** tstop() called on c419-013.stampede2.tacc.utexas.edu at Sun Mar  7 01:07:09 2021
Module time:
	user time   =    2408.90 seconds =      40.15 minutes
	system time =      75.46 seconds =       1.26 minutes
	total time  =        262 seconds =       4.37 minutes
Total time:
	user time   =    3244.68 seconds =      54.08 minutes
	system time =     130.75 seconds =       2.18 minutes
	total time  =        306 seconds =       5.10 minutes

    Psi4 stopped on: Sunday, 07 March 2021 01:07AM
    Psi4 wall time for execution: 0:05:07.46

*** Psi4 exiting successfully. Buy a developer a beer!
