
    -----------------------------------------------------------------------
          Psi4: An Open-Source Ab Initio Electronic Structure Package
                               Psi4 1.4a3.dev225 

                         Git: Rev {master} 7105e37 


    D. G. A. Smith, L. A. Burns, A. C. Simmonett, R. M. Parrish,
    M. C. Schieber, R. Galvelis, P. Kraus, H. Kruse, R. Di Remigio,
    A. Alenaizan, A. M. James, S. Lehtola, J. P. Misiewicz, M. Scheurer,
    R. A. Shaw, J. B. Schriber, Y. Xie, Z. L. Glick, D. A. Sirianni,
    J. S. O'Brien, J. M. Waldrop, A. Kumar, E. G. Hohenstein,
    B. P. Pritchard, B. R. Brooks, H. F. Schaefer III, A. Yu. Sokolov,
    K. Patkowski, A. E. DePrince III, U. Bozkaya, R. A. King,
    F. A. Evangelista, J. M. Turney, T. D. Crawford, C. D. Sherrill,
    J. Chem. Phys. 152(18) 184108 (2020). https://doi.org/10.1063/5.0006002

                            Additional Code Authors
    E. T. Seidl, C. L. Janssen, E. F. Valeev, M. L. Leininger,
    J. F. Gonthier, R. M. Richard, H. R. McAlexander, M. Saitow, X. Wang,
    P. Verma, and M. H. Lechner

             Previous Authors, Complete List of Code Contributors,
                       and Citations for Specific Modules
    https://github.com/psi4/psi4/blob/master/codemeta.json
    https://github.com/psi4/psi4/graphs/contributors
    http://psicode.org/psi4manual/master/introduction.html#citing-psifour

    -----------------------------------------------------------------------


    Psi4 started on: Monday, 01 March 2021 04:19AM

    Process ID: 76936
    Host:       c402-103.stampede2.tacc.utexas.edu
    PSIDATADIR: /home1/07844/xy3866/miniconda3/envs/p4env/share/psi4
    Memory:     500.0 MiB
    Threads:    32
    
  ==> Input File <==

--------------------------------------------------------------------------
#psi4
#
memory 32 gb

molecule  {
0 1
  S       -0.2843280    -1.0417270    -0.4821980
  S       -1.2930110    -0.0875030     1.0369290
  C        2.1238360     0.2887940     0.2038120
  C        1.0396170     0.1533370    -0.8629480
  C        2.9192610    -1.0021330     0.3722660
  C        3.0446920     1.4546940    -0.1566970
  C       -2.4716130     0.9595520     0.1214340
  C       -3.5526440     0.1784480    -0.6085900
  H        1.6262820     0.5245100     1.1534320
  H        0.5779620     1.1249640    -1.0704080
  H        1.4790150    -0.2072190    -1.8028130
  H        3.4447910    -1.2503440    -0.5572920
  H        3.6685600    -0.8925200     1.1622280
  H        2.1498942    -1.9944829     0.6797584
  H        3.5445550     1.2705440    -1.1143240
  H        3.8190690     1.5865110     0.6053070
  H        2.4877540     2.3935860    -0.2389230
  H       -2.9081880     1.6071800     0.8902120
  H       -1.9135990     1.6021400    -0.5664420
  H       -3.1113200    -0.4862750    -1.3548320
  H       -4.1326660    -0.4262330     0.0924510
  H       -4.2326140     0.8656560    -1.1221410
units angstrom
no_reorient  #important for SAPT in psi4, default
symmetry c1  #important for SAPT in psi4, default
}

set PROPERTIES_ORIGIN ["COM"]
properties('MP2/aug-cc-pvtz', properties = ['dipole'])
--------------------------------------------------------------------------

  Memory set to  29.802 GiB by Python driver.
    SCF Algorithm Type (re)set to DF.

*** tstart() called on c402-103.stampede2.tacc.utexas.edu
*** at Mon Mar  1 04:19:39 2021

   => Loading Basis Set <=

    Name: AUG-CC-PVTZ
    Role: ORBITAL
    Keyword: BASIS
    atoms 1-2  entry S          line   906 file /home1/07844/xy3866/miniconda3/envs/p4env/share/psi4/basis/aug-cc-pvtz.gbs 
    atoms 3-8  entry C          line   239 file /home1/07844/xy3866/miniconda3/envs/p4env/share/psi4/basis/aug-cc-pvtz.gbs 
    atoms 9-22 entry H          line    40 file /home1/07844/xy3866/miniconda3/envs/p4env/share/psi4/basis/aug-cc-pvtz.gbs 


         ---------------------------------------------------------
                                   SCF
               by Justin Turney, Rob Parrish, Andy Simmonett
                          and Daniel G. A. Smith
                              RHF Reference
                       32 Threads,  30517 MiB Core
         ---------------------------------------------------------

  ==> Geometry <==

    Molecular point group: c1
    Full point group: C1

    Geometry (in Angstrom), charge = 0, multiplicity = 1:

       Center              X                  Y                   Z               Mass       
    ------------   -----------------  -----------------  -----------------  -----------------
         S           -0.240059493902    -1.002082809623    -0.504177157050    31.972071174400
         S           -1.248742493902    -0.047858809623     1.014949842950    31.972071174400
         C            2.168104506098     0.328438190377     0.181832842950    12.000000000000
         C            1.083885506098     0.192981190377    -0.884927157050    12.000000000000
         C            2.963529506098    -0.962488809623     0.350286842950    12.000000000000
         C            3.088960506098     1.494338190377    -0.178676157050    12.000000000000
         C           -2.427344493902     0.999196190377     0.099454842950    12.000000000000
         C           -3.508375493902     0.218092190377    -0.630569157050    12.000000000000
         H            1.670550506098     0.564154190377     1.131452842950     1.007825032230
         H            0.622230506098     1.164608190377    -1.092387157050     1.007825032230
         H            1.523283506098    -0.167574809623    -1.824792157050     1.007825032230
         H            3.489059506098    -1.210699809623    -0.579271157050     1.007825032230
         H            3.712828506098    -0.852875809623     1.140248842950     1.007825032230
         H            2.194162706098    -1.954838709623     0.657779242950     1.007825032230
         H            3.588823506098     1.310188190377    -1.136303157050     1.007825032230
         H            3.863337506098     1.626155190377     0.583327842950     1.007825032230
         H            2.532022506098     2.433230190377    -0.260902157050     1.007825032230
         H           -2.863919493902     1.646824190377     0.868232842950     1.007825032230
         H           -1.869330493902     1.641784190377    -0.588421157050     1.007825032230
         H           -3.067051493902    -0.446630809623    -1.376811157050     1.007825032230
         H           -4.088397493902    -0.386588809623     0.070471842950     1.007825032230
         H           -4.188345493902     0.905300190377    -1.144120157050     1.007825032230

  Running in c1 symmetry.

  Rotational constants: A =      0.09331  B =      0.02222  C =      0.02116 [cm^-1]
  Rotational constants: A =   2797.41274  B =    666.05447  C =    634.31446 [MHz]
  Nuclear repulsion =  555.075181055001963

  Charge       = 0
  Multiplicity = 1
  Electrons    = 82
  Nalpha       = 41
  Nbeta        = 41

  ==> Algorithm <==

  SCF Algorithm Type is DF.
  DIIS enabled.
  MOM disabled.
  Fractional occupation disabled.
  Guess Type is SAD.
  Energy threshold   = 1.00e-10
  Density threshold  = 1.00e-10
  Integral threshold = 1.00e-12

  ==> Primary Basis <==

  Basis Set: AUG-CC-PVTZ
    Blend: AUG-CC-PVTZ
    Number of shells: 242
    Number of basis functions: 698
    Number of Cartesian functions: 798
    Spherical Harmonics?: true
    Max angular momentum: 3

   => Loading Basis Set <=

    Name: (AUG-CC-PVTZ AUX)
    Role: JKFIT
    Keyword: DF_BASIS_SCF
    atoms 1-2  entry S          line   730 file /home1/07844/xy3866/miniconda3/envs/p4env/share/psi4/basis/aug-cc-pvtz-jkfit.gbs 
    atoms 3-8  entry C          line   162 file /home1/07844/xy3866/miniconda3/envs/p4env/share/psi4/basis/aug-cc-pvtz-jkfit.gbs 
    atoms 9-22 entry H          line    70 file /home1/07844/xy3866/miniconda3/envs/p4env/share/psi4/basis/aug-cc-pvtz-jkfit.gbs 

  ==> Integral Setup <==

  DFHelper Memory: AOs need 5.108 GiB; user supplied 22.352 GiB. Using in-core AOs.

  ==> MemDFJK: Density-Fitted J/K Matrices <==

    J tasked:                   Yes
    K tasked:                   Yes
    wK tasked:                   No
    OpenMP threads:              32
    Memory [MiB]:             22888
    Algorithm:                 Core
    Schwarz Cutoff:           1E-12
    Mask sparsity (%):      13.8985
    Fitting Condition:        1E-10

   => Auxiliary Basis Set <=

  Basis Set: (AUG-CC-PVTZ AUX)
    Blend: AUG-CC-PVTZ-JKFIT
    Number of shells: 460
    Number of basis functions: 1560
    Number of Cartesian functions: 1916
    Spherical Harmonics?: true
    Max angular momentum: 4

  Minimum eigenvalue in the overlap matrix is 3.2204761238E-06.
  Reciprocal condition number of the overlap matrix is 1.5894164090E-07.
    Using symmetric orthogonalization.

  ==> Pre-Iterations <==

  SCF Guess: Superposition of Atomic Densities via on-the-fly atomic UHF (no occupation information).

   -------------------------
    Irrep   Nso     Nmo    
   -------------------------
     A        698     698 
   -------------------------
    Total     698     698
   -------------------------

  ==> Iterations <==

                           Total Energy        Delta E     RMS |[F,P]|

   @DF-RHF iter SAD: -1029.93936984917150   -1.02994e+03   0.00000e+00 
   @DF-RHF iter   1: -1030.18252844375570   -2.43159e-01   1.05619e-03 DIIS
   @DF-RHF iter   2: -1030.44727313065164   -2.64745e-01   5.40266e-04 DIIS
   @DF-RHF iter   3: -1030.52228959745366   -7.50165e-02   1.01401e-04 DIIS
   @DF-RHF iter   4: -1030.52719406574920   -4.90447e-03   2.98067e-05 DIIS
   @DF-RHF iter   5: -1030.52753521150407   -3.41146e-04   7.24781e-06 DIIS
   @DF-RHF iter   6: -1030.52755877563436   -2.35641e-05   1.91331e-06 DIIS
   @DF-RHF iter   7: -1030.52756061782293   -1.84219e-06   5.77110e-07 DIIS
   @DF-RHF iter   8: -1030.52756078767561   -1.69853e-07   1.81589e-07 DIIS
   @DF-RHF iter   9: -1030.52756081393068   -2.62551e-08   5.92011e-08 DIIS
   @DF-RHF iter  10: -1030.52756081702910   -3.09842e-09   2.53840e-08 DIIS
   @DF-RHF iter  11: -1030.52756081771281   -6.83713e-10   8.68426e-09 DIIS
   @DF-RHF iter  12: -1030.52756081780603   -9.32232e-11   3.16317e-09 DIIS
   @DF-RHF iter  13: -1030.52756081781581   -9.77707e-12   1.02507e-09 DIIS
   @DF-RHF iter  14: -1030.52756081781922   -3.41061e-12   2.68754e-10 DIIS
   @DF-RHF iter  15: -1030.52756081781649    2.72848e-12   1.02309e-10 DIIS
   @DF-RHF iter  16: -1030.52756081781763   -1.13687e-12   3.90484e-11 DIIS
  Energy and wave function converged.


  ==> Post-Iterations <==

    Orbital Energies [Eh]
    ---------------------

    Doubly Occupied:                                                      

       1A    -91.967186     2A    -91.966330     3A    -11.261830  
       4A    -11.257968     5A    -11.233344     6A    -11.232016  
       7A    -11.221056     8A    -11.219130     9A     -8.966014  
      10A     -8.965122    11A     -6.647108    12A     -6.646187  
      13A     -6.645843    14A     -6.645038    15A     -6.644964  
      16A     -6.644172    17A     -1.110539    18A     -1.076290  
      19A     -1.011409    20A     -0.934955    21A     -0.921808  
      22A     -0.860560    23A     -0.792254    24A     -0.751350  
      25A     -0.643162    26A     -0.629071    27A     -0.600394  
      28A     -0.586963    29A     -0.583303    30A     -0.552522  
      31A     -0.540581    32A     -0.536647    33A     -0.512381  
      34A     -0.497382    35A     -0.491968    36A     -0.473540  
      37A     -0.468427    38A     -0.449535    39A     -0.426478  
      40A     -0.351884    41A     -0.343487  

    Virtual:                                                              

      42A      0.027741    43A      0.033184    44A      0.035318  
      45A      0.038905    46A      0.047524    47A      0.048769  
      48A      0.050199    49A      0.056843    50A      0.059130  
      51A      0.067600    52A      0.069670    53A      0.071943  
      54A      0.076971    55A      0.085985    56A      0.096758  
      57A      0.108803    58A      0.112591    59A      0.117631  
      60A      0.120781    61A      0.122346    62A      0.126678  
      63A      0.127542    64A      0.131776    65A      0.133321  
      66A      0.137618    67A      0.139720    68A      0.144702  
      69A      0.147202    70A      0.152298    71A      0.154582  
      72A      0.158217    73A      0.162761    74A      0.167246  
      75A      0.169162    76A      0.172190    77A      0.175470  
      78A      0.176669    79A      0.181571    80A      0.190457  
      81A      0.193811    82A      0.202699    83A      0.209449  
      84A      0.212322    85A      0.220060    86A      0.229508  
      87A      0.235988    88A      0.243084    89A      0.245692  
      90A      0.262471    91A      0.267903    92A      0.268385  
      93A      0.272846    94A      0.274878    95A      0.286506  
      96A      0.292138    97A      0.293813    98A      0.297945  
      99A      0.301076   100A      0.309489   101A      0.312820  
     102A      0.314157   103A      0.320641   104A      0.326571  
     105A      0.330506   106A      0.333958   107A      0.341448  
     108A      0.342400   109A      0.348952   110A      0.354218  
     111A      0.359509   112A      0.360063   113A      0.363274  
     114A      0.366963   115A      0.371537   116A      0.376736  
     117A      0.377575   118A      0.384097   119A      0.384231  
     120A      0.386104   121A      0.388301   122A      0.395281  
     123A      0.398270   124A      0.401936   125A      0.406939  
     126A      0.412251   127A      0.412862   128A      0.419304  
     129A      0.423805   130A      0.432636   131A      0.434135  
     132A      0.437236   133A      0.442083   134A      0.444353  
     135A      0.448167   136A      0.451907   137A      0.455679  
     138A      0.457298   139A      0.459176   140A      0.466393  
     141A      0.468417   142A      0.475748   143A      0.478077  
     144A      0.481286   145A      0.486075   146A      0.486607  
     147A      0.492631   148A      0.496931   149A      0.506079  
     150A      0.508046   151A      0.511242   152A      0.513812  
     153A      0.515836   154A      0.519549   155A      0.525919  
     156A      0.531702   157A      0.537740   158A      0.544799  
     159A      0.549995   160A      0.556352   161A      0.557892  
     162A      0.563248   163A      0.568449   164A      0.575947  
     165A      0.585525   166A      0.588508   167A      0.592220  
     168A      0.602337   169A      0.606187   170A      0.608055  
     171A      0.611235   172A      0.615366   173A      0.616675  
     174A      0.630205   175A      0.632972   176A      0.638725  
     177A      0.642192   178A      0.650108   179A      0.651351  
     180A      0.661711   181A      0.671311   182A      0.681383  
     183A      0.682548   184A      0.686744   185A      0.693201  
     186A      0.702386   187A      0.712148   188A      0.722873  
     189A      0.732992   190A      0.739778   191A      0.743566  
     192A      0.746225   193A      0.762796   194A      0.768105  
     195A      0.778410   196A      0.787696   197A      0.790797  
     198A      0.802872   199A      0.807580   200A      0.814567  
     201A      0.816146   202A      0.823802   203A      0.830252  
     204A      0.834973   205A      0.840197   206A      0.845191  
     207A      0.848579   208A      0.855151   209A      0.857937  
     210A      0.862648   211A      0.871087   212A      0.876245  
     213A      0.881146   214A      0.883874   215A      0.888289  
     216A      0.891358   217A      0.896026   218A      0.900690  
     219A      0.904135   220A      0.910972   221A      0.915224  
     222A      0.923086   223A      0.927766   224A      0.930862  
     225A      0.935861   226A      0.940329   227A      0.944676  
     228A      0.948436   229A      0.950599   230A      0.959237  
     231A      0.961517   232A      0.966095   233A      0.972784  
     234A      0.975357   235A      0.976174   236A      0.981943  
     237A      0.988471   238A      0.999584   239A      1.005787  
     240A      1.011113   241A      1.014362   242A      1.015812  
     243A      1.028819   244A      1.036305   245A      1.044712  
     246A      1.053135   247A      1.055968   248A      1.064461  
     249A      1.066323   250A      1.068244   251A      1.081325  
     252A      1.084846   253A      1.089781   254A      1.095420  
     255A      1.100653   256A      1.108086   257A      1.111002  
     258A      1.117856   259A      1.122962   260A      1.129939  
     261A      1.132318   262A      1.138806   263A      1.145534  
     264A      1.147656   265A      1.157880   266A      1.163154  
     267A      1.165589   268A      1.169329   269A      1.184277  
     270A      1.186405   271A      1.192895   272A      1.198076  
     273A      1.206507   274A      1.209101   275A      1.219428  
     276A      1.225743   277A      1.228707   278A      1.232205  
     279A      1.240367   280A      1.247805   281A      1.249480  
     282A      1.252472   283A      1.266644   284A      1.272171  
     285A      1.274494   286A      1.285970   287A      1.294743  
     288A      1.300964   289A      1.302736   290A      1.307983  
     291A      1.318258   292A      1.324340   293A      1.328163  
     294A      1.341735   295A      1.347197   296A      1.354661  
     297A      1.357364   298A      1.368370   299A      1.372062  
     300A      1.376960   301A      1.391514   302A      1.396633  
     303A      1.400065   304A      1.407578   305A      1.409748  
     306A      1.416142   307A      1.423723   308A      1.432848  
     309A      1.438495   310A      1.451836   311A      1.456453  
     312A      1.460995   313A      1.468855   314A      1.472582  
     315A      1.477734   316A      1.491222   317A      1.493752  
     318A      1.496890   319A      1.507198   320A      1.523243  
     321A      1.525110   322A      1.531774   323A      1.537580  
     324A      1.546218   325A      1.550256   326A      1.563324  
     327A      1.567357   328A      1.574320   329A      1.588471  
     330A      1.597336   331A      1.599931   332A      1.605214  
     333A      1.619787   334A      1.630611   335A      1.637612  
     336A      1.642586   337A      1.648576   338A      1.660705  
     339A      1.667151   340A      1.669733   341A      1.675526  
     342A      1.684844   343A      1.686977   344A      1.693660  
     345A      1.700452   346A      1.707579   347A      1.715096  
     348A      1.721001   349A      1.722353   350A      1.729070  
     351A      1.738262   352A      1.740921   353A      1.744995  
     354A      1.755831   355A      1.762409   356A      1.771158  
     357A      1.777670   358A      1.785676   359A      1.787168  
     360A      1.795435   361A      1.805547   362A      1.815365  
     363A      1.827646   364A      1.829676   365A      1.838422  
     366A      1.841887   367A      1.849940   368A      1.863592  
     369A      1.867007   370A      1.873063   371A      1.888807  
     372A      1.894614   373A      1.898187   374A      1.906882  
     375A      1.912932   376A      1.918495   377A      1.923582  
     378A      1.945305   379A      1.950725   380A      1.954249  
     381A      1.960156   382A      1.971474   383A      1.978529  
     384A      1.984898   385A      1.986166   386A      1.990847  
     387A      2.003926   388A      2.019998   389A      2.023771  
     390A      2.032853   391A      2.047377   392A      2.053426  
     393A      2.066640   394A      2.076187   395A      2.084585  
     396A      2.091946   397A      2.097522   398A      2.109703  
     399A      2.127156   400A      2.137208   401A      2.141197  
     402A      2.157395   403A      2.165098   404A      2.174641  
     405A      2.195319   406A      2.208534   407A      2.213460  
     408A      2.223660   409A      2.232693   410A      2.243421  
     411A      2.246656   412A      2.249387   413A      2.262568  
     414A      2.270456   415A      2.280466   416A      2.290975  
     417A      2.298212   418A      2.307606   419A      2.315647  
     420A      2.322578   421A      2.331025   422A      2.341257  
     423A      2.345231   424A      2.357352   425A      2.369470  
     426A      2.388990   427A      2.405801   428A      2.408884  
     429A      2.416314   430A      2.428273   431A      2.434716  
     432A      2.450872   433A      2.462127   434A      2.487510  
     435A      2.490275   436A      2.498404   437A      2.512761  
     438A      2.525765   439A      2.527848   440A      2.552558  
     441A      2.561490   442A      2.575609   443A      2.587013  
     444A      2.594392   445A      2.605732   446A      2.624353  
     447A      2.646372   448A      2.653552   449A      2.670365  
     450A      2.683104   451A      2.700614   452A      2.711945  
     453A      2.735654   454A      2.752206   455A      2.773108  
     456A      2.788306   457A      2.819183   458A      2.852852  
     459A      2.862844   460A      2.879821   461A      2.901211  
     462A      2.909850   463A      2.952506   464A      2.957118  
     465A      2.984059   466A      2.998665   467A      3.043659  
     468A      3.064174   469A      3.092545   470A      3.152377  
     471A      3.185289   472A      3.214673   473A      3.239127  
     474A      3.274652   475A      3.297774   476A      3.325778  
     477A      3.357998   478A      3.433992   479A      3.443747  
     480A      3.460450   481A      3.464290   482A      3.475067  
     483A      3.485315   484A      3.502178   485A      3.509072  
     486A      3.511999   487A      3.531346   488A      3.548925  
     489A      3.588350   490A      3.590296   491A      3.609582  
     492A      3.615119   493A      3.628453   494A      3.631266  
     495A      3.637434   496A      3.655024   497A      3.663941  
     498A      3.679180   499A      3.692459   500A      3.707865  
     501A      3.717717   502A      3.726466   503A      3.734517  
     504A      3.740235   505A      3.760017   506A      3.764258  
     507A      3.770719   508A      3.778482   509A      3.788909  
     510A      3.797742   511A      3.802325   512A      3.811355  
     513A      3.821033   514A      3.831074   515A      3.835369  
     516A      3.850787   517A      3.857173   518A      3.867274  
     519A      3.881815   520A      3.882876   521A      3.892073  
     522A      3.904026   523A      3.925040   524A      3.930950  
     525A      3.956588   526A      3.960298   527A      3.973429  
     528A      3.975700   529A      3.982626   530A      3.991624  
     531A      4.002666   532A      4.004334   533A      4.014478  
     534A      4.025583   535A      4.030112   536A      4.046943  
     537A      4.056507   538A      4.060237   539A      4.076306  
     540A      4.079290   541A      4.098933   542A      4.106560  
     543A      4.126330   544A      4.131758   545A      4.156277  
     546A      4.161774   547A      4.175528   548A      4.185598  
     549A      4.197613   550A      4.204317   551A      4.218996  
     552A      4.221070   553A      4.225280   554A      4.232075  
     555A      4.237964   556A      4.246616   557A      4.255813  
     558A      4.270139   559A      4.285725   560A      4.289489  
     561A      4.303428   562A      4.344585   563A      4.351558  
     564A      4.365820   565A      4.379673   566A      4.398874  
     567A      4.407020   568A      4.414980   569A      4.424726  
     570A      4.435870   571A      4.454311   572A      4.460954  
     573A      4.464608   574A      4.468371   575A      4.497276  
     576A      4.542968   577A      4.553976   578A      4.564457  
     579A      4.575755   580A      4.596015   581A      4.604023  
     582A      4.615541   583A      4.625913   584A      4.641732  
     585A      4.648138   586A      4.681021   587A      4.690699  
     588A      4.697491   589A      4.714610   590A      4.738303  
     591A      4.751857   592A      4.753785   593A      4.787343  
     594A      4.791947   595A      4.816088   596A      4.834904  
     597A      4.844386   598A      4.846464   599A      4.853325  
     600A      4.857613   601A      4.881128   602A      4.890589  
     603A      4.910398   604A      4.927135   605A      4.946915  
     606A      4.962971   607A      4.969138   608A      4.981756  
     609A      5.006013   610A      5.011655   611A      5.024275  
     612A      5.050856   613A      5.062388   614A      5.066453  
     615A      5.092981   616A      5.112106   617A      5.132782  
     618A      5.143257   619A      5.146735   620A      5.153119  
     621A      5.163146   622A      5.191456   623A      5.203294  
     624A      5.211105   625A      5.229720   626A      5.242997  
     627A      5.268183   628A      5.287763   629A      5.305488  
     630A      5.319929   631A      5.328728   632A      5.330249  
     633A      5.336920   634A      5.346173   635A      5.370512  
     636A      5.378452   637A      5.395484   638A      5.407196  
     639A      5.413230   640A      5.421628   641A      5.439787  
     642A      5.463314   643A      5.487015   644A      5.502408  
     645A      5.533705   646A      5.545256   647A      5.550357  
     648A      5.563513   649A      5.568092   650A      5.576285  
     651A      5.609502   652A      5.654243   653A      5.680841  
     654A      5.684514   655A      5.714946   656A      5.728099  
     657A      5.732617   658A      5.751655   659A      5.811899  
     660A      5.823713   661A      5.835327   662A      5.895950  
     663A      5.950521   664A      5.968527   665A      5.980590  
     666A      5.985464   667A      6.017772   668A      6.038781  
     669A      6.089172   670A      6.091211   671A      6.130057  
     672A      6.168503   673A      6.184546   674A      6.219454  
     675A      6.227553   676A      6.240342   677A      6.265928  
     678A      6.309443   679A      6.335981   680A      6.381015  
     681A      6.500978   682A      6.633532   683A      6.714267  
     684A      6.736583   685A      6.785880   686A      6.832899  
     687A      6.863119   688A      6.884051   689A      6.909444  
     690A      6.975180   691A      7.673776   692A      7.952272  
     693A     16.908374   694A     17.460609   695A     17.664778  
     696A     17.914381   697A     18.007718   698A     19.175743  

    Final Occupation by Irrep:
              A 
    DOCC [    41 ]

  @DF-RHF Final Energy: -1030.52756081781763

   => Energetics <=

    Nuclear Repulsion Energy =            555.0751810550019627
    One-Electron Energy =               -2520.5850858699959645
    Two-Electron Energy =                 934.9823439971764856
    Total Energy =                      -1030.5275608178176299

Computation Completed

*** tstop() called on c402-103.stampede2.tacc.utexas.edu at Mon Mar  1 04:20:24 2021
Module time:
	user time   =     739.60 seconds =      12.33 minutes
	system time =      51.56 seconds =       0.86 minutes
	total time  =         45 seconds =       0.75 minutes
Total time:
	user time   =     739.60 seconds =      12.33 minutes
	system time =      51.56 seconds =       0.86 minutes
	total time  =         45 seconds =       0.75 minutes
   => Loading Basis Set <=

    Name: (AUG-CC-PVTZ AUX)
    Role: RIFIT
    Keyword: DF_BASIS_MP2
    atoms 1-2  entry S          line   666 file /home1/07844/xy3866/miniconda3/envs/p4env/share/psi4/basis/aug-cc-pvtz-ri.gbs 
    atoms 3-8  entry C          line   148 file /home1/07844/xy3866/miniconda3/envs/p4env/share/psi4/basis/aug-cc-pvtz-ri.gbs 
    atoms 9-22 entry H          line    30 file /home1/07844/xy3866/miniconda3/envs/p4env/share/psi4/basis/aug-cc-pvtz-ri.gbs 


*** tstart() called on c402-103.stampede2.tacc.utexas.edu
*** at Mon Mar  1 04:20:26 2021


  //>>>>>>>>>>>>>>>>>>>>>>>>>>>>>>>>>>>//
  //               DFMP2               //
  //<<<<<<<<<<<<<<<<<<<<<<<<<<<<<<<<<<<//

	 --------------------------------------------------------
	                          DF-MP2                         
	      2nd-Order Density-Fitted Moller-Plesset Theory     
	              RMP2 Wavefunction,  32 Threads             
	                                                         
	        Rob Parrish, Justin Turney, Andy Simmonett,      
	           Ed Hohenstein, and C. David Sherrill          
	 --------------------------------------------------------

   => Auxiliary Basis Set <=

  Basis Set: (AUG-CC-PVTZ AUX)
    Blend: AUG-CC-PVTZ-RI
    Number of shells: 438
    Number of basis functions: 1574
    Number of Cartesian functions: 1968
    Spherical Harmonics?: true
    Max angular momentum: 4

	 --------------------------------------------------------
	                 NBF =   698, NAUX =  1574
	 --------------------------------------------------------
	   CLASS    FOCC     OCC    AOCC    AVIR     VIR    FVIR
	   PAIRS       0      41      41     657     657       0
	 --------------------------------------------------------

  DFHelper Memory: AOs need 5.377 GiB; user supplied 22.352 GiB. Using in-core AOs.


         ------------------------------------------------------------
                                     CPHF                           
                                  Rob Parrish                       
         ------------------------------------------------------------

  ==> Geometry <==

    Molecular point group: c1
    Full point group: C1

    Geometry (in Angstrom), charge = 0, multiplicity = 1:

       Center              X                  Y                   Z               Mass       
    ------------   -----------------  -----------------  -----------------  -----------------
         S           -0.240059493902    -1.002082809623    -0.504177157050    31.972071174400
         S           -1.248742493902    -0.047858809623     1.014949842950    31.972071174400
         C            2.168104506098     0.328438190377     0.181832842950    12.000000000000
         C            1.083885506098     0.192981190377    -0.884927157050    12.000000000000
         C            2.963529506098    -0.962488809623     0.350286842950    12.000000000000
         C            3.088960506098     1.494338190377    -0.178676157050    12.000000000000
         C           -2.427344493902     0.999196190377     0.099454842950    12.000000000000
         C           -3.508375493902     0.218092190377    -0.630569157050    12.000000000000
         H            1.670550506098     0.564154190377     1.131452842950     1.007825032230
         H            0.622230506098     1.164608190377    -1.092387157050     1.007825032230
         H            1.523283506098    -0.167574809623    -1.824792157050     1.007825032230
         H            3.489059506098    -1.210699809623    -0.579271157050     1.007825032230
         H            3.712828506098    -0.852875809623     1.140248842950     1.007825032230
         H            2.194162706098    -1.954838709623     0.657779242950     1.007825032230
         H            3.588823506098     1.310188190377    -1.136303157050     1.007825032230
         H            3.863337506098     1.626155190377     0.583327842950     1.007825032230
         H            2.532022506098     2.433230190377    -0.260902157050     1.007825032230
         H           -2.863919493902     1.646824190377     0.868232842950     1.007825032230
         H           -1.869330493902     1.641784190377    -0.588421157050     1.007825032230
         H           -3.067051493902    -0.446630809623    -1.376811157050     1.007825032230
         H           -4.088397493902    -0.386588809623     0.070471842950     1.007825032230
         H           -4.188345493902     0.905300190377    -1.144120157050     1.007825032230

  Nuclear repulsion =  555.075181055001963
  Reference energy  = -1030.527560817817630

  ==> Basis Set <==

  Basis Set: AUG-CC-PVTZ
    Blend: AUG-CC-PVTZ
    Number of shells: 242
    Number of basis functions: 698
    Number of Cartesian functions: 798
    Spherical Harmonics?: true
    Max angular momentum: 3

  ==> CGRSolver (by Rob Parrish) <==

   Number of roots    =         1
   Preconditioning    =    JACOBI
   Convergence cutoff =     1E-06
   Maximum iterations =       100

  ==> CPHFRHamiltonian (by Rob Parrish) <== 

  ==> MemDFJK: Density-Fitted J/K Matrices <==

    J tasked:                   Yes
    K tasked:                   Yes
    wK tasked:                   No
    OpenMP threads:              32
    Memory [MiB]:             22888
    Algorithm:                 Core
    Schwarz Cutoff:           1E-12
    Mask sparsity (%):       9.1498
    Fitting Condition:        1E-10

   => Auxiliary Basis Set <=

  Basis Set: (AUG-CC-PVTZ AUX)
    Blend: AUG-CC-PVTZ-JKFIT
    Number of shells: 460
    Number of basis functions: 1560
    Number of Cartesian functions: 1916
    Spherical Harmonics?: true
    Max angular momentum: 4

  ==> CPHF Iterations <==

  => Iterations <=

             Iter  Converged  Remaining    Residual
  CGR           1          0          1   1.016E-01
  CGR           2          0          1   1.702E-02
  CGR           3          0          1   5.885E-03
  CGR           4          0          1   1.739E-03
  CGR           5          0          1   4.893E-04
  CGR           6          0          1   1.905E-04
  CGR           7          0          1   6.592E-05
  CGR           8          0          1   2.352E-05
  CGR           9          0          1   9.791E-06
  CGR          10          0          1   2.590E-06
  CGR          11          1          0   9.784E-07

    CGRSolver converged.

	-----------------------------------------------------------
	 ==================> DF-MP2 Energies <==================== 
	-----------------------------------------------------------
	 Reference Energy          =   -1030.5275608178176299 [Eh]
	 Singles Energy            =      -0.0000000000000000 [Eh]
	 Same-Spin Energy          =      -0.3703853002702879 [Eh]
	 Opposite-Spin Energy      =      -1.2707930556202431 [Eh]
	 Correlation Energy        =      -1.6411783558905311 [Eh]
	 Total Energy              =   -1032.1687391737082180 [Eh]
	-----------------------------------------------------------
	 ================> DF-SCS-MP2 Energies <================== 
	-----------------------------------------------------------
	 SCS Same-Spin Scale       =       0.3333333333333333 [-]
	 SCS Opposite-Spin Scale   =       1.2000000000000000 [-]
	 SCS Same-Spin Energy      =      -0.1234617667567626 [Eh]
	 SCS Opposite-Spin Energy  =      -1.5249516667442917 [Eh]
	 SCS Correlation Energy    =      -1.6484134335010543 [Eh]
	 SCS Total Energy          =   -1032.1759742513186211 [Eh]
	-----------------------------------------------------------



Properties will be evaluated at  -0.000000,  -0.000000,   0.000000 [a0]

Properties computed using the MP2 density matrix

  Nuclear Dipole Moment: [e a0]
     X:     6.6348      Y:     5.8531      Z:    -3.3159

  Electronic Dipole Moment: [e a0]
     X:    -6.5734      Y:    -5.1124      Z:     2.9632

  Dipole Moment: [e a0]
     X:     0.0614      Y:     0.7406      Z:    -0.3527     Total:     0.8226

  Dipole Moment: [D]
     X:     0.1560      Y:     1.8825      Z:    -0.8965     Total:     2.0909


*** tstop() called on c402-103.stampede2.tacc.utexas.edu at Mon Mar  1 04:25:45 2021
Module time:
	user time   =    2379.18 seconds =      39.65 minutes
	system time =      74.24 seconds =       1.24 minutes
	total time  =        319 seconds =       5.32 minutes
Total time:
	user time   =    3119.87 seconds =      52.00 minutes
	system time =     125.83 seconds =       2.10 minutes
	total time  =        366 seconds =       6.10 minutes

    Psi4 stopped on: Monday, 01 March 2021 04:25AM
    Psi4 wall time for execution: 0:06:07.06

*** Psi4 exiting successfully. Buy a developer a beer!
