6942                                                                    
Freq      RMP2-FC                                                     6-31G(d)            
Number of atoms                            I               18
Info1-9                                    I   N=           9
          30          28        1002           0           0         100
           6           2           1
Charge                                     I                0
Multiplicity                               I                1
Number of electrons                        I               72
Number of alpha electrons                  I               36
Number of beta electrons                   I               36
Number of basis functions                  I              166
Number of independent functions            I              166
Number of point charges in /Mol/           I                0
Number of translation vectors              I                0
Atomic numbers                             I   N=          18
           8           7           7           6           6           6
           6           6           6           6           1           1
           1           1           1           1           1           1
Nuclear charges                            R   N=          18
  8.00000000E+00  7.00000000E+00  7.00000000E+00  6.00000000E+00  6.00000000E+00
  6.00000000E+00  6.00000000E+00  6.00000000E+00  6.00000000E+00  6.00000000E+00
  1.00000000E+00  1.00000000E+00  1.00000000E+00  1.00000000E+00  1.00000000E+00
  1.00000000E+00  1.00000000E+00  1.00000000E+00
Current cartesian coordinates              R   N=          54
  4.43648600E+00  1.42952952E+00 -9.77002011E-01  1.98788133E-01  4.16173292E+00
  4.69660525E-01  4.38123138E+00 -2.51120623E+00  7.41342562E-01  3.85785712E-01
 -4.30444198E-01 -6.20596629E-02 -1.00015200E+00  1.84865223E+00  1.36409407E-01
 -9.03406983E-01 -2.73399596E+00 -3.29718525E-01 -3.65144374E+00  1.69639630E+00
  2.35113222E-01 -3.52964752E+00 -2.84245112E+00 -2.84866742E-01 -4.90003338E+00
 -6.02737283E-01 -3.03876702E-03  3.20160661E+00 -3.70425982E-01 -1.33752258E-01
  1.82050037E-01 -4.45432990E+00 -6.22458225E-01 -4.73353757E+00  3.43484858E+00
  4.38983652E-01 -4.49689182E+00 -4.63871444E+00 -5.15876708E-01 -6.95447970E+00
 -6.45335538E-01  4.64926315E-02  1.95406221E+00  4.21945816E+00 -3.06748073E-01
 -8.83214762E-01  5.67142230E+00  1.87441173E-03  3.48218343E+00 -3.60486465E+00
  2.02338551E+00  6.28155138E+00 -2.36237138E+00  9.24821236E-01
Force Field                                I                0
Int Atom Types                             I   N=          18
           0           0           0           0           0           0
           0           0           0           0           0           0
           0           0           0           0           0           0
MM charges                                 R   N=          18
  0.00000000E+00  0.00000000E+00  0.00000000E+00  0.00000000E+00  0.00000000E+00
  0.00000000E+00  0.00000000E+00  0.00000000E+00  0.00000000E+00  0.00000000E+00
  0.00000000E+00  0.00000000E+00  0.00000000E+00  0.00000000E+00  0.00000000E+00
  0.00000000E+00  0.00000000E+00  0.00000000E+00
Integer atomic weights                     I   N=          18
          16          14          14          12          12          12
          12          12          12          12           1           1
           1           1           1           1           1           1
Real atomic weights                        R   N=          18
  1.59949146E+01  1.40030740E+01  1.40030740E+01  1.20000000E+01  1.20000000E+01
  1.20000000E+01  1.20000000E+01  1.20000000E+01  1.20000000E+01  1.20000000E+01
  1.00782504E+00  1.00782504E+00  1.00782504E+00  1.00782504E+00  1.00782504E+00
  1.00782504E+00  1.00782504E+00  1.00782504E+00
Atom fragment info                         I   N=          18
           0           0           0           0           0           0
           0           0           0           0           0           0
           0           0           0           0           0           0
Atom residue num                           I   N=          18
           0           0           0           0           0           0
           0           0           0           0           0           0
           0           0           0           0           0           0
Nuclear spins                              I   N=          18
           0           2           2           0           0           0
           0           0           0           0           1           1
           1           1           1           1           1           1
Nuclear ZEff                               R   N=          18
 -5.60000000E+00 -4.55000000E+00 -4.55000000E+00 -3.60000000E+00 -3.60000000E+00
 -3.60000000E+00 -3.60000000E+00 -3.60000000E+00 -3.60000000E+00 -3.60000000E+00
 -1.00000000E+00 -1.00000000E+00 -1.00000000E+00 -1.00000000E+00 -1.00000000E+00
 -1.00000000E+00 -1.00000000E+00 -1.00000000E+00
Nuclear QMom                               R   N=          18
  0.00000000E+00  2.04400000E+00  2.04400000E+00  0.00000000E+00  0.00000000E+00
  0.00000000E+00  0.00000000E+00  0.00000000E+00  0.00000000E+00  0.00000000E+00
  0.00000000E+00  0.00000000E+00  0.00000000E+00  0.00000000E+00  0.00000000E+00
  0.00000000E+00  0.00000000E+00  0.00000000E+00
Nuclear GFac                               R   N=          18
  0.00000000E+00  4.03761000E-01  4.03761000E-01  0.00000000E+00  0.00000000E+00
  0.00000000E+00  0.00000000E+00  0.00000000E+00  0.00000000E+00  0.00000000E+00
  2.79284600E+00  2.79284600E+00  2.79284600E+00  2.79284600E+00  2.79284600E+00
  2.79284600E+00  2.79284600E+00  2.79284600E+00
MicOpt                                     I   N=          18
          -1          -1          -1          -1          -1          -1
          -1          -1          -1          -1          -1          -1
          -1          -1          -1          -1          -1          -1
Number of contracted shells                I               56
Number of primitive shells                 I              142
Pure/Cartesian d shells                    I                1
Pure/Cartesian f shells                    I                0
Highest angular momentum                   I                2
Largest degree of contraction              I                6
Shell types                                I   N=          56
           0          -1          -1           2           0          -1
          -1           2           0          -1          -1           2
           0          -1          -1           2           0          -1
          -1           2           0          -1          -1           2
           0          -1          -1           2           0          -1
          -1           2           0          -1          -1           2
           0          -1          -1           2           0           0
           0           0           0           0           0           0
           0           0           0           0           0           0
           0           0
Number of primitives per shell             I   N=          56
           6           3           1           1           6           3
           1           1           6           3           1           1
           6           3           1           1           6           3
           1           1           6           3           1           1
           6           3           1           1           6           3
           1           1           6           3           1           1
           6           3           1           1           3           1
           3           1           3           1           3           1
           3           1           3           1           3           1
           3           1
Shell to atom map                          I   N=          56
           1           1           1           1           2           2
           2           2           3           3           3           3
           4           4           4           4           5           5
           5           5           6           6           6           6
           7           7           7           7           8           8
           8           8           9           9           9           9
          10          10          10          10          11          11
          12          12          13          13          14          14
          15          15          16          16          17          17
          18          18
Primitive exponents                        R   N=         142
  5.48467166E+03  8.25234946E+02  1.88046958E+02  5.29645000E+01  1.68975704E+01
  5.79963534E+00  1.55396162E+01  3.59993359E+00  1.01376175E+00  2.70005823E-01
  8.00000000E-01  4.17351146E+03  6.27457911E+02  1.42902093E+02  4.02343293E+01
  1.28202129E+01  4.39043701E+00  1.16263619E+01  2.71627981E+00  7.72218397E-01
  2.12031498E-01  8.00000000E-01  4.17351146E+03  6.27457911E+02  1.42902093E+02
  4.02343293E+01  1.28202129E+01  4.39043701E+00  1.16263619E+01  2.71627981E+00
  7.72218397E-01  2.12031498E-01  8.00000000E-01  3.04752488E+03  4.57369518E+02
  1.03948685E+02  2.92101553E+01  9.28666296E+00  3.16392696E+00  7.86827235E+00
  1.88128854E+00  5.44249258E-01  1.68714478E-01  8.00000000E-01  3.04752488E+03
  4.57369518E+02  1.03948685E+02  2.92101553E+01  9.28666296E+00  3.16392696E+00
  7.86827235E+00  1.88128854E+00  5.44249258E-01  1.68714478E-01  8.00000000E-01
  3.04752488E+03  4.57369518E+02  1.03948685E+02  2.92101553E+01  9.28666296E+00
  3.16392696E+00  7.86827235E+00  1.88128854E+00  5.44249258E-01  1.68714478E-01
  8.00000000E-01  3.04752488E+03  4.57369518E+02  1.03948685E+02  2.92101553E+01
  9.28666296E+00  3.16392696E+00  7.86827235E+00  1.88128854E+00  5.44249258E-01
  1.68714478E-01  8.00000000E-01  3.04752488E+03  4.57369518E+02  1.03948685E+02
  2.92101553E+01  9.28666296E+00  3.16392696E+00  7.86827235E+00  1.88128854E+00
  5.44249258E-01  1.68714478E-01  8.00000000E-01  3.04752488E+03  4.57369518E+02
  1.03948685E+02  2.92101553E+01  9.28666296E+00  3.16392696E+00  7.86827235E+00
  1.88128854E+00  5.44249258E-01  1.68714478E-01  8.00000000E-01  3.04752488E+03
  4.57369518E+02  1.03948685E+02  2.92101553E+01  9.28666296E+00  3.16392696E+00
  7.86827235E+00  1.88128854E+00  5.44249258E-01  1.68714478E-01  8.00000000E-01
  1.87311370E+01  2.82539436E+00  6.40121692E-01  1.61277759E-01  1.87311370E+01
  2.82539436E+00  6.40121692E-01  1.61277759E-01  1.87311370E+01  2.82539436E+00
  6.40121692E-01  1.61277759E-01  1.87311370E+01  2.82539436E+00  6.40121692E-01
  1.61277759E-01  1.87311370E+01  2.82539436E+00  6.40121692E-01  1.61277759E-01
  1.87311370E+01  2.82539436E+00  6.40121692E-01  1.61277759E-01  1.87311370E+01
  2.82539436E+00  6.40121692E-01  1.61277759E-01  1.87311370E+01  2.82539436E+00
  6.40121692E-01  1.61277759E-01
Contraction coefficients                   R   N=         142
  1.83107443E-03  1.39501722E-02  6.84450781E-02  2.32714336E-01  4.70192898E-01
  3.58520853E-01 -1.10777550E-01 -1.48026263E-01  1.13076702E+00  1.00000000E+00
  1.00000000E+00  1.83477216E-03  1.39946270E-02  6.85865518E-02  2.32240873E-01
  4.69069948E-01  3.60455199E-01 -1.14961182E-01 -1.69117479E-01  1.14585195E+00
  1.00000000E+00  1.00000000E+00  1.83477216E-03  1.39946270E-02  6.85865518E-02
  2.32240873E-01  4.69069948E-01  3.60455199E-01 -1.14961182E-01 -1.69117479E-01
  1.14585195E+00  1.00000000E+00  1.00000000E+00  1.83473713E-03  1.40373228E-02
  6.88426223E-02  2.32184443E-01  4.67941348E-01  3.62311985E-01 -1.19332420E-01
 -1.60854152E-01  1.14345644E+00  1.00000000E+00  1.00000000E+00  1.83473713E-03
  1.40373228E-02  6.88426223E-02  2.32184443E-01  4.67941348E-01  3.62311985E-01
 -1.19332420E-01 -1.60854152E-01  1.14345644E+00  1.00000000E+00  1.00000000E+00
  1.83473713E-03  1.40373228E-02  6.88426223E-02  2.32184443E-01  4.67941348E-01
  3.62311985E-01 -1.19332420E-01 -1.60854152E-01  1.14345644E+00  1.00000000E+00
  1.00000000E+00  1.83473713E-03  1.40373228E-02  6.88426223E-02  2.32184443E-01
  4.67941348E-01  3.62311985E-01 -1.19332420E-01 -1.60854152E-01  1.14345644E+00
  1.00000000E+00  1.00000000E+00  1.83473713E-03  1.40373228E-02  6.88426223E-02
  2.32184443E-01  4.67941348E-01  3.62311985E-01 -1.19332420E-01 -1.60854152E-01
  1.14345644E+00  1.00000000E+00  1.00000000E+00  1.83473713E-03  1.40373228E-02
  6.88426223E-02  2.32184443E-01  4.67941348E-01  3.62311985E-01 -1.19332420E-01
 -1.60854152E-01  1.14345644E+00  1.00000000E+00  1.00000000E+00  1.83473713E-03
  1.40373228E-02  6.88426223E-02  2.32184443E-01  4.67941348E-01  3.62311985E-01
 -1.19332420E-01 -1.60854152E-01  1.14345644E+00  1.00000000E+00  1.00000000E+00
  3.34946043E-02  2.34726953E-01  8.13757326E-01  1.00000000E+00  3.34946043E-02
  2.34726953E-01  8.13757326E-01  1.00000000E+00  3.34946043E-02  2.34726953E-01
  8.13757326E-01  1.00000000E+00  3.34946043E-02  2.34726953E-01  8.13757326E-01
  1.00000000E+00  3.34946043E-02  2.34726953E-01  8.13757326E-01  1.00000000E+00
  3.34946043E-02  2.34726953E-01  8.13757326E-01  1.00000000E+00  3.34946043E-02
  2.34726953E-01  8.13757326E-01  1.00000000E+00  3.34946043E-02  2.34726953E-01
  8.13757326E-01  1.00000000E+00
P(S=P) Contraction coefficients            R   N=         142
  0.00000000E+00  0.00000000E+00  0.00000000E+00  0.00000000E+00  0.00000000E+00
  0.00000000E+00  7.08742682E-02  3.39752839E-01  7.27158577E-01  1.00000000E+00
  0.00000000E+00  0.00000000E+00  0.00000000E+00  0.00000000E+00  0.00000000E+00
  0.00000000E+00  0.00000000E+00  6.75797439E-02  3.23907296E-01  7.40895140E-01
  1.00000000E+00  0.00000000E+00  0.00000000E+00  0.00000000E+00  0.00000000E+00
  0.00000000E+00  0.00000000E+00  0.00000000E+00  6.75797439E-02  3.23907296E-01
  7.40895140E-01  1.00000000E+00  0.00000000E+00  0.00000000E+00  0.00000000E+00
  0.00000000E+00  0.00000000E+00  0.00000000E+00  0.00000000E+00  6.89990666E-02
  3.16423961E-01  7.44308291E-01  1.00000000E+00  0.00000000E+00  0.00000000E+00
  0.00000000E+00  0.00000000E+00  0.00000000E+00  0.00000000E+00  0.00000000E+00
  6.89990666E-02  3.16423961E-01  7.44308291E-01  1.00000000E+00  0.00000000E+00
  0.00000000E+00  0.00000000E+00  0.00000000E+00  0.00000000E+00  0.00000000E+00
  0.00000000E+00  6.89990666E-02  3.16423961E-01  7.44308291E-01  1.00000000E+00
  0.00000000E+00  0.00000000E+00  0.00000000E+00  0.00000000E+00  0.00000000E+00
  0.00000000E+00  0.00000000E+00  6.89990666E-02  3.16423961E-01  7.44308291E-01
  1.00000000E+00  0.00000000E+00  0.00000000E+00  0.00000000E+00  0.00000000E+00
  0.00000000E+00  0.00000000E+00  0.00000000E+00  6.89990666E-02  3.16423961E-01
  7.44308291E-01  1.00000000E+00  0.00000000E+00  0.00000000E+00  0.00000000E+00
  0.00000000E+00  0.00000000E+00  0.00000000E+00  0.00000000E+00  6.89990666E-02
  3.16423961E-01  7.44308291E-01  1.00000000E+00  0.00000000E+00  0.00000000E+00
  0.00000000E+00  0.00000000E+00  0.00000000E+00  0.00000000E+00  0.00000000E+00
  6.89990666E-02  3.16423961E-01  7.44308291E-01  1.00000000E+00  0.00000000E+00
  0.00000000E+00  0.00000000E+00  0.00000000E+00  0.00000000E+00  0.00000000E+00
  0.00000000E+00  0.00000000E+00  0.00000000E+00  0.00000000E+00  0.00000000E+00
  0.00000000E+00  0.00000000E+00  0.00000000E+00  0.00000000E+00  0.00000000E+00
  0.00000000E+00  0.00000000E+00  0.00000000E+00  0.00000000E+00  0.00000000E+00
  0.00000000E+00  0.00000000E+00  0.00000000E+00  0.00000000E+00  0.00000000E+00
  0.00000000E+00  0.00000000E+00  0.00000000E+00  0.00000000E+00  0.00000000E+00
  0.00000000E+00  0.00000000E+00
Coordinates of each shell                  R   N=         168
  4.43648600E+00  1.42952952E+00 -9.77002011E-01  4.43648600E+00  1.42952952E+00
 -9.77002011E-01  4.43648600E+00  1.42952952E+00 -9.77002011E-01  4.43648600E+00
  1.42952952E+00 -9.77002011E-01  1.98788133E-01  4.16173292E+00  4.69660525E-01
  1.98788133E-01  4.16173292E+00  4.69660525E-01  1.98788133E-01  4.16173292E+00
  4.69660525E-01  1.98788133E-01  4.16173292E+00  4.69660525E-01  4.38123138E+00
 -2.51120623E+00  7.41342562E-01  4.38123138E+00 -2.51120623E+00  7.41342562E-01
  4.38123138E+00 -2.51120623E+00  7.41342562E-01  4.38123138E+00 -2.51120623E+00
  7.41342562E-01  3.85785712E-01 -4.30444198E-01 -6.20596629E-02  3.85785712E-01
 -4.30444198E-01 -6.20596629E-02  3.85785712E-01 -4.30444198E-01 -6.20596629E-02
  3.85785712E-01 -4.30444198E-01 -6.20596629E-02 -1.00015200E+00  1.84865223E+00
  1.36409407E-01 -1.00015200E+00  1.84865223E+00  1.36409407E-01 -1.00015200E+00
  1.84865223E+00  1.36409407E-01 -1.00015200E+00  1.84865223E+00  1.36409407E-01
 -9.03406983E-01 -2.73399596E+00 -3.29718525E-01 -9.03406983E-01 -2.73399596E+00
 -3.29718525E-01 -9.03406983E-01 -2.73399596E+00 -3.29718525E-01 -9.03406983E-01
 -2.73399596E+00 -3.29718525E-01 -3.65144374E+00  1.69639630E+00  2.35113222E-01
 -3.65144374E+00  1.69639630E+00  2.35113222E-01 -3.65144374E+00  1.69639630E+00
  2.35113222E-01 -3.65144374E+00  1.69639630E+00  2.35113222E-01 -3.52964752E+00
 -2.84245112E+00 -2.84866742E-01 -3.52964752E+00 -2.84245112E+00 -2.84866742E-01
 -3.52964752E+00 -2.84245112E+00 -2.84866742E-01 -3.52964752E+00 -2.84245112E+00
 -2.84866742E-01 -4.90003338E+00 -6.02737283E-01 -3.03876702E-03 -4.90003338E+00
 -6.02737283E-01 -3.03876702E-03 -4.90003338E+00 -6.02737283E-01 -3.03876702E-03
 -4.90003338E+00 -6.02737283E-01 -3.03876702E-03  3.20160661E+00 -3.70425982E-01
 -1.33752258E-01  3.20160661E+00 -3.70425982E-01 -1.33752258E-01  3.20160661E+00
 -3.70425982E-01 -1.33752258E-01  3.20160661E+00 -3.70425982E-01 -1.33752258E-01
  1.82050037E-01 -4.45432990E+00 -6.22458225E-01  1.82050037E-01 -4.45432990E+00
 -6.22458225E-01 -4.73353757E+00  3.43484858E+00  4.38983652E-01 -4.73353757E+00
  3.43484858E+00  4.38983652E-01 -4.49689182E+00 -4.63871444E+00 -5.15876708E-01
 -4.49689182E+00 -4.63871444E+00 -5.15876708E-01 -6.95447970E+00 -6.45335538E-01
  4.64926315E-02 -6.95447970E+00 -6.45335538E-01  4.64926315E-02  1.95406221E+00
  4.21945816E+00 -3.06748073E-01  1.95406221E+00  4.21945816E+00 -3.06748073E-01
 -8.83214762E-01  5.67142230E+00  1.87441173E-03 -8.83214762E-01  5.67142230E+00
  1.87441173E-03  3.48218343E+00 -3.60486465E+00  2.02338551E+00  3.48218343E+00
 -3.60486465E+00  2.02338551E+00  6.28155138E+00 -2.36237138E+00  9.24821236E-01
  6.28155138E+00 -2.36237138E+00  9.24821236E-01
Constraint Structure                       R   N=          54
  4.43648600E+00  1.42952952E+00 -9.77002011E-01  1.98788133E-01  4.16173292E+00
  4.69660525E-01  4.38123138E+00 -2.51120623E+00  7.41342562E-01  3.85785712E-01
 -4.30444198E-01 -6.20596629E-02 -1.00015200E+00  1.84865223E+00  1.36409407E-01
 -9.03406983E-01 -2.73399596E+00 -3.29718525E-01 -3.65144374E+00  1.69639630E+00
  2.35113222E-01 -3.52964752E+00 -2.84245112E+00 -2.84866742E-01 -4.90003338E+00
 -6.02737283E-01 -3.03876702E-03  3.20160661E+00 -3.70425982E-01 -1.33752258E-01
  1.82050037E-01 -4.45432990E+00 -6.22458225E-01 -4.73353757E+00  3.43484858E+00
  4.38983652E-01 -4.49689182E+00 -4.63871444E+00 -5.15876708E-01 -6.95447970E+00
 -6.45335538E-01  4.64926315E-02  1.95406221E+00  4.21945816E+00 -3.06748073E-01
 -8.83214762E-01  5.67142230E+00  1.87441173E-03  3.48218343E+00 -3.60486465E+00
  2.02338551E+00  6.28155138E+00 -2.36237138E+00  9.24821236E-01
Num ILSW                                   I              100
ILSW                                       I   N=         100
           0           1           0           0           2           0
           0           0           0           0           0          -1
           0           0           0           0           0           0
           0           0           0           0           1           0
           1           0           0           0           0           0
           0           0      100000           0          -1           0
           0           0           0           0           0           0
           0           0           0           1           1           0
           0           0           1           0           0           0
           0           0           4          40           0           0
           0           0           0           0           0           0
           0           0           0           0           0           0
           0           0           0           0           0           0
           0           0           0           0           0           0
           0           0           0           0           0           0
           0           0           0           0           0           0
           0           0           0           0
Num RLSW                                   I               40
RLSW                                       R   N=          40
  1.00000000E+00  1.00000000E+00  1.00000000E+00  1.00000000E+00  1.00000000E+00
  0.00000000E+00  0.00000000E+00  1.00000000E+00  0.00000000E+00  0.00000000E+00
  0.00000000E+00  0.00000000E+00  1.00000000E+00  0.00000000E+00  0.00000000E+00
  0.00000000E+00  0.00000000E+00  1.00000000E+00  0.00000000E+00  0.00000000E+00
  0.00000000E+00  0.00000000E+00  1.00000000E+00  0.00000000E+00  0.00000000E+00
  0.00000000E+00  0.00000000E+00  1.00000000E+00  0.00000000E+00  0.00000000E+00
  0.00000000E+00  0.00000000E+00  0.00000000E+00  0.00000000E+00  0.00000000E+00
  0.00000000E+00  0.00000000E+00  0.00000000E+00  1.00000000E+00  1.00000000E+00
MxBond                                     I                3
NBond                                      I   N=          18
           1           3           3           3           3           3
           3           3           3           3           1           1
           1           1           1           1           1           1
IBond                                      I   N=          54
          10           0           0           5          15          16
          10          17          18           5           6          10
           2           4           7           4           8          11
           5           9          12           6           9          13
           7           8          14           1           3           4
           6           0           0           7           0           0
           8           0           0           9           0           0
           2           0           0           2           0           0
           3           0           0           3           0           0
RBond                                      R   N=          54
  2.00000000E+00  0.00000000E+00  0.00000000E+00  1.00000000E+00  1.00000000E+00
  1.00000000E+00  1.00000000E+00  1.00000000E+00  1.00000000E+00  1.50000000E+00
  1.50000000E+00  1.00000000E+00  1.00000000E+00  1.50000000E+00  1.50000000E+00
  1.50000000E+00  1.50000000E+00  1.00000000E+00  1.50000000E+00  1.50000000E+00
  1.00000000E+00  1.50000000E+00  1.50000000E+00  1.00000000E+00  1.50000000E+00
  1.50000000E+00  1.00000000E+00  2.00000000E+00  1.00000000E+00  1.00000000E+00
  1.00000000E+00  0.00000000E+00  0.00000000E+00  1.00000000E+00  0.00000000E+00
  0.00000000E+00  1.00000000E+00  0.00000000E+00  0.00000000E+00  1.00000000E+00
  0.00000000E+00  0.00000000E+00  1.00000000E+00  0.00000000E+00  0.00000000E+00
  1.00000000E+00  0.00000000E+00  0.00000000E+00  1.00000000E+00  0.00000000E+00
  0.00000000E+00  1.00000000E+00  0.00000000E+00  0.00000000E+00
Virial Ratio                               R      2.002619685889714E+00
SCF Energy                                 R     -4.535160663426639E+02
MP2 Energy                                 R     -4.549036438707991E+02
Total Energy                               R     -4.549036438707991E+02
Post-SCF wavefunction norm                 R      1.715048880721147E+00
RMS Force                                  R      5.927287173524506E-07
RMS Density                                R      1.227945899780158E-09
External E-field                           R   N=          35
  0.00000000E+00  0.00000000E+00  0.00000000E+00  0.00000000E+00  0.00000000E+00
  0.00000000E+00  0.00000000E+00  0.00000000E+00  0.00000000E+00  0.00000000E+00
  0.00000000E+00  0.00000000E+00  0.00000000E+00  0.00000000E+00  0.00000000E+00
  0.00000000E+00  0.00000000E+00  0.00000000E+00  0.00000000E+00  0.00000000E+00
  0.00000000E+00  0.00000000E+00  0.00000000E+00  0.00000000E+00  0.00000000E+00
  0.00000000E+00  0.00000000E+00  0.00000000E+00  0.00000000E+00  0.00000000E+00
  0.00000000E+00  0.00000000E+00  0.00000000E+00  0.00000000E+00  0.00000000E+00
IOpCl                                      I                0
IROHF                                      I                0
Alpha Orbital Energies                     R   N=         166
 -2.05291761E+01 -1.55884775E+01 -1.55586784E+01 -1.13620351E+01 -1.12936264E+01
 -1.12535061E+01 -1.12509668E+01 -1.12408023E+01 -1.12319432E+01 -1.12299038E+01
 -1.37424812E+00 -1.22156536E+00 -1.20905249E+00 -1.13148461E+00 -1.03141741E+00
 -9.93335363E-01 -8.71918230E-01 -8.28630969E-01 -7.87592165E-01 -7.31601300E-01
 -6.93927406E-01 -6.82493811E-01 -6.68515143E-01 -6.31605077E-01 -6.03547512E-01
 -5.98526800E-01 -5.79699482E-01 -5.68407758E-01 -5.33489472E-01 -5.17170511E-01
 -5.04902160E-01 -4.47873730E-01 -4.26624400E-01 -4.12062852E-01 -3.45587099E-01
 -2.95716832E-01  1.05089119E-01  1.50372985E-01  2.16081719E-01  2.35468250E-01
  2.44480977E-01  2.56706537E-01  2.78080877E-01  3.03658608E-01  3.21961493E-01
  3.37581794E-01  3.53913635E-01  3.76376122E-01  4.38616002E-01  4.43484775E-01
  4.78268817E-01  5.02140238E-01  5.26733885E-01  5.34632199E-01  5.66954029E-01
  6.16567065E-01  7.05996472E-01  7.20118649E-01  7.40519064E-01  7.54598977E-01
  7.63608773E-01  7.85083128E-01  7.95629428E-01  8.18605820E-01  8.29035180E-01
  8.30363407E-01  8.39033379E-01  8.50261295E-01  8.76715660E-01  9.05102058E-01
  9.30163315E-01  9.40006145E-01  9.44341320E-01  9.68665874E-01  9.86124479E-01
  1.00299617E+00  1.04673344E+00  1.07762876E+00  1.08704111E+00  1.10250866E+00
  1.10939814E+00  1.14204179E+00  1.14659233E+00  1.16964582E+00  1.17508816E+00
  1.19476733E+00  1.21361447E+00  1.22564259E+00  1.23218734E+00  1.27164556E+00
  1.28031615E+00  1.30878030E+00  1.31819398E+00  1.33656190E+00  1.35821778E+00
  1.40293059E+00  1.42886958E+00  1.43474850E+00  1.48485252E+00  1.52724756E+00
  1.54437408E+00  1.56880114E+00  1.62240528E+00  1.64614500E+00  1.68340943E+00
  1.71126718E+00  1.71970224E+00  1.74522812E+00  1.76592340E+00  1.78092250E+00
  1.85520308E+00  1.96870293E+00  2.00932014E+00  2.03940133E+00  2.05361942E+00
  2.07989389E+00  2.14068637E+00  2.14541265E+00  2.16240374E+00  2.18923936E+00
  2.21291174E+00  2.22933453E+00  2.25539957E+00  2.28488327E+00  2.32078219E+00
  2.35185937E+00  2.40912352E+00  2.42189079E+00  2.44525372E+00  2.50409661E+00
  2.50751137E+00  2.53456143E+00  2.56312726E+00  2.57255698E+00  2.60100672E+00
  2.61477663E+00  2.68609031E+00  2.74035114E+00  2.76854893E+00  2.80588075E+00
  2.85602099E+00  2.90573605E+00  2.93688930E+00  2.94714889E+00  2.97782023E+00
  3.00427017E+00  3.02129574E+00  3.08103324E+00  3.10879137E+00  3.18595218E+00
  3.21684620E+00  3.23805829E+00  3.35965964E+00  3.42489346E+00  3.57926191E+00
  3.79905346E+00  4.23709115E+00  4.33019379E+00  4.46946378E+00  4.51217336E+00
  4.54777538E+00  4.56706704E+00  4.73983673E+00  4.78792377E+00  4.90241867E+00
  5.15668911E+00
Alpha MO coefficients                      R   N=       27556
  9.94676160E-01  2.09564622E-02 -7.89582172E-04 -1.13801269E-03  5.39344856E-04
  4.57521772E-03  3.00306776E-05  1.29431701E-04 -1.72234960E-05 -3.87798502E-03
 -3.85094469E-03 -4.07668518E-03  8.45197695E-05 -4.86858721E-05 -1.50718954E-04
 -4.93204785E-06 -1.44445903E-05 -1.44549092E-05 -1.05633135E-05  7.18917648E-06
  1.14871821E-04  1.75309289E-04  1.10137943E-04 -5.88044996E-05  7.90943500E-07
 -2.78507417E-05 -8.64235973E-06 -1.94063169E-07 -9.45132029E-06 -6.44236473E-06
 -8.89174020E-06 -3.07358436E-05 -1.33680968E-05 -3.09686880E-05  1.51019031E-05
  1.13717050E-04  4.42834372E-05  5.28629652E-05 -3.13462779E-05  3.72544964E-05
 -6.46340069E-05 -5.66643182E-05 -4.58587230E-05  2.15086989E-05  1.10902794E-05
  2.58777036E-06  2.03413849E-05 -1.61126990E-05 -5.89310658E-06  1.31495927E-05
 -1.97531499E-04 -1.28496499E-04 -8.11052079E-05 -3.76111284E-05 -7.91563965E-06
 -4.84271004E-06 -9.86299958E-06 -6.69353638E-05  2.38996542E-05 -1.21508796E-06
 -1.05489884E-06 -1.53714256E-05  6.08014156E-06  8.89056957E-06  1.88256097E-07
  2.33029496E-04  1.43308377E-05  1.00356934E-04  4.54366612E-05  1.61290877E-05
 -7.62192826E-06  1.76814972E-07  9.57707367E-06  2.34530860E-06 -6.87563106E-07
  5.01879950E-07  5.46988525E-06  1.32425855E-05  8.02859584E-06  3.01649319E-06
  5.18968832E-05 -1.95199934E-04  5.93711282E-06  9.11756531E-06 -5.67950040E-06
  1.31607485E-05  3.31794320E-06  1.17993072E-06 -1.19647288E-06  4.10660401E-06
  1.96905953E-06  1.21909696E-05 -4.13947123E-06 -2.45588252E-06 -6.24614898E-07
 -1.47649685E-04 -3.37037947E-05  4.61511759E-05  8.95702765E-08 -5.53225161E-06
 -2.84535675E-07  3.49424590E-06 -3.67324380E-06 -1.27982389E-06  3.20156694E-07
  2.81606228E-06  1.54480415E-05  9.64024392E-07 -1.33213461E-06 -6.73854725E-07
 -2.20382376E-04 -1.15318738E-04 -5.71535632E-05 -5.06149317E-06 -3.91515531E-07
 -4.51622379E-07  5.45034352E-06 -1.87991728E-06 -5.75973898E-07 -7.18615962E-07
 -1.59004318E-06 -8.85835074E-06 -6.67313404E-07 -1.25297769E-06 -2.11311383E-07
  1.08837335E-04  8.91047355E-05  2.95966261E-05  2.12780990E-06 -8.25120936E-08
  6.18968885E-07 -2.62220760E-06  9.11773569E-07 -6.87554850E-09  7.76407420E-07
 -3.22535365E-06  5.06838586E-04  2.93540714E-05  1.41029267E-05 -1.07405271E-05
 -2.34698237E-04 -4.25845224E-04 -3.05566880E-04  1.58851359E-04 -2.17956676E-04