138864                                                                  
Freq      RMP2-FC                                                     6-31G(d)            
Number of atoms                            I               22
Info1-9                                    I   N=           9
          34          32        1002           0           0         100
           6           2           1
Charge                                     I                0
Multiplicity                               I                1
Number of electrons                        I               72
Number of alpha electrons                  I               36
Number of beta electrons                   I               36
Number of basis functions                  I              174
Number of independent functions            I              174
Number of point charges in /Mol/           I                0
Number of translation vectors              I                0
Atomic numbers                             I   N=          22
           6           6           6           6           6           6
           6           6           6           6           1           1
           1           1           1           1           1           1
           1           1           1           1
Nuclear charges                            R   N=          22
  6.00000000E+00  6.00000000E+00  6.00000000E+00  6.00000000E+00  6.00000000E+00
  6.00000000E+00  6.00000000E+00  6.00000000E+00  6.00000000E+00  6.00000000E+00
  1.00000000E+00  1.00000000E+00  1.00000000E+00  1.00000000E+00  1.00000000E+00
  1.00000000E+00  1.00000000E+00  1.00000000E+00  1.00000000E+00  1.00000000E+00
  1.00000000E+00  1.00000000E+00
Current cartesian coordinates              R   N=          66
 -4.01181697E+00 -2.26745358E-06 -9.98874508E-01 -5.71879924E+00  1.42153061E+00
  7.82117453E-01 -5.71879938E+00 -1.42152777E+00  7.82123279E-01 -1.22135511E+00
 -1.27460752E-06 -5.86643755E-01  1.24379353E-01  2.27332113E+00 -4.17920125E-01
  1.24380667E-01 -2.27332277E+00 -4.17920445E-01  2.73974743E+00  2.27017701E+00
 -8.91569138E-02  2.73974869E+00 -2.27017711E+00 -8.91572287E-02  4.09110293E+00
  2.77146123E-07  7.70039140E-02  6.90457814E+00  1.33722361E-06  5.15815361E-01
 -4.59930272E+00 -6.98668639E-06 -2.97241689E+00 -7.34582362E+00  2.39980966E+00
  5.91673616E-03 -4.83060002E+00  2.36869112E+00  2.36991373E+00 -4.83059911E+00
 -2.36868243E+00  2.36992246E+00 -7.34582466E+00 -2.39980930E+00  5.92762228E-03
 -8.94267982E-01  4.05615594E+00 -5.47480224E-01 -8.94265471E-01 -4.05615828E+00
 -5.47480366E-01  3.74989905E+00  4.05957620E+00  3.42784033E-02  3.74990105E+00
 -4.05957584E+00  3.42779068E-02  7.78702922E+00 -1.67306909E+00 -3.17736118E-01
  7.78702771E+00  1.67307318E+00 -3.17734895E-01  7.34782756E+00  7.87359480E-07
  2.53828945E+00
Force Field                                I                0
Int Atom Types                             I   N=          22
           0           0           0           0           0           0
           0           0           0           0           0           0
           0           0           0           0           0           0
           0           0           0           0
MM charges                                 R   N=          22
  0.00000000E+00  0.00000000E+00  0.00000000E+00  0.00000000E+00  0.00000000E+00
  0.00000000E+00  0.00000000E+00  0.00000000E+00  0.00000000E+00  0.00000000E+00
  0.00000000E+00  0.00000000E+00  0.00000000E+00  0.00000000E+00  0.00000000E+00
  0.00000000E+00  0.00000000E+00  0.00000000E+00  0.00000000E+00  0.00000000E+00
  0.00000000E+00  0.00000000E+00
Integer atomic weights                     I   N=          22
          12          12          12          12          12          12
          12          12          12          12           1           1
           1           1           1           1           1           1
           1           1           1           1
Real atomic weights                        R   N=          22
  1.20000000E+01  1.20000000E+01  1.20000000E+01  1.20000000E+01  1.20000000E+01
  1.20000000E+01  1.20000000E+01  1.20000000E+01  1.20000000E+01  1.20000000E+01
  1.00782504E+00  1.00782504E+00  1.00782504E+00  1.00782504E+00  1.00782504E+00
  1.00782504E+00  1.00782504E+00  1.00782504E+00  1.00782504E+00  1.00782504E+00
  1.00782504E+00  1.00782504E+00
Atom fragment info                         I   N=          22
           0           0           0           0           0           0
           0           0           0           0           0           0
           0           0           0           0           0           0
           0           0           0           0
Atom residue num                           I   N=          22
           0           0           0           0           0           0
           0           0           0           0           0           0
           0           0           0           0           0           0
           0           0           0           0
Nuclear spins                              I   N=          22
           0           0           0           0           0           0
           0           0           0           0           1           1
           1           1           1           1           1           1
           1           1           1           1
Nuclear ZEff                               R   N=          22
 -3.60000000E+00 -3.60000000E+00 -3.60000000E+00 -3.60000000E+00 -3.60000000E+00
 -3.60000000E+00 -3.60000000E+00 -3.60000000E+00 -3.60000000E+00 -3.60000000E+00
 -1.00000000E+00 -1.00000000E+00 -1.00000000E+00 -1.00000000E+00 -1.00000000E+00
 -1.00000000E+00 -1.00000000E+00 -1.00000000E+00 -1.00000000E+00 -1.00000000E+00
 -1.00000000E+00 -1.00000000E+00
Nuclear QMom                               R   N=          22
  0.00000000E+00  0.00000000E+00  0.00000000E+00  0.00000000E+00  0.00000000E+00
  0.00000000E+00  0.00000000E+00  0.00000000E+00  0.00000000E+00  0.00000000E+00
  0.00000000E+00  0.00000000E+00  0.00000000E+00  0.00000000E+00  0.00000000E+00
  0.00000000E+00  0.00000000E+00  0.00000000E+00  0.00000000E+00  0.00000000E+00
  0.00000000E+00  0.00000000E+00
Nuclear GFac                               R   N=          22
  0.00000000E+00  0.00000000E+00  0.00000000E+00  0.00000000E+00  0.00000000E+00
  0.00000000E+00  0.00000000E+00  0.00000000E+00  0.00000000E+00  0.00000000E+00
  2.79284600E+00  2.79284600E+00  2.79284600E+00  2.79284600E+00  2.79284600E+00
  2.79284600E+00  2.79284600E+00  2.79284600E+00  2.79284600E+00  2.79284600E+00
  2.79284600E+00  2.79284600E+00
MicOpt                                     I   N=          22
          -1          -1          -1          -1          -1          -1
          -1          -1          -1          -1          -1          -1
          -1          -1          -1          -1          -1          -1
          -1          -1          -1          -1
Number of contracted shells                I               64
Number of primitive shells                 I              158
Pure/Cartesian d shells                    I                1
Pure/Cartesian f shells                    I                0
Highest angular momentum                   I                2
Largest degree of contraction              I                6
Shell types                                I   N=          64
           0          -1          -1           2           0          -1
          -1           2           0          -1          -1           2
           0          -1          -1           2           0          -1
          -1           2           0          -1          -1           2
           0          -1          -1           2           0          -1
          -1           2           0          -1          -1           2
           0          -1          -1           2           0           0
           0           0           0           0           0           0
           0           0           0           0           0           0
           0           0           0           0           0           0
           0           0           0           0
Number of primitives per shell             I   N=          64
           6           3           1           1           6           3
           1           1           6           3           1           1
           6           3           1           1           6           3
           1           1           6           3           1           1
           6           3           1           1           6           3
           1           1           6           3           1           1
           6           3           1           1           3           1
           3           1           3           1           3           1
           3           1           3           1           3           1
           3           1           3           1           3           1
           3           1           3           1
Shell to atom map                          I   N=          64
           1           1           1           1           2           2
           2           2           3           3           3           3
           4           4           4           4           5           5
           5           5           6           6           6           6
           7           7           7           7           8           8
           8           8           9           9           9           9
          10          10          10          10          11          11
          12          12          13          13          14          14
          15          15          16          16          17          17
          18          18          19          19          20          20
          21          21          22          22
Primitive exponents                        R   N=         158
  3.04752488E+03  4.57369518E+02  1.03948685E+02  2.92101553E+01  9.28666296E+00
  3.16392696E+00  7.86827235E+00  1.88128854E+00  5.44249258E-01  1.68714478E-01
  8.00000000E-01  3.04752488E+03  4.57369518E+02  1.03948685E+02  2.92101553E+01
  9.28666296E+00  3.16392696E+00  7.86827235E+00  1.88128854E+00  5.44249258E-01
  1.68714478E-01  8.00000000E-01  3.04752488E+03  4.57369518E+02  1.03948685E+02
  2.92101553E+01  9.28666296E+00  3.16392696E+00  7.86827235E+00  1.88128854E+00
  5.44249258E-01  1.68714478E-01  8.00000000E-01  3.04752488E+03  4.57369518E+02
  1.03948685E+02  2.92101553E+01  9.28666296E+00  3.16392696E+00  7.86827235E+00
  1.88128854E+00  5.44249258E-01  1.68714478E-01  8.00000000E-01  3.04752488E+03
  4.57369518E+02  1.03948685E+02  2.92101553E+01  9.28666296E+00  3.16392696E+00
  7.86827235E+00  1.88128854E+00  5.44249258E-01  1.68714478E-01  8.00000000E-01
  3.04752488E+03  4.57369518E+02  1.03948685E+02  2.92101553E+01  9.28666296E+00
  3.16392696E+00  7.86827235E+00  1.88128854E+00  5.44249258E-01  1.68714478E-01
  8.00000000E-01  3.04752488E+03  4.57369518E+02  1.03948685E+02  2.92101553E+01
  9.28666296E+00  3.16392696E+00  7.86827235E+00  1.88128854E+00  5.44249258E-01
  1.68714478E-01  8.00000000E-01  3.04752488E+03  4.57369518E+02  1.03948685E+02
  2.92101553E+01  9.28666296E+00  3.16392696E+00  7.86827235E+00  1.88128854E+00
  5.44249258E-01  1.68714478E-01  8.00000000E-01  3.04752488E+03  4.57369518E+02
  1.03948685E+02  2.92101553E+01  9.28666296E+00  3.16392696E+00  7.86827235E+00
  1.88128854E+00  5.44249258E-01  1.68714478E-01  8.00000000E-01  3.04752488E+03
  4.57369518E+02  1.03948685E+02  2.92101553E+01  9.28666296E+00  3.16392696E+00
  7.86827235E+00  1.88128854E+00  5.44249258E-01  1.68714478E-01  8.00000000E-01
  1.87311370E+01  2.82539436E+00  6.40121692E-01  1.61277759E-01  1.87311370E+01
  2.82539436E+00  6.40121692E-01  1.61277759E-01  1.87311370E+01  2.82539436E+00
  6.40121692E-01  1.61277759E-01  1.87311370E+01  2.82539436E+00  6.40121692E-01
  1.61277759E-01  1.87311370E+01  2.82539436E+00  6.40121692E-01  1.61277759E-01
  1.87311370E+01  2.82539436E+00  6.40121692E-01  1.61277759E-01  1.87311370E+01
  2.82539436E+00  6.40121692E-01  1.61277759E-01  1.87311370E+01  2.82539436E+00
  6.40121692E-01  1.61277759E-01  1.87311370E+01  2.82539436E+00  6.40121692E-01
  1.61277759E-01  1.87311370E+01  2.82539436E+00  6.40121692E-01  1.61277759E-01
  1.87311370E+01  2.82539436E+00  6.40121692E-01  1.61277759E-01  1.87311370E+01
  2.82539436E+00  6.40121692E-01  1.61277759E-01
Contraction coefficients                   R   N=         158
  1.83473713E-03  1.40373228E-02  6.88426223E-02  2.32184443E-01  4.67941348E-01
  3.62311985E-01 -1.19332420E-01 -1.60854152E-01  1.14345644E+00  1.00000000E+00
  1.00000000E+00  1.83473713E-03  1.40373228E-02  6.88426223E-02  2.32184443E-01
  4.67941348E-01  3.62311985E-01 -1.19332420E-01 -1.60854152E-01  1.14345644E+00
  1.00000000E+00  1.00000000E+00  1.83473713E-03  1.40373228E-02  6.88426223E-02
  2.32184443E-01  4.67941348E-01  3.62311985E-01 -1.19332420E-01 -1.60854152E-01
  1.14345644E+00  1.00000000E+00  1.00000000E+00  1.83473713E-03  1.40373228E-02
  6.88426223E-02  2.32184443E-01  4.67941348E-01  3.62311985E-01 -1.19332420E-01
 -1.60854152E-01  1.14345644E+00  1.00000000E+00  1.00000000E+00  1.83473713E-03
  1.40373228E-02  6.88426223E-02  2.32184443E-01  4.67941348E-01  3.62311985E-01
 -1.19332420E-01 -1.60854152E-01  1.14345644E+00  1.00000000E+00  1.00000000E+00
  1.83473713E-03  1.40373228E-02  6.88426223E-02  2.32184443E-01  4.67941348E-01
  3.62311985E-01 -1.19332420E-01 -1.60854152E-01  1.14345644E+00  1.00000000E+00
  1.00000000E+00  1.83473713E-03  1.40373228E-02  6.88426223E-02  2.32184443E-01
  4.67941348E-01  3.62311985E-01 -1.19332420E-01 -1.60854152E-01  1.14345644E+00
  1.00000000E+00  1.00000000E+00  1.83473713E-03  1.40373228E-02  6.88426223E-02
  2.32184443E-01  4.67941348E-01  3.62311985E-01 -1.19332420E-01 -1.60854152E-01
  1.14345644E+00  1.00000000E+00  1.00000000E+00  1.83473713E-03  1.40373228E-02
  6.88426223E-02  2.32184443E-01  4.67941348E-01  3.62311985E-01 -1.19332420E-01
 -1.60854152E-01  1.14345644E+00  1.00000000E+00  1.00000000E+00  1.83473713E-03
  1.40373228E-02  6.88426223E-02  2.32184443E-01  4.67941348E-01  3.62311985E-01
 -1.19332420E-01 -1.60854152E-01  1.14345644E+00  1.00000000E+00  1.00000000E+00
  3.34946043E-02  2.34726953E-01  8.13757326E-01  1.00000000E+00  3.34946043E-02
  2.34726953E-01  8.13757326E-01  1.00000000E+00  3.34946043E-02  2.34726953E-01
  8.13757326E-01  1.00000000E+00  3.34946043E-02  2.34726953E-01  8.13757326E-01
  1.00000000E+00  3.34946043E-02  2.34726953E-01  8.13757326E-01  1.00000000E+00
  3.34946043E-02  2.34726953E-01  8.13757326E-01  1.00000000E+00  3.34946043E-02
  2.34726953E-01  8.13757326E-01  1.00000000E+00  3.34946043E-02  2.34726953E-01
  8.13757326E-01  1.00000000E+00  3.34946043E-02  2.34726953E-01  8.13757326E-01
  1.00000000E+00  3.34946043E-02  2.34726953E-01  8.13757326E-01  1.00000000E+00
  3.34946043E-02  2.34726953E-01  8.13757326E-01  1.00000000E+00  3.34946043E-02
  2.34726953E-01  8.13757326E-01  1.00000000E+00
P(S=P) Contraction coefficients            R   N=         158
  0.00000000E+00  0.00000000E+00  0.00000000E+00  0.00000000E+00  0.00000000E+00
  0.00000000E+00  6.89990666E-02  3.16423961E-01  7.44308291E-01  1.00000000E+00
  0.00000000E+00  0.00000000E+00  0.00000000E+00  0.00000000E+00  0.00000000E+00
  0.00000000E+00  0.00000000E+00  6.89990666E-02  3.16423961E-01  7.44308291E-01
  1.00000000E+00  0.00000000E+00  0.00000000E+00  0.00000000E+00  0.00000000E+00
  0.00000000E+00  0.00000000E+00  0.00000000E+00  6.89990666E-02  3.16423961E-01
  7.44308291E-01  1.00000000E+00  0.00000000E+00  0.00000000E+00  0.00000000E+00
  0.00000000E+00  0.00000000E+00  0.00000000E+00  0.00000000E+00  6.89990666E-02
  3.16423961E-01  7.44308291E-01  1.00000000E+00  0.00000000E+00  0.00000000E+00
  0.00000000E+00  0.00000000E+00  0.00000000E+00  0.00000000E+00  0.00000000E+00
  6.89990666E-02  3.16423961E-01  7.44308291E-01  1.00000000E+00  0.00000000E+00
  0.00000000E+00  0.00000000E+00  0.00000000E+00  0.00000000E+00  0.00000000E+00
  0.00000000E+00  6.89990666E-02  3.16423961E-01  7.44308291E-01  1.00000000E+00
  0.00000000E+00  0.00000000E+00  0.00000000E+00  0.00000000E+00  0.00000000E+00
  0.00000000E+00  0.00000000E+00  6.89990666E-02  3.16423961E-01  7.44308291E-01
  1.00000000E+00  0.00000000E+00  0.00000000E+00  0.00000000E+00  0.00000000E+00
  0.00000000E+00  0.00000000E+00  0.00000000E+00  6.89990666E-02  3.16423961E-01
  7.44308291E-01  1.00000000E+00  0.00000000E+00  0.00000000E+00  0.00000000E+00
  0.00000000E+00  0.00000000E+00  0.00000000E+00  0.00000000E+00  6.89990666E-02
  3.16423961E-01  7.44308291E-01  1.00000000E+00  0.00000000E+00  0.00000000E+00
  0.00000000E+00  0.00000000E+00  0.00000000E+00  0.00000000E+00  0.00000000E+00
  6.89990666E-02  3.16423961E-01  7.44308291E-01  1.00000000E+00  0.00000000E+00
  0.00000000E+00  0.00000000E+00  0.00000000E+00  0.00000000E+00  0.00000000E+00
  0.00000000E+00  0.00000000E+00  0.00000000E+00  0.00000000E+00  0.00000000E+00
  0.00000000E+00  0.00000000E+00  0.00000000E+00  0.00000000E+00  0.00000000E+00
  0.00000000E+00  0.00000000E+00  0.00000000E+00  0.00000000E+00  0.00000000E+00
  0.00000000E+00  0.00000000E+00  0.00000000E+00  0.00000000E+00  0.00000000E+00
  0.00000000E+00  0.00000000E+00  0.00000000E+00  0.00000000E+00  0.00000000E+00
  0.00000000E+00  0.00000000E+00  0.00000000E+00  0.00000000E+00  0.00000000E+00
  0.00000000E+00  0.00000000E+00  0.00000000E+00  0.00000000E+00  0.00000000E+00
  0.00000000E+00  0.00000000E+00  0.00000000E+00  0.00000000E+00  0.00000000E+00
  0.00000000E+00  0.00000000E+00  0.00000000E+00
Coordinates of each shell                  R   N=         192
 -4.01181697E+00 -2.26745358E-06 -9.98874508E-01 -4.01181697E+00 -2.26745358E-06
 -9.98874508E-01 -4.01181697E+00 -2.26745358E-06 -9.98874508E-01 -4.01181697E+00
 -2.26745358E-06 -9.98874508E-01 -5.71879924E+00  1.42153061E+00  7.82117453E-01
 -5.71879924E+00  1.42153061E+00  7.82117453E-01 -5.71879924E+00  1.42153061E+00
  7.82117453E-01 -5.71879924E+00  1.42153061E+00  7.82117453E-01 -5.71879938E+00
 -1.42152777E+00  7.82123279E-01 -5.71879938E+00 -1.42152777E+00  7.82123279E-01
 -5.71879938E+00 -1.42152777E+00  7.82123279E-01 -5.71879938E+00 -1.42152777E+00
  7.82123279E-01 -1.22135511E+00 -1.27460752E-06 -5.86643755E-01 -1.22135511E+00
 -1.27460752E-06 -5.86643755E-01 -1.22135511E+00 -1.27460752E-06 -5.86643755E-01
 -1.22135511E+00 -1.27460752E-06 -5.86643755E-01  1.24379353E-01  2.27332113E+00
 -4.17920125E-01  1.24379353E-01  2.27332113E+00 -4.17920125E-01  1.24379353E-01
  2.27332113E+00 -4.17920125E-01  1.24379353E-01  2.27332113E+00 -4.17920125E-01
  1.24380667E-01 -2.27332277E+00 -4.17920445E-01  1.24380667E-01 -2.27332277E+00
 -4.17920445E-01  1.24380667E-01 -2.27332277E+00 -4.17920445E-01  1.24380667E-01
 -2.27332277E+00 -4.17920445E-01  2.73974743E+00  2.27017701E+00 -8.91569138E-02
  2.73974743E+00  2.27017701E+00 -8.91569138E-02  2.73974743E+00  2.27017701E+00
 -8.91569138E-02  2.73974743E+00  2.27017701E+00 -8.91569138E-02  2.73974869E+00
 -2.27017711E+00 -8.91572287E-02  2.73974869E+00 -2.27017711E+00 -8.91572287E-02
  2.73974869E+00 -2.27017711E+00 -8.91572287E-02  2.73974869E+00 -2.27017711E+00
 -8.91572287E-02  4.09110293E+00  2.77146123E-07  7.70039140E-02  4.09110293E+00
  2.77146123E-07  7.70039140E-02  4.09110293E+00  2.77146123E-07  7.70039140E-02
  4.09110293E+00  2.77146123E-07  7.70039140E-02  6.90457814E+00  1.33722361E-06
  5.15815361E-01  6.90457814E+00  1.33722361E-06  5.15815361E-01  6.90457814E+00
  1.33722361E-06  5.15815361E-01  6.90457814E+00  1.33722361E-06  5.15815361E-01
 -4.59930272E+00 -6.98668639E-06 -2.97241689E+00 -4.59930272E+00 -6.98668639E-06
 -2.97241689E+00 -7.34582362E+00  2.39980966E+00  5.91673616E-03 -7.34582362E+00
  2.39980966E+00  5.91673616E-03 -4.83060002E+00  2.36869112E+00  2.36991373E+00
 -4.83060002E+00  2.36869112E+00  2.36991373E+00 -4.83059911E+00 -2.36868243E+00
  2.36992246E+00 -4.83059911E+00 -2.36868243E+00  2.36992246E+00 -7.34582466E+00
 -2.39980930E+00  5.92762228E-03 -7.34582466E+00 -2.39980930E+00  5.92762228E-03
 -8.94267982E-01  4.05615594E+00 -5.47480224E-01 -8.94267982E-01  4.05615594E+00
 -5.47480224E-01 -8.94265471E-01 -4.05615828E+00 -5.47480366E-01 -8.94265471E-01
 -4.05615828E+00 -5.47480366E-01  3.74989905E+00  4.05957620E+00  3.42784033E-02
  3.74989905E+00  4.05957620E+00  3.42784033E-02  3.74990105E+00 -4.05957584E+00
  3.42779068E-02  3.74990105E+00 -4.05957584E+00  3.42779068E-02  7.78702922E+00
 -1.67306909E+00 -3.17736118E-01  7.78702922E+00 -1.67306909E+00 -3.17736118E-01
  7.78702771E+00  1.67307318E+00 -3.17734895E-01  7.78702771E+00  1.67307318E+00
 -3.17734895E-01  7.34782756E+00  7.87359480E-07  2.53828945E+00  7.34782756E+00
  7.87359480E-07  2.53828945E+00
Constraint Structure                       R   N=          66
 -4.01181697E+00 -2.26745358E-06 -9.98874508E-01 -5.71879924E+00  1.42153061E+00
  7.82117453E-01 -5.71879938E+00 -1.42152777E+00  7.82123279E-01 -1.22135511E+00
 -1.27460752E-06 -5.86643755E-01  1.24379353E-01  2.27332113E+00 -4.17920125E-01
  1.24380667E-01 -2.27332277E+00 -4.17920445E-01  2.73974743E+00  2.27017701E+00
 -8.91569138E-02  2.73974869E+00 -2.27017711E+00 -8.91572287E-02  4.09110293E+00
  2.77146123E-07  7.70039140E-02  6.90457814E+00  1.33722361E-06  5.15815361E-01
 -4.59930272E+00 -6.98668639E-06 -2.97241689E+00 -7.34582362E+00  2.39980966E+00
  5.91673616E-03 -4.83060002E+00  2.36869112E+00  2.36991373E+00 -4.83059911E+00
 -2.36868243E+00  2.36992246E+00 -7.34582466E+00 -2.39980930E+00  5.92762228E-03
 -8.94267982E-01  4.05615594E+00 -5.47480224E-01 -8.94265471E-01 -4.05615828E+00
 -5.47480366E-01  3.74989905E+00  4.05957620E+00  3.42784033E-02  3.74990105E+00
 -4.05957584E+00  3.42779068E-02  7.78702922E+00 -1.67306909E+00 -3.17736118E-01
  7.78702771E+00  1.67307318E+00 -3.17734895E-01  7.34782756E+00  7.87359480E-07
  2.53828945E+00
Num ILSW                                   I              100
ILSW                                       I   N=         100
           0           1           0           0           2           0
           0           0           0           0           0          -1
           0           0           0           0           0           0
           0           0           0           0           1           0
           1           0           0           0           0           0
           0           0      100000           0          -1           0
           0           0           0           0           0           0
           0           0           0           1           1           0
           0           0           1           0           0           0
           0           0           4          40           0           0
           0           0           0           0           0           0
           0           0           0           0           0           0
           0           0           0           0           0           0
           0           0           0           0           0           0
           0           0           0           0           0           0
           0           0           0           0           0           0
           0           0           0           0
Num RLSW                                   I               40
RLSW                                       R   N=          40
  1.00000000E+00  1.00000000E+00  1.00000000E+00  1.00000000E+00  1.00000000E+00
  0.00000000E+00  0.00000000E+00  1.00000000E+00  0.00000000E+00  0.00000000E+00
  0.00000000E+00  0.00000000E+00  1.00000000E+00  0.00000000E+00  0.00000000E+00
  0.00000000E+00  0.00000000E+00  1.00000000E+00  0.00000000E+00  0.00000000E+00
  0.00000000E+00  0.00000000E+00  1.00000000E+00  0.00000000E+00  0.00000000E+00
  0.00000000E+00  0.00000000E+00  1.00000000E+00  0.00000000E+00  0.00000000E+00
  0.00000000E+00  0.00000000E+00  0.00000000E+00  0.00000000E+00  0.00000000E+00
  0.00000000E+00  0.00000000E+00  0.00000000E+00  1.00000000E+00  1.00000000E+00
MxBond                                     I                4
NBond                                      I   N=          22
           4           4           4           3           3           3
           3           3           3           4           1           1
           1           1           1           1           1           1
           1           1           1           1
IBond                                      I   N=          88
           2           3           4          11           1           3
          12          13           1           2          14          15
           1           5           6           0           4           7
          16           0           4           8          17           0
           5           9          18           0           6           9
          19           0           7           8          10           0
           9          20          21          22           1           0
           0           0           2           0           0           0
           2           0           0           0           3           0
           0           0           3           0           0           0
           5           0           0           0           6           0
           0           0           7           0           0           0
           8           0           0           0          10           0
           0           0          10           0           0           0
          10           0           0           0
RBond                                      R   N=          88
  1.00000000E+00  1.00000000E+00  1.00000000E+00  1.00000000E+00  1.00000000E+00
  1.00000000E+00  1.00000000E+00  1.00000000E+00  1.00000000E+00  1.00000000E+00
  1.00000000E+00  1.00000000E+00  1.00000000E+00  1.50000000E+00  1.50000000E+00
  0.00000000E+00  1.50000000E+00  1.50000000E+00  1.00000000E+00  0.00000000E+00
  1.50000000E+00  1.50000000E+00  1.00000000E+00  0.00000000E+00  1.50000000E+00
  1.50000000E+00  1.00000000E+00  0.00000000E+00  1.50000000E+00  1.50000000E+00
  1.00000000E+00  0.00000000E+00  1.50000000E+00  1.50000000E+00  1.00000000E+00
  0.00000000E+00  1.00000000E+00  1.00000000E+00  1.00000000E+00  1.00000000E+00
  1.00000000E+00  0.00000000E+00  0.00000000E+00  0.00000000E+00  1.00000000E+00
  0.00000000E+00  0.00000000E+00  0.00000000E+00  1.00000000E+00  0.00000000E+00
  0.00000000E+00  0.00000000E+00  1.00000000E+00  0.00000000E+00  0.00000000E+00
  0.00000000E+00  1.00000000E+00  0.00000000E+00  0.00000000E+00  0.00000000E+00
  1.00000000E+00  0.00000000E+00  0.00000000E+00  0.00000000E+00  1.00000000E+00
  0.00000000E+00  0.00000000E+00  0.00000000E+00  1.00000000E+00  0.00000000E+00
  0.00000000E+00  0.00000000E+00  1.00000000E+00  0.00000000E+00  0.00000000E+00
  0.00000000E+00  1.00000000E+00  0.00000000E+00  0.00000000E+00  0.00000000E+00
  1.00000000E+00  0.00000000E+00  0.00000000E+00  0.00000000E+00  1.00000000E+00
  0.00000000E+00  0.00000000E+00  0.00000000E+00
Virial Ratio                               R      2.001651643376559E+00
SCF Energy                                 R     -3.856421196310114E+02
MP2 Energy                                 R     -3.869243288452830E+02
Total Energy                               R     -3.869243288452830E+02
Post-SCF wavefunction norm                 R      1.708795430836830E+00
RMS Force                                  R      4.855726039624612E-08
RMS Density                                R      5.872714243958415E-10
External E-field                           R   N=          35
  0.00000000E+00  0.00000000E+00  0.00000000E+00  0.00000000E+00  0.00000000E+00
  0.00000000E+00  0.00000000E+00  0.00000000E+00  0.00000000E+00  0.00000000E+00
  0.00000000E+00  0.00000000E+00  0.00000000E+00  0.00000000E+00  0.00000000E+00
  0.00000000E+00  0.00000000E+00  0.00000000E+00  0.00000000E+00  0.00000000E+00
  0.00000000E+00  0.00000000E+00  0.00000000E+00  0.00000000E+00  0.00000000E+00
  0.00000000E+00  0.00000000E+00  0.00000000E+00  0.00000000E+00  0.00000000E+00
  0.00000000E+00  0.00000000E+00  0.00000000E+00  0.00000000E+00  0.00000000E+00
IOpCl                                      I                0
IROHF                                      I                0
Alpha Orbital Energies                     R   N=         174
 -1.12358050E+01 -1.12316760E+01 -1.12308280E+01 -1.12270913E+01 -1.12269355E+01
 -1.12256202E+01 -1.12255546E+01 -1.12235851E+01 -1.12229544E+01 -1.12216994E+01
 -1.15966215E+00 -1.12671798E+00 -1.03550688E+00 -1.00208470E+00 -9.33637828E-01
 -8.30349261E-01 -8.28294432E-01 -8.05385525E-01 -7.61786846E-01 -6.83529135E-01
 -6.49710075E-01 -6.28444720E-01 -6.23189464E-01 -5.96077171E-01 -5.72827433E-01
 -5.70939014E-01 -5.36438577E-01 -5.25239296E-01 -5.10745281E-01 -4.84890632E-01
 -4.79606087E-01 -4.71669510E-01 -4.20355842E-01 -4.08917265E-01 -3.25658154E-01
 -3.06862658E-01  1.46353862E-01  1.46616723E-01  2.45911232E-01  2.52786125E-01
  2.70406887E-01  2.71229544E-01  2.76233985E-01  3.01451243E-01  3.12119873E-01
  3.18691139E-01  3.29494320E-01  3.39323903E-01  3.40024676E-01  3.55151335E-01
  3.84604580E-01  3.86946528E-01  4.05917196E-01  4.37460117E-01  4.41760604E-01
  4.75305259E-01  5.11308822E-01  5.12232179E-01  5.44120519E-01  5.60062718E-01
  6.88273848E-01  6.91602090E-01  7.10819166E-01  7.41822155E-01  7.45127633E-01
  7.55971751E-01  7.67165022E-01  7.73273380E-01  8.21768823E-01  8.22553754E-01
  8.32935314E-01  8.35714468E-01  8.38288271E-01  8.46678237E-01  8.59805801E-01
  8.76232910E-01  9.07926363E-01  9.20119026E-01  9.41190464E-01  9.45580563E-01
  9.79647357E-01  9.89273923E-01  1.00998819E+00  1.01198417E+00  1.04598230E+00
  1.07160818E+00  1.11192944E+00  1.11779691E+00  1.13092174E+00  1.13396670E+00