
    -----------------------------------------------------------------------
          Psi4: An Open-Source Ab Initio Electronic Structure Package
                               Psi4 1.3.2 release

                         Git: Rev {HEAD} ecbda83 


    R. M. Parrish, L. A. Burns, D. G. A. Smith, A. C. Simmonett,
    A. E. DePrince III, E. G. Hohenstein, U. Bozkaya, A. Yu. Sokolov,
    R. Di Remigio, R. M. Richard, J. F. Gonthier, A. M. James,
    H. R. McAlexander, A. Kumar, M. Saitow, X. Wang, B. P. Pritchard,
    P. Verma, H. F. Schaefer III, K. Patkowski, R. A. King, E. F. Valeev,
    F. A. Evangelista, J. M. Turney, T. D. Crawford, and C. D. Sherrill,
    J. Chem. Theory Comput. 13(7) pp 3185--3197 (2017).
    (doi: 10.1021/acs.jctc.7b00174)


                         Additional Contributions by
    P. Kraus, H. Kruse, M. H. Lechner, M. C. Schieber, R. A. Shaw,
    A. Alenaizan, R. Galvelis, Z. L. Glick, S. Lehtola, and J. P. Misiewicz

    -----------------------------------------------------------------------


    Psi4 started on: Saturday, 06 February 2021 01:03PM

    Process ID: 1662538
    Host:       node54.bme.utexas.edu
    PSIDATADIR: /home/xy3866/psi4conda/share/psi4
    Memory:     500.0 MiB
    Threads:    8
    
  ==> Input File <==

--------------------------------------------------------------------------
#psi4
#
memory 32 gb

molecule  {
0 1
  O        3.0005300    -1.5493530     0.0754490
  N        0.8317470    -1.1153310    -0.4215630
  C        0.1960040     1.9504030    -0.2395030
  C        1.6857700     1.6448450    -0.3508570
  C       -0.7116235     0.7537135    -0.0181108
  C        2.1481850     0.6250380     0.6971500
  C       -0.4596220    -0.5879500    -0.1790540
  C        2.0510250    -0.7686880     0.1361100
  C       -2.1103850     1.1321340     0.1249900
  C       -1.4919760    -1.5397800    -0.0852490
  C       -3.1313420     0.1920050     0.2149350
  C       -2.8150140    -1.1632860     0.1069400
  H       -0.1141940     2.5504580    -1.1051150
  H        0.0480080     2.5950730     0.6372840
  H        1.9308140     1.2745600    -1.3520490
  H        2.2359360     2.5841340    -0.2253410
  H        1.5370720     0.7103830     1.6057590
  H        3.1934550     0.7649280     0.9813470
  H        0.8461440    -2.0798130    -0.7458600
  H       -2.3558010     2.1909910     0.2008090
  H       -1.2325710    -2.5958500    -0.1409630
  H       -4.1571650     0.5114050     0.3790120
  H       -3.5892060    -1.9233590     0.1747080
units angstrom
no_reorient  #important for SAPT in psi4, default
symmetry c1  #important for SAPT in psi4, default
}

set PROPERTIES_ORIGIN ["COM"]
properties('MP2/aug-cc-pvtz', properties = ['dipole'])
--------------------------------------------------------------------------

  Memory set to  29.802 GiB by Python driver.
    SCF Algorithm Type (re)set to DF.

*** tstart() called on node54.bme.utexas.edu
*** at Sat Feb  6 13:03:02 2021

   => Loading Basis Set <=

    Name: AUG-CC-PVTZ
    Role: ORBITAL
    Keyword: BASIS
    atoms 1     entry O          line   327 file /home/xy3866/psi4conda/share/psi4/basis/aug-cc-pvtz.gbs 
    atoms 2     entry N          line   281 file /home/xy3866/psi4conda/share/psi4/basis/aug-cc-pvtz.gbs 
    atoms 3-12  entry C          line   235 file /home/xy3866/psi4conda/share/psi4/basis/aug-cc-pvtz.gbs 
    atoms 13-23 entry H          line    36 file /home/xy3866/psi4conda/share/psi4/basis/aug-cc-pvtz.gbs 


         ---------------------------------------------------------
                                   SCF
               by Justin Turney, Rob Parrish, Andy Simmonett
                          and Daniel G. A. Smith
                              RHF Reference
                        8 Threads,  30517 MiB Core
         ---------------------------------------------------------

  ==> Geometry <==

    Molecular point group: c1
    Full point group: C1

    Geometry (in Angstrom), charge = 0, multiplicity = 1:

       Center              X                  Y                   Z               Mass       
    ------------   -----------------  -----------------  -----------------  -----------------
         O            2.986239226307    -1.506492174233     0.071695476067    15.994914619570
         N            0.817456226307    -1.072470174233    -0.425316523933    14.003074004430
         C            0.181713226307     1.993263825767    -0.243256523933    12.000000000000
         C            1.671479226307     1.687705825767    -0.354610523933    12.000000000000
         C           -0.725914273693     0.796574325767    -0.021864323933    12.000000000000
         C            2.133894226307     0.667898825767     0.693396476067    12.000000000000
         C           -0.473912773693    -0.545089174233    -0.182807523933    12.000000000000
         C            2.036734226307    -0.725827174233     0.132356476067    12.000000000000
         C           -2.124675773693     1.174994825767     0.121236476067    12.000000000000
         C           -1.506266773693    -1.496919174233    -0.089002523933    12.000000000000
         C           -3.145632773693     0.234865825767     0.211181476067    12.000000000000
         C           -2.829304773693    -1.120425174233     0.103186476067    12.000000000000
         H           -0.128484773693     2.593318825767    -1.108868523933     1.007825032230
         H            0.033717226307     2.637933825767     0.633530476067     1.007825032230
         H            1.916523226307     1.317420825767    -1.355802523933     1.007825032230
         H            2.221645226307     2.626994825767    -0.229094523933     1.007825032230
         H            1.522781226307     0.753243825767     1.602005476067     1.007825032230
         H            3.179164226307     0.807788825767     0.977593476067     1.007825032230
         H            0.831853226307    -2.036952174233    -0.749613523933     1.007825032230
         H           -2.370091773693     2.233851825767     0.197055476067     1.007825032230
         H           -1.246861773693    -2.552989174233    -0.144716523933     1.007825032230
         H           -4.171455773693     0.554265825767     0.375258476067     1.007825032230
         H           -3.603496773693    -1.880498174233     0.170954476067     1.007825032230

  Running in c1 symmetry.

  Rotational constants: A =      0.06034  B =      0.02495  C =      0.01842 [cm^-1]
  Rotational constants: A =   1808.87183  B =    747.91814  C =    552.32689 [MHz]
  Nuclear repulsion =  675.474011496345838

  Charge       = 0
  Multiplicity = 1
  Electrons    = 86
  Nalpha       = 43
  Nbeta        = 43

  ==> Algorithm <==

  SCF Algorithm Type is DF.
  DIIS enabled.
  MOM disabled.
  Fractional occupation disabled.
  Guess Type is SAD.
  Energy threshold   = 1.00e-10
  Density threshold  = 1.00e-10
  Integral threshold = 0.00e+00

  ==> Primary Basis <==

  Basis Set: AUG-CC-PVTZ
    Blend: AUG-CC-PVTZ
    Number of shells: 267
    Number of basis function: 805
    Number of Cartesian functions: 935
    Spherical Harmonics?: true
    Max angular momentum: 3

   => Loading Basis Set <=

    Name: (AUG-CC-PVTZ AUX)
    Role: JKFIT
    Keyword: DF_BASIS_SCF
    atoms 1     entry O          line   286 file /home/xy3866/psi4conda/share/psi4/basis/aug-cc-pvtz-jkfit.gbs 
    atoms 2     entry N          line   224 file /home/xy3866/psi4conda/share/psi4/basis/aug-cc-pvtz-jkfit.gbs 
    atoms 3-12  entry C          line   162 file /home/xy3866/psi4conda/share/psi4/basis/aug-cc-pvtz-jkfit.gbs 
    atoms 13-23 entry H          line    70 file /home/xy3866/psi4conda/share/psi4/basis/aug-cc-pvtz-jkfit.gbs 

  ==> Pre-Iterations <==

   -------------------------------------------------------
    Irrep   Nso     Nmo     Nalpha   Nbeta   Ndocc  Nsocc
   -------------------------------------------------------
     A        805     805       0       0       0       0
   -------------------------------------------------------
    Total     805     805      43      43      43       0
   -------------------------------------------------------

  ==> Integral Setup <==

  DFHelper Memory: AOs need 8.131 GiB; user supplied 22.352 GiB. Using in-core AOs.

  ==> MemDFJK: Density-Fitted J/K Matrices <==

    J tasked:                   Yes
    K tasked:                   Yes
    wK tasked:                   No
    OpenMP threads:               8
    Memory [MiB]:             22888
    Algorithm:                 Disk
    Schwarz Cutoff:           1E-12
    Mask sparsity (%):       6.2519
    Fitting Condition:        1E-10

   => Auxiliary Basis Set <=

  Basis Set: (AUG-CC-PVTZ AUX)
    Blend: AUG-CC-PVTZ-JKFIT
    Number of shells: 514
    Number of basis function: 1754
    Number of Cartesian functions: 2177
    Spherical Harmonics?: true
    Max angular momentum: 4

  Minimum eigenvalue in the overlap matrix is 4.5284794060E-07.
  Using Symmetric Orthogonalization.

  SCF Guess: Superposition of Atomic Densities via on-the-fly atomic UHF.

  ==> Iterations <==

                           Total Energy        Delta E     RMS |[F,P]|

   @DF-RHF iter SAD:  -514.36907775268560   -5.14369e+02   0.00000e+00 
   @DF-RHF iter   1:  -514.21786971198503    1.51208e-01   9.97847e-04 DIIS
   @DF-RHF iter   2:  -514.51173522770614   -2.93866e-01   5.17924e-04 DIIS
   @DF-RHF iter   3:  -514.58266845779883   -7.09332e-02   1.10464e-04 DIIS
   @DF-RHF iter   4:  -514.58746870924654   -4.80025e-03   5.31505e-05 DIIS
   @DF-RHF iter   5:  -514.58838608011217   -9.17371e-04   9.72447e-06 DIIS
   @DF-RHF iter   6:  -514.58845611690708   -7.00368e-05   4.84215e-06 DIIS
   @DF-RHF iter   7:  -514.58847150955057   -1.53926e-05   1.88476e-06 DIIS
   @DF-RHF iter   8:  -514.58847564491884   -4.13537e-06   8.72076e-07 DIIS
   @DF-RHF iter   9:  -514.58847658032994   -9.35411e-07   3.43194e-07 DIIS
   @DF-RHF iter  10:  -514.58847675709421   -1.76764e-07   1.24299e-07 DIIS
   @DF-RHF iter  11:  -514.58847678475627   -2.76621e-08   5.11961e-08 DIIS
   @DF-RHF iter  12:  -514.58847678910649   -4.35023e-09   2.45299e-08 DIIS
   @DF-RHF iter  13:  -514.58847678997404   -8.67544e-10   1.08432e-08 DIIS
   @DF-RHF iter  14:  -514.58847679012570   -1.51658e-10   4.13965e-09 DIIS
   @DF-RHF iter  15:  -514.58847679014423   -1.85310e-11   1.67741e-09 DIIS
   @DF-RHF iter  16:  -514.58847679014946   -5.22959e-12   6.64757e-10 DIIS
   @DF-RHF iter  17:  -514.58847679014912    3.41061e-13   3.03317e-10 DIIS
   @DF-RHF iter  18:  -514.58847679015048   -1.36424e-12   1.31643e-10 DIIS
   @DF-RHF iter  19:  -514.58847679014889    1.59162e-12   6.48435e-11 DIIS
  Energy and wave function converged.


  ==> Post-Iterations <==

    Orbital Energies [Eh]
    ---------------------

    Doubly Occupied:                                                      

       1A    -20.524964     2A    -15.594695     3A    -11.356537  
       4A    -11.294533     5A    -11.254756     6A    -11.250990  
       7A    -11.248138     8A    -11.245731     9A    -11.245152  
      10A    -11.242199    11A    -11.240637    12A    -11.240021  
      13A     -1.379527    14A     -1.253965    15A     -1.149101  
      16A     -1.101916    17A     -1.038622    18A     -1.014726  
      19A     -0.957971    20A     -0.879500    21A     -0.845745  
      22A     -0.808101    23A     -0.762922    24A     -0.721650  
      25A     -0.681307    26A     -0.671311    27A     -0.645672  
      28A     -0.628802    29A     -0.613551    30A     -0.601569  
      31A     -0.600928    32A     -0.577131    33A     -0.564389  
      34A     -0.540045    35A     -0.517478    36A     -0.511131  
      37A     -0.497304    38A     -0.496745    39A     -0.477083  
      40A     -0.435270    41A     -0.425387    42A     -0.336005  
      43A     -0.319989  

    Virtual:                                                              

      44A      0.024329    45A      0.027687    46A      0.033203  
      47A      0.036800    48A      0.043094    49A      0.046509  
      50A      0.053703    51A      0.058162    52A      0.061887  
      53A      0.066256    54A      0.079904    55A      0.081765  
      56A      0.088221    57A      0.094246    58A      0.102418  
      59A      0.103518    60A      0.105317    61A      0.111429  
      62A      0.113436    63A      0.115645    64A      0.117703  
      65A      0.119040    66A      0.125594    67A      0.129003  
      68A      0.130858    69A      0.131851    70A      0.136458  
      71A      0.142847    72A      0.143292    73A      0.147114  
      74A      0.149737    75A      0.153981    76A      0.157060  
      77A      0.163642    78A      0.168581    79A      0.169309  
      80A      0.172429    81A      0.176969    82A      0.178954  
      83A      0.180828    84A      0.184998    85A      0.189107  
      86A      0.200815    87A      0.203756    88A      0.210950  
      89A      0.216493    90A      0.227411    91A      0.231827  
      92A      0.232640    93A      0.243042    94A      0.247873  
      95A      0.249623    96A      0.255522    97A      0.261244  
      98A      0.268443    99A      0.269685   100A      0.273096  
     101A      0.278637   102A      0.281751   103A      0.286693  
     104A      0.288907   105A      0.295111   106A      0.301368  
     107A      0.306812   108A      0.313976   109A      0.320450  
     110A      0.321643   111A      0.323113   112A      0.323663  
     113A      0.327236   114A      0.330574   115A      0.333502  
     116A      0.337906   117A      0.341184   118A      0.345366  
     119A      0.349053   120A      0.357348   121A      0.358709  
     122A      0.364008   123A      0.367447   124A      0.372144  
     125A      0.376311   126A      0.387606   127A      0.391926  
     128A      0.393829   129A      0.396356   130A      0.400599  
     131A      0.407471   132A      0.408643   133A      0.418892  
     134A      0.422299   135A      0.426733   136A      0.431328  
     137A      0.433979   138A      0.436284   139A      0.438339  
     140A      0.444152   141A      0.447773   142A      0.452143  
     143A      0.453069   144A      0.461801   145A      0.467275  
     146A      0.470004   147A      0.475336   148A      0.476181  
     149A      0.479592   150A      0.481145   151A      0.486344  
     152A      0.490600   153A      0.492547   154A      0.495414  
     155A      0.500610   156A      0.501222   157A      0.507034  
     158A      0.511468   159A      0.513288   160A      0.521027  
     161A      0.525864   162A      0.528262   163A      0.530690  
     164A      0.532454   165A      0.538088   166A      0.541922  
     167A      0.544775   168A      0.551155   169A      0.555172  
     170A      0.559100   171A      0.562805   172A      0.567256  
     173A      0.571753   174A      0.578308   175A      0.583119  
     176A      0.594482   177A      0.599173   178A      0.601096  
     179A      0.605200   180A      0.612751   181A      0.614614  
     182A      0.616552   183A      0.626125   184A      0.634746  
     185A      0.641036   186A      0.645441   187A      0.651063  
     188A      0.660124   189A      0.667259   190A      0.671366  
     191A      0.674894   192A      0.676792   193A      0.679944  
     194A      0.688407   195A      0.692926   196A      0.700461  
     197A      0.706080   198A      0.710769   199A      0.712060  
     200A      0.712890   201A      0.723650   202A      0.730356  
     203A      0.735548   204A      0.740306   205A      0.754602  
     206A      0.760353   207A      0.768562   208A      0.771060  
     209A      0.775668   210A      0.783603   211A      0.786796  
     212A      0.792737   213A      0.811098   214A      0.815507  
     215A      0.820633   216A      0.826670   217A      0.829008  
     218A      0.831113   219A      0.846872   220A      0.847285  
     221A      0.848742   222A      0.856417   223A      0.862676  
     224A      0.862936   225A      0.869382   226A      0.875051  
     227A      0.882909   228A      0.884412   229A      0.887873  
     230A      0.893792   231A      0.895790   232A      0.900270  
     233A      0.902050   234A      0.914498   235A      0.915876  
     236A      0.921018   237A      0.925253   238A      0.928471  
     239A      0.939407   240A      0.947620   241A      0.948629  
     242A      0.951474   243A      0.957917   244A      0.960410  
     245A      0.971927   246A      0.973891   247A      0.984151  
     248A      0.988772   249A      0.994418   250A      0.999720  
     251A      1.006786   252A      1.009150   253A      1.017087  
     254A      1.020040   255A      1.023005   256A      1.028018  
     257A      1.031215   258A      1.032327   259A      1.036914  
     260A      1.042124   261A      1.043498   262A      1.058299  
     263A      1.063346   264A      1.064502   265A      1.067384  
     266A      1.074137   267A      1.074539   268A      1.086881  
     269A      1.090545   270A      1.098638   271A      1.101569  
     272A      1.107851   273A      1.114028   274A      1.115268  
     275A      1.117597   276A      1.126513   277A      1.128837  
     278A      1.132759   279A      1.141781   280A      1.145379  
     281A      1.148089   282A      1.156226   283A      1.159259  
     284A      1.165591   285A      1.171696   286A      1.176453  
     287A      1.180491   288A      1.186116   289A      1.191320  
     290A      1.195016   291A      1.199428   292A      1.211773  
     293A      1.217082   294A      1.225799   295A      1.232198  
     296A      1.234987   297A      1.243477   298A      1.247828  
     299A      1.248940   300A      1.253473   301A      1.263600  
     302A      1.271052   303A      1.274116   304A      1.279239  
     305A      1.286876   306A      1.294620   307A      1.297999  
     308A      1.300609   309A      1.307300   310A      1.311937  
     311A      1.323583   312A      1.330977   313A      1.340268  
     314A      1.344874   315A      1.349173   316A      1.355346  
     317A      1.358207   318A      1.366945   319A      1.370852  
     320A      1.381516   321A      1.391652   322A      1.398297  
     323A      1.401935   324A      1.413054   325A      1.418179  
     326A      1.423483   327A      1.426092   328A      1.431719  
     329A      1.437625   330A      1.446589   331A      1.449094  
     332A      1.454809   333A      1.467940   334A      1.480472  
     335A      1.482387   336A      1.492665   337A      1.504190  
     338A      1.508983   339A      1.514230   340A      1.524978  
     341A      1.528940   342A      1.538944   343A      1.541701  
     344A      1.553618   345A      1.555129   346A      1.564097  
     347A      1.570980   348A      1.581473   349A      1.585420  
     350A      1.589179   351A      1.598577   352A      1.607542  
     353A      1.610635   354A      1.623902   355A      1.630077  
     356A      1.631927   357A      1.642339   358A      1.653910  
     359A      1.656980   360A      1.660885   361A      1.671865  
     362A      1.676985   363A      1.689537   364A      1.696495  
     365A      1.697261   366A      1.705481   367A      1.710059  
     368A      1.715969   369A      1.725881   370A      1.735437  
     371A      1.743330   372A      1.744561   373A      1.752807  
     374A      1.756891   375A      1.769032   376A      1.770245  
     377A      1.780254   378A      1.787333   379A      1.789133  
     380A      1.800959   381A      1.811194   382A      1.816445  
     383A      1.819565   384A      1.827920   385A      1.838711  
     386A      1.842692   387A      1.854911   388A      1.860536  
     389A      1.870421   390A      1.876149   391A      1.878259  
     392A      1.885536   393A      1.893904   394A      1.898431  
     395A      1.912576   396A      1.915962   397A      1.919669  
     398A      1.932722   399A      1.936687   400A      1.940434  
     401A      1.955268   402A      1.967539   403A      1.969961  
     404A      1.978502   405A      1.992914   406A      2.005382  
     407A      2.007607   408A      2.013438   409A      2.021144  
     410A      2.030301   411A      2.038278   412A      2.043400  
     413A      2.049024   414A      2.061531   415A      2.063228  
     416A      2.068968   417A      2.075127   418A      2.078305  
     419A      2.092854   420A      2.098321   421A      2.103887  
     422A      2.118417   423A      2.128890   424A      2.133844  
     425A      2.143968   426A      2.154394   427A      2.157034  
     428A      2.169089   429A      2.178806   430A      2.180987  
     431A      2.191044   432A      2.204737   433A      2.212715  
     434A      2.221218   435A      2.225793   436A      2.242467  
     437A      2.256066   438A      2.259567   439A      2.271326  
     440A      2.273307   441A      2.282445   442A      2.292946  
     443A      2.296948   444A      2.306959   445A      2.313664  
     446A      2.334990   447A      2.342398   448A      2.348723  
     449A      2.357054   450A      2.364844   451A      2.380943  
     452A      2.382689   453A      2.404949   454A      2.407331  
     455A      2.424260   456A      2.429940   457A      2.434373  
     458A      2.448946   459A      2.456663   460A      2.462374  
     461A      2.473271   462A      2.484497   463A      2.489044  
     464A      2.496739   465A      2.507296   466A      2.526640  
     467A      2.531082   468A      2.539070   469A      2.561253  
     470A      2.561865   471A      2.571904   472A      2.590106  
     473A      2.594791   474A      2.600161   475A      2.613985  
     476A      2.628861   477A      2.646163   478A      2.660996  
     479A      2.675550   480A      2.684469   481A      2.691252  
     482A      2.711234   483A      2.730213   484A      2.735135  
     485A      2.741970   486A      2.754350   487A      2.774526  
     488A      2.781692   489A      2.806490   490A      2.808161  
     491A      2.817079   492A      2.840803   493A      2.851115  
     494A      2.885452   495A      2.904654   496A      2.933741  
     497A      2.945740   498A      2.983711   499A      3.004877  
     500A      3.030453   501A      3.041785   502A      3.053150  
     503A      3.064467   504A      3.092076   505A      3.104685  
     506A      3.144182   507A      3.168918   508A      3.184033  
     509A      3.200573   510A      3.235609   511A      3.244477  
     512A      3.248447   513A      3.261019   514A      3.297478  
     515A      3.313610   516A      3.328442   517A      3.346158  
     518A      3.374245   519A      3.380310   520A      3.398317  
     521A      3.405963   522A      3.422651   523A      3.426249  
     524A      3.444912   525A      3.454709   526A      3.462538  
     527A      3.471540   528A      3.485031   529A      3.493211  
     530A      3.503267   531A      3.520453   532A      3.525935  
     533A      3.537186   534A      3.544871   535A      3.557878  
     536A      3.566061   537A      3.570355   538A      3.574031  
     539A      3.592313   540A      3.593434   541A      3.610152  
     542A      3.619191   543A      3.624906   544A      3.638355  
     545A      3.656974   546A      3.658322   547A      3.663787  
     548A      3.672509   549A      3.692845   550A      3.695945  
     551A      3.702209   552A      3.714229   553A      3.730977  
     554A      3.737527   555A      3.742393   556A      3.755178  
     557A      3.768924   558A      3.778270   559A      3.782993  
     560A      3.789691   561A      3.805234   562A      3.807448  
     563A      3.824825   564A      3.834516   565A      3.846063  
     566A      3.853852   567A      3.867900   568A      3.875889  
     569A      3.885200   570A      3.890479   571A      3.895693  
     572A      3.900529   573A      3.916341   574A      3.920829  
     575A      3.931400   576A      3.936765   577A      3.942673  
     578A      3.946356   579A      3.965416   580A      3.973622  
     581A      3.977226   582A      3.987328   583A      3.990852  
     584A      3.999379   585A      4.004512   586A      4.017127  
     587A      4.022565   588A      4.038059   589A      4.048717  
     590A      4.058257   591A      4.062774   592A      4.067218  
     593A      4.082759   594A      4.084596   595A      4.096444  
     596A      4.102596   597A      4.107375   598A      4.129008  
     599A      4.136007   600A      4.146036   601A      4.156463  
     602A      4.165315   603A      4.170458   604A      4.187715  
     605A      4.198770   606A      4.203595   607A      4.226835  
     608A      4.233158   609A      4.241465   610A      4.259463  
     611A      4.271659   612A      4.281578   613A      4.282600  
     614A      4.292160   615A      4.302942   616A      4.312266  
     617A      4.315301   618A      4.317086   619A      4.333689  
     620A      4.343850   621A      4.353084   622A      4.361000  
     623A      4.373250   624A      4.386814   625A      4.391122  
     626A      4.399096   627A      4.413719   628A      4.418768  
     629A      4.422664   630A      4.431353   631A      4.438694  
     632A      4.454936   633A      4.457384   634A      4.465034  
     635A      4.480008   636A      4.490866   637A      4.504314  
     638A      4.517237   639A      4.533989   640A      4.537700  
     641A      4.554061   642A      4.564732   643A      4.568847  
     644A      4.589385   645A      4.598050   646A      4.612179  
     647A      4.625325   648A      4.637524   649A      4.649938  
     650A      4.655769   651A      4.670179   652A      4.675099  
     653A      4.688226   654A      4.696856   655A      4.706674  
     656A      4.712658   657A      4.727273   658A      4.731755  
     659A      4.752161   660A      4.769243   661A      4.778399  
     662A      4.782382   663A      4.790362   664A      4.806816  
     665A      4.821415   666A      4.848199   667A      4.858075  
     668A      4.862829   669A      4.875155   670A      4.890701  
     671A      4.895963   672A      4.919971   673A      4.934330  
     674A      4.951073   675A      4.965102   676A      4.976633  
     677A      4.983917   678A      4.987053   679A      5.001274  
     680A      5.016890   681A      5.030762   682A      5.038403  
     683A      5.047647   684A      5.068089   685A      5.084409  
     686A      5.099681   687A      5.111617   688A      5.120589  
     689A      5.126445   690A      5.139019   691A      5.147808  
     692A      5.152599   693A      5.158919   694A      5.166923  
     695A      5.190608   696A      5.204310   697A      5.222861  
     698A      5.227574   699A      5.243009   700A      5.248280  
     701A      5.257535   702A      5.270091   703A      5.282593  
     704A      5.296930   705A      5.327441   706A      5.336047  
     707A      5.343590   708A      5.355399   709A      5.358653  
     710A      5.378179   711A      5.396549   712A      5.417504  
     713A      5.426769   714A      5.443061   715A      5.445816  
     716A      5.449715   717A      5.487559   718A      5.500418  
     719A      5.509209   720A      5.523194   721A      5.546289  
     722A      5.578114   723A      5.590779   724A      5.602264  
     725A      5.615082   726A      5.620003   727A      5.642988  
     728A      5.651242   729A      5.663635   730A      5.690053  
     731A      5.690813   732A      5.701454   733A      5.718551  
     734A      5.732246   735A      5.774030   736A      5.780448  
     737A      5.818966   738A      5.835878   739A      5.844474  
     740A      5.864201   741A      5.904306   742A      5.924342  
     743A      5.956594   744A      5.986138   745A      6.002591  
     746A      6.036027   747A      6.096582   748A      6.102930  
     749A      6.116769   750A      6.142627   751A      6.174659  
     752A      6.181072   753A      6.200922   754A      6.220977  
     755A      6.225641   756A      6.259798   757A      6.303378  
     758A      6.310378   759A      6.325429   760A      6.369709  
     761A      6.418328   762A      6.437263   763A      6.464335  
     764A      6.530578   765A      6.597255   766A      6.622764  
     767A      6.631618   768A      6.651374   769A      6.702061  
     770A      6.713274   771A      6.737306   772A      6.770152  
     773A      6.808125   774A      6.862191   775A      6.882739  
     776A      6.949899   777A      6.976695   778A      6.993051  
     779A      7.030293   780A      7.039864   781A      7.068056  
     782A      7.193678   783A      7.240692   784A      7.257678  
     785A      7.333825   786A      7.463243   787A      7.492389  
     788A      7.630485   789A      7.682157   790A      7.788807  
     791A      7.842636   792A      7.994534   793A      8.047686  
     794A     15.934469   795A     16.313526   796A     16.610617  
     797A     17.320205   798A     17.984128   799A     18.607141  
     800A     19.207040   801A     19.287132   802A     20.041378  
     803A     20.658790   804A     21.053532   805A     21.160003  

    Final Occupation by Irrep:
              A 
    DOCC [    43 ]

  @DF-RHF Final Energy:  -514.58847679014889

   => Energetics <=

    Nuclear Repulsion Energy =            675.4740114963458382
    One-Electron Energy =               -2038.5385883116566674
    Two-Electron Energy =                 848.4761000251619407
    Total Energy =                       -514.5884767901488885

Computation Completed

*** tstop() called on node54.bme.utexas.edu at Sat Feb  6 13:05:33 2021
Module time:
	user time   =     616.51 seconds =      10.28 minutes
	system time =      89.46 seconds =       1.49 minutes
	total time  =        151 seconds =       2.52 minutes
Total time:
	user time   =     616.51 seconds =      10.28 minutes
	system time =      89.46 seconds =       1.49 minutes
	total time  =        151 seconds =       2.52 minutes
   => Loading Basis Set <=

    Name: (AUG-CC-PVTZ AUX)
    Role: RIFIT
    Keyword: DF_BASIS_MP2
    atoms 1     entry O          line   264 file /home/xy3866/psi4conda/share/psi4/basis/aug-cc-pvtz-ri.gbs 
    atoms 2     entry N          line   206 file /home/xy3866/psi4conda/share/psi4/basis/aug-cc-pvtz-ri.gbs 
    atoms 3-12  entry C          line   148 file /home/xy3866/psi4conda/share/psi4/basis/aug-cc-pvtz-ri.gbs 
    atoms 13-23 entry H          line    30 file /home/xy3866/psi4conda/share/psi4/basis/aug-cc-pvtz-ri.gbs 


*** tstart() called on node54.bme.utexas.edu
*** at Sat Feb  6 13:05:33 2021


  //>>>>>>>>>>>>>>>>>>>>>>>>>>>>>>>>>>>//
  //               DFMP2               //
  //<<<<<<<<<<<<<<<<<<<<<<<<<<<<<<<<<<<//

	 --------------------------------------------------------
	                          DF-MP2                         
	      2nd-Order Density-Fitted Moller-Plesset Theory     
	              RMP2 Wavefunction,   8 Threads             
	                                                         
	        Rob Parrish, Justin Turney, Andy Simmonett,      
	           Ed Hohenstein, and C. David Sherrill          
	 --------------------------------------------------------

   => Auxiliary Basis Set <=

  Basis Set: (AUG-CC-PVTZ AUX)
    Blend: AUG-CC-PVTZ-RI
    Number of shells: 490
    Number of basis function: 1778
    Number of Cartesian functions: 2237
    Spherical Harmonics?: true
    Max angular momentum: 4

	 --------------------------------------------------------
	                 NBF =   805, NAUX =  1778
	 --------------------------------------------------------
	   CLASS    FOCC     OCC    AOCC    AVIR     VIR    FVIR
	   PAIRS       0      43      43     762     762       0
	 --------------------------------------------------------

  DFHelper Memory: AOs need 8.131 GiB; user supplied 22.352 GiB. Using in-core AOs.


         ------------------------------------------------------------
                                     CPHF                           
                                  Rob Parrish                       
         ------------------------------------------------------------

  ==> Geometry <==

    Molecular point group: c1
    Full point group: C1

    Geometry (in Angstrom), charge = 0, multiplicity = 1:

       Center              X                  Y                   Z               Mass       
    ------------   -----------------  -----------------  -----------------  -----------------
         O            2.986239226307    -1.506492174233     0.071695476067    15.994914619570
         N            0.817456226307    -1.072470174233    -0.425316523933    14.003074004430
         C            0.181713226307     1.993263825767    -0.243256523933    12.000000000000
         C            1.671479226307     1.687705825767    -0.354610523933    12.000000000000
         C           -0.725914273693     0.796574325767    -0.021864323933    12.000000000000
         C            2.133894226307     0.667898825767     0.693396476067    12.000000000000
         C           -0.473912773693    -0.545089174233    -0.182807523933    12.000000000000
         C            2.036734226307    -0.725827174233     0.132356476067    12.000000000000
         C           -2.124675773693     1.174994825767     0.121236476067    12.000000000000
         C           -1.506266773693    -1.496919174233    -0.089002523933    12.000000000000
         C           -3.145632773693     0.234865825767     0.211181476067    12.000000000000
         C           -2.829304773693    -1.120425174233     0.103186476067    12.000000000000
         H           -0.128484773693     2.593318825767    -1.108868523933     1.007825032230
         H            0.033717226307     2.637933825767     0.633530476067     1.007825032230
         H            1.916523226307     1.317420825767    -1.355802523933     1.007825032230
         H            2.221645226307     2.626994825767    -0.229094523933     1.007825032230
         H            1.522781226307     0.753243825767     1.602005476067     1.007825032230
         H            3.179164226307     0.807788825767     0.977593476067     1.007825032230
         H            0.831853226307    -2.036952174233    -0.749613523933     1.007825032230
         H           -2.370091773693     2.233851825767     0.197055476067     1.007825032230
         H           -1.246861773693    -2.552989174233    -0.144716523933     1.007825032230
         H           -4.171455773693     0.554265825767     0.375258476067     1.007825032230
         H           -3.603496773693    -1.880498174233     0.170954476067     1.007825032230

  Nuclear repulsion =  675.474011496345838
  Reference energy  = -514.588476790148889

  ==> Basis Set <==

  Basis Set: AUG-CC-PVTZ
    Blend: AUG-CC-PVTZ
    Number of shells: 267
    Number of basis function: 805
    Number of Cartesian functions: 935
    Spherical Harmonics?: true
    Max angular momentum: 3

  ==> CGRSolver (by Rob Parrish) <==

   Number of roots    =         1
   Preconditioning    =    JACOBI
   Convergence cutoff =     1E-06
   Maximum iterations =       100

  ==> CPHFRHamiltonian (by Rob Parrish) <== 

  ==> MemDFJK: Density-Fitted J/K Matrices <==

    J tasked:                   Yes
    K tasked:                   Yes
    wK tasked:                   No
    OpenMP threads:               8
    Memory [MiB]:             22888
    Algorithm:                 Disk
    Schwarz Cutoff:           1E-12
    Mask sparsity (%):       6.2519
    Fitting Condition:        1E-10

   => Auxiliary Basis Set <=

  Basis Set: (AUG-CC-PVTZ AUX)
    Blend: AUG-CC-PVTZ-JKFIT
    Number of shells: 514
    Number of basis function: 1754
    Number of Cartesian functions: 2177
    Spherical Harmonics?: true
    Max angular momentum: 4

  ==> CPHF Iterations <==

  => Iterations <=

             Iter  Converged  Remaining    Residual
  CGR           1          0          1   1.148E-01
  CGR           2          0          1   3.375E-02
  CGR           3          0          1   1.525E-02
  CGR           4          0          1   6.377E-03
  CGR           5          0          1   3.059E-03
  CGR           6          0          1   1.537E-03
  CGR           7          0          1   5.153E-04
  CGR           8          0          1   1.860E-04
  CGR           9          0          1   6.419E-05
  CGR          10          0          1   2.495E-05
  CGR          11          0          1   1.205E-05
  CGR          12          0          1   4.832E-06
  CGR          13          0          1   1.643E-06
  CGR          14          1          0   5.626E-07

    CGRSolver converged.

	-----------------------------------------------------------
	 ==================> DF-MP2 Energies <==================== 
	-----------------------------------------------------------
	 Reference Energy          =    -514.5884767901488885 [Eh]
	 Singles Energy            =      -0.0000000000000000 [Eh]
	 Same-Spin Energy          =      -0.5579275334593574 [Eh]
	 Opposite-Spin Energy      =      -1.7437861206683309 [Eh]
	 Correlation Energy        =      -2.3017136541276884 [Eh]
	 Total Energy              =    -516.8901904442765272 [Eh]
	-----------------------------------------------------------
	 ================> DF-SCS-MP2 Energies <================== 
	-----------------------------------------------------------
	 SCS Same-Spin Scale       =       0.3333333333333333 [-]
	 SCS Opposite-Spin Scale   =       1.2000000000000000 [-]
	 SCS Same-Spin Energy      =      -0.1859758444864525 [Eh]
	 SCS Opposite-Spin Energy  =      -2.0925433448019972 [Eh]
	 SCS Correlation Energy    =      -2.2785191892884495 [Eh]
	 SCS Total Energy          =    -516.8669959794373199 [Eh]
	-----------------------------------------------------------



Properties will be evaluated at  -0.000000,   0.000000,  -0.000000 [a0]

Properties computed using the MP2 density matrix

  Nuclear Dipole Moment: [e a0]
     X:    -1.6893      Y:     6.6091      Z:     0.3469

  Electronic Dipole Moment: [e a0]
     X:     0.5804      Y:    -5.8016      Z:    -0.3430

  Dipole Moment: [e a0]
     X:    -1.1089      Y:     0.8075      Z:     0.0039     Total:     1.3717

  Dipole Moment: [D]
     X:    -2.8185      Y:     2.0525      Z:     0.0098     Total:     3.4866


*** tstop() called on node54.bme.utexas.edu at Sat Feb  6 13:12:04 2021
Module time:
	user time   =    2076.70 seconds =      34.61 minutes
	system time =     226.49 seconds =       3.77 minutes
	total time  =        391 seconds =       6.52 minutes
Total time:
	user time   =    2693.41 seconds =      44.89 minutes
	system time =     315.96 seconds =       5.27 minutes
	total time  =        542 seconds =       9.03 minutes

    Psi4 stopped on: Saturday, 06 February 2021 01:12PM
    Psi4 wall time for execution: 0:09:01.72

*** Psi4 exiting successfully. Buy a developer a beer!
