
    -----------------------------------------------------------------------
          Psi4: An Open-Source Ab Initio Electronic Structure Package
                               Psi4 1.3.2 release

                         Git: Rev {HEAD} ecbda83 


    R. M. Parrish, L. A. Burns, D. G. A. Smith, A. C. Simmonett,
    A. E. DePrince III, E. G. Hohenstein, U. Bozkaya, A. Yu. Sokolov,
    R. Di Remigio, R. M. Richard, J. F. Gonthier, A. M. James,
    H. R. McAlexander, A. Kumar, M. Saitow, X. Wang, B. P. Pritchard,
    P. Verma, H. F. Schaefer III, K. Patkowski, R. A. King, E. F. Valeev,
    F. A. Evangelista, J. M. Turney, T. D. Crawford, and C. D. Sherrill,
    J. Chem. Theory Comput. 13(7) pp 3185--3197 (2017).
    (doi: 10.1021/acs.jctc.7b00174)


                         Additional Contributions by
    P. Kraus, H. Kruse, M. H. Lechner, M. C. Schieber, R. A. Shaw,
    A. Alenaizan, R. Galvelis, Z. L. Glick, S. Lehtola, and J. P. Misiewicz

    -----------------------------------------------------------------------


    Psi4 started on: Wednesday, 04 November 2020 02:03AM

    Process ID: 119705
    Host:       node93.bme.utexas.edu
    PSIDATADIR: /home/xy3866/psi4conda/share/psi4
    Memory:     500.0 MiB
    Threads:    8
    
  ==> Input File <==

--------------------------------------------------------------------------
#psi4
#
memory 32 gb

molecule  {
1 1
  O       -1.6624030     0.8291070    -0.2765410
  O       -1.1238540    -1.2691650     0.4354900
  N        1.4473370    -1.0090820    -0.1563980
  C        0.6010380     0.2049760    -0.3963400
  C        1.1868019     1.5496461     0.5041107
  C       -0.8221020    -0.1825100    -0.0303730
  H        0.6501100     0.4122580    -1.4678430
  H        1.1192750    -1.8168460    -0.6997980
  H        1.4281670    -1.2902280     0.8311830
  H        2.4275310    -0.8373030    -0.4139920
  H        1.0757850     1.1947520     1.4730540
  H        0.4939250     2.2572030     0.1746130
  H        2.1464930     1.6243000     0.1133420
  H       -2.5686030     0.5447890    -0.0239170
units angstrom
no_reorient  #important for SAPT in psi4, default
symmetry c1  #important for SAPT in psi4, default
}

set PROPERTIES_ORIGIN ["COM"]
properties('MP2/aug-cc-pvtz', properties = ['dipole'])
--------------------------------------------------------------------------

  Memory set to  29.802 GiB by Python driver.
    SCF Algorithm Type (re)set to DF.

*** tstart() called on node93.bme.utexas.edu
*** at Wed Nov  4 02:03:48 2020

   => Loading Basis Set <=

    Name: AUG-CC-PVTZ
    Role: ORBITAL
    Keyword: BASIS
    atoms 1-2  entry O          line   327 file /home/xy3866/psi4conda/share/psi4/basis/aug-cc-pvtz.gbs 
    atoms 3    entry N          line   281 file /home/xy3866/psi4conda/share/psi4/basis/aug-cc-pvtz.gbs 
    atoms 4-6  entry C          line   235 file /home/xy3866/psi4conda/share/psi4/basis/aug-cc-pvtz.gbs 
    atoms 7-14 entry H          line    36 file /home/xy3866/psi4conda/share/psi4/basis/aug-cc-pvtz.gbs 


         ---------------------------------------------------------
                                   SCF
               by Justin Turney, Rob Parrish, Andy Simmonett
                          and Daniel G. A. Smith
                              RHF Reference
                        8 Threads,  30517 MiB Core
         ---------------------------------------------------------

  ==> Geometry <==

    Molecular point group: c1
    Full point group: C1

    Geometry (in Angstrom), charge = 1, multiplicity = 1:

       Center              X                  Y                   Z               Mass       
    ------------   -----------------  -----------------  -----------------  -----------------
         O           -1.597062835198     0.831309241363    -0.290617127939    15.994914619570
         O           -1.058513835198    -1.266962758637     0.421413872061    15.994914619570
         N            1.512677164802    -1.006879758637    -0.170474127939    14.003074004430
         C            0.666378164802     0.207178241363    -0.410416127939    12.000000000000
         C            1.252142064802     1.551848341363     0.490034572061    12.000000000000
         C           -0.756761835198    -0.180307758637    -0.044449127939    12.000000000000
         H            0.715450164802     0.414460241363    -1.481919127939     1.007825032230
         H            1.184615164802    -1.814643758637    -0.713874127939     1.007825032230
         H            1.493507164802    -1.288025758637     0.817106872061     1.007825032230
         H            2.492871164802    -0.835100758637    -0.428068127939     1.007825032230
         H            1.141125164802     1.196954241363     1.458977872061     1.007825032230
         H            0.559265164802     2.259405241363     0.160536872061     1.007825032230
         H            2.211833164802     1.626502241363     0.099265872061     1.007825032230
         H           -2.503262835198     0.546991241363    -0.037993127939     1.007825032230

  Running in c1 symmetry.

  Rotational constants: A =      0.15185  B =      0.10484  C =      0.06987 [cm^-1]
  Rotational constants: A =   4552.22403  B =   3143.11191  C =   2094.73849 [MHz]
  Nuclear repulsion =  257.227438167318724

  Charge       = 1
  Multiplicity = 1
  Electrons    = 48
  Nalpha       = 24
  Nbeta        = 24

  ==> Algorithm <==

  SCF Algorithm Type is DF.
  DIIS enabled.
  MOM disabled.
  Fractional occupation disabled.
  Guess Type is SAD.
  Energy threshold   = 1.00e-10
  Density threshold  = 1.00e-10
  Integral threshold = 0.00e+00

  ==> Primary Basis <==

  Basis Set: AUG-CC-PVTZ
    Blend: AUG-CC-PVTZ
    Number of shells: 156
    Number of basis function: 460
    Number of Cartesian functions: 530
    Spherical Harmonics?: true
    Max angular momentum: 3

   => Loading Basis Set <=

    Name: (AUG-CC-PVTZ AUX)
    Role: JKFIT
    Keyword: DF_BASIS_SCF
    atoms 1-2  entry O          line   286 file /home/xy3866/psi4conda/share/psi4/basis/aug-cc-pvtz-jkfit.gbs 
    atoms 3    entry N          line   224 file /home/xy3866/psi4conda/share/psi4/basis/aug-cc-pvtz-jkfit.gbs 
    atoms 4-6  entry C          line   162 file /home/xy3866/psi4conda/share/psi4/basis/aug-cc-pvtz-jkfit.gbs 
    atoms 7-14 entry H          line    70 file /home/xy3866/psi4conda/share/psi4/basis/aug-cc-pvtz-jkfit.gbs 

  ==> Pre-Iterations <==

   -------------------------------------------------------
    Irrep   Nso     Nmo     Nalpha   Nbeta   Ndocc  Nsocc
   -------------------------------------------------------
     A        460     460       0       0       0       0
   -------------------------------------------------------
    Total     460     460      24      24      24       0
   -------------------------------------------------------

  ==> Integral Setup <==

  DFHelper Memory: AOs need 1.597 GiB; user supplied 22.352 GiB. Using in-core AOs.

  ==> MemDFJK: Density-Fitted J/K Matrices <==

    J tasked:                   Yes
    K tasked:                   Yes
    wK tasked:                   No
    OpenMP threads:               8
    Memory [MiB]:             22888
    Algorithm:                 Core
    Schwarz Cutoff:           1E-12
    Mask sparsity (%):       1.8582
    Fitting Condition:        1E-10

   => Auxiliary Basis Set <=

  Basis Set: (AUG-CC-PVTZ AUX)
    Blend: AUG-CC-PVTZ-JKFIT
    Number of shells: 292
    Number of basis function: 992
    Number of Cartesian functions: 1226
    Spherical Harmonics?: true
    Max angular momentum: 4

  Minimum eigenvalue in the overlap matrix is 6.2679689396E-06.
  Using Symmetric Orthogonalization.

  SCF Guess: Superposition of Atomic Densities via on-the-fly atomic UHF.

  ==> Iterations <==

                           Total Energy        Delta E     RMS |[F,P]|

   @DF-RHF iter SAD:  -321.72156568096943   -3.21722e+02   0.00000e+00 
   @DF-RHF iter   1:  -322.11543424847827   -3.93869e-01   1.43551e-03 DIIS
   @DF-RHF iter   2:  -322.27878891951872   -1.63355e-01   8.37135e-04 DIIS
   @DF-RHF iter   3:  -322.32843817522820   -4.96493e-02   1.77372e-04 DIIS
   @DF-RHF iter   4:  -322.33239232629296   -3.95415e-03   6.93379e-05 DIIS
   @DF-RHF iter   5:  -322.33299004128719   -5.97715e-04   1.90302e-05 DIIS
   @DF-RHF iter   6:  -322.33305944867692   -6.94074e-05   8.60307e-06 DIIS
   @DF-RHF iter   7:  -322.33307524741434   -1.57987e-05   2.77297e-06 DIIS
   @DF-RHF iter   8:  -322.33307770836223   -2.46095e-06   9.91877e-07 DIIS
   @DF-RHF iter   9:  -322.33307801053422   -3.02172e-07   3.17312e-07 DIIS
   @DF-RHF iter  10:  -322.33307804251643   -3.19822e-08   1.17820e-07 DIIS
   @DF-RHF iter  11:  -322.33307804622552   -3.70909e-09   3.41979e-08 DIIS
   @DF-RHF iter  12:  -322.33307804656920   -3.43675e-10   9.99282e-09 DIIS
   @DF-RHF iter  13:  -322.33307804660393   -3.47313e-11   3.97889e-09 DIIS
   @DF-RHF iter  14:  -322.33307804660939   -5.45697e-12   1.90942e-09 DIIS
   @DF-RHF iter  15:  -322.33307804661155   -2.16005e-12   7.97155e-10 DIIS
   @DF-RHF iter  16:  -322.33307804661240   -8.52651e-13   2.97534e-10 DIIS
   @DF-RHF iter  17:  -322.33307804661183    5.68434e-13   1.14761e-10 DIIS
   @DF-RHF iter  18:  -322.33307804661246   -6.25278e-13   4.16526e-11 DIIS
  Energy and wave function converged.


  ==> Post-Iterations <==

    Orbital Energies [Eh]
    ---------------------

    Doubly Occupied:                                                      

       1A    -20.784408     2A    -20.730615     3A    -15.898626  
       4A    -11.572891     5A    -11.506477     6A    -11.424115  
       7A     -1.635955     8A     -1.540853     9A     -1.510436  
      10A     -1.230057    11A     -1.118362    12A     -1.008483  
      13A     -0.975634    14A     -0.963287    15A     -0.882461  
      16A     -0.854952    17A     -0.841591    18A     -0.803515  
      19A     -0.784802    20A     -0.767618    21A     -0.741955  
      22A     -0.679198    23A     -0.651296    24A     -0.630628  

    Virtual:                                                              

      25A     -0.113118    26A     -0.080496    27A     -0.074363  
      28A     -0.070911    29A     -0.049889    30A     -0.047926  
      31A     -0.040873    32A     -0.035906    33A     -0.029650  
      34A     -0.025371    35A     -0.017755    36A     -0.001993  
      37A      0.001012    38A      0.005263    39A      0.008423  
      40A      0.012191    41A      0.020223    42A      0.021314  
      43A      0.029838    44A      0.031144    45A      0.034663  
      46A      0.038128    47A      0.046600    48A      0.057454  
      49A      0.067603    50A      0.079639    51A      0.084429  
      52A      0.096290    53A      0.101181    54A      0.110399  
      55A      0.113333    56A      0.124322    57A      0.129543  
      58A      0.132583    59A      0.134784    60A      0.149020  
      61A      0.150874    62A      0.163426    63A      0.169912  
      64A      0.174587    65A      0.184518    66A      0.191085  
      67A      0.205215    68A      0.211173    69A      0.213698  
      70A      0.222094    71A      0.224618    72A      0.226291  
      73A      0.238717    74A      0.244498    75A      0.247768  
      76A      0.258413    77A      0.265888    78A      0.266278  
      79A      0.275142    80A      0.280699    81A      0.282944  
      82A      0.290155    83A      0.292775    84A      0.297283  
      85A      0.303320    86A      0.308867    87A      0.313614  
      88A      0.320930    89A      0.322943    90A      0.333122  
      91A      0.337470    92A      0.349795    93A      0.363619  
      94A      0.372086    95A      0.379432    96A      0.386613  
      97A      0.396531    98A      0.404796    99A      0.413722  
     100A      0.422930   101A      0.428249   102A      0.435942  
     103A      0.447302   104A      0.452182   105A      0.460062  
     106A      0.470807   107A      0.475877   108A      0.495117  
     109A      0.518323   110A      0.522436   111A      0.531243  
     112A      0.547388   113A      0.551510   114A      0.568973  
     115A      0.586068   116A      0.595970   117A      0.605752  
     118A      0.611582   119A      0.627389   120A      0.633897  
     121A      0.642551   122A      0.646570   123A      0.654706  
     124A      0.669386   125A      0.674727   126A      0.684806  
     127A      0.693106   128A      0.712700   129A      0.727696  
     130A      0.733711   131A      0.739523   132A      0.746532  
     133A      0.750792   134A      0.756180   135A      0.764523  
     136A      0.773695   137A      0.783324   138A      0.793995  
     139A      0.800360   140A      0.808784   141A      0.813199  
     142A      0.819729   143A      0.826181   144A      0.836252  
     145A      0.838819   146A      0.852600   147A      0.864868  
     148A      0.871670   149A      0.877529   150A      0.891478  
     151A      0.898577   152A      0.908680   153A      0.912711  
     154A      0.916863   155A      0.928685   156A      0.950248  
     157A      0.956026   158A      0.959107   159A      0.982942  
     160A      0.992209   161A      0.997204   162A      1.001771  
     163A      1.014437   164A      1.028677   165A      1.036603  
     166A      1.049298   167A      1.050299   168A      1.064482  
     169A      1.085619   170A      1.091381   171A      1.105796  
     172A      1.110335   173A      1.125898   174A      1.139924  
     175A      1.146418   176A      1.159268   177A      1.167144  
     178A      1.180739   179A      1.189163   180A      1.206012  
     181A      1.225057   182A      1.226391   183A      1.235484  
     184A      1.240347   185A      1.264274   186A      1.268536  
     187A      1.273019   188A      1.293539   189A      1.300557  
     190A      1.324964   191A      1.331056   192A      1.339239  
     193A      1.350887   194A      1.368524   195A      1.376878  
     196A      1.397394   197A      1.400615   198A      1.410001  
     199A      1.420023   200A      1.422214   201A      1.439741  
     202A      1.458187   203A      1.472261   204A      1.489460  
     205A      1.499063   206A      1.500284   207A      1.519607  
     208A      1.535382   209A      1.551593   210A      1.554479  
     211A      1.558917   212A      1.570988   213A      1.574054  
     214A      1.594139   215A      1.598562   216A      1.619404  
     217A      1.636004   218A      1.643974   219A      1.656955  
     220A      1.688864   221A      1.698534   222A      1.705953  
     223A      1.708317   224A      1.722628   225A      1.738413  
     226A      1.752924   227A      1.770481   228A      1.782784  
     229A      1.794638   230A      1.799854   231A      1.820883  
     232A      1.833257   233A      1.849609   234A      1.860652  
     235A      1.887792   236A      1.895478   237A      1.903813  
     238A      1.918644   239A      1.948755   240A      1.958910  
     241A      1.984224   242A      2.009862   243A      2.021068  
     244A      2.050019   245A      2.066690   246A      2.090552  
     247A      2.102040   248A      2.126839   249A      2.144660  
     250A      2.161822   251A      2.173630   252A      2.186181  
     253A      2.217664   254A      2.222461   255A      2.242702  
     256A      2.265129   257A      2.284646   258A      2.304769  
     259A      2.308962   260A      2.326311   261A      2.337505  
     262A      2.349384   263A      2.357766   264A      2.373739  
     265A      2.390503   266A      2.434500   267A      2.446239  
     268A      2.468613   269A      2.477507   270A      2.505230  
     271A      2.522375   272A      2.525327   273A      2.549300  
     274A      2.561827   275A      2.594923   276A      2.670083  
     277A      2.681901   278A      2.688725   279A      2.718639  
     280A      2.736019   281A      2.769974   282A      2.796610  
     283A      2.847533   284A      2.867236   285A      2.890722  
     286A      2.907406   287A      2.920687   288A      2.945500  
     289A      3.014168   290A      3.098251   291A      3.153989  
     292A      3.178408   293A      3.190878   294A      3.242007  
     295A      3.258698   296A      3.260552   297A      3.274223  
     298A      3.355739   299A      3.365279   300A      3.425287  
     301A      3.432016   302A      3.453560   303A      3.476931  
     304A      3.486763   305A      3.503839   306A      3.515674  
     307A      3.537387   308A      3.563412   309A      3.578982  
     310A      3.607473   311A      3.630830   312A      3.645734  
     313A      3.664742   314A      3.704905   315A      3.720118  
     316A      3.733526   317A      3.740383   318A      3.800301  
     319A      3.817148   320A      3.834135   321A      3.849035  
     322A      3.866453   323A      3.871266   324A      3.882606  
     325A      3.889062   326A      3.920148   327A      3.925184  
     328A      3.941674   329A      3.955504   330A      3.967625  
     331A      3.990977   332A      4.002815   333A      4.024206  
     334A      4.055284   335A      4.067434   336A      4.087507  
     337A      4.095712   338A      4.112727   339A      4.130700  
     340A      4.166200   341A      4.186664   342A      4.208876  
     343A      4.228924   344A      4.264762   345A      4.279713  
     346A      4.297341   347A      4.317607   348A      4.329241  
     349A      4.350458   350A      4.363680   351A      4.383808  
     352A      4.406856   353A      4.411299   354A      4.424566  
     355A      4.444294   356A      4.457091   357A      4.485107  
     358A      4.499760   359A      4.524020   360A      4.534520  
     361A      4.547354   362A      4.564893   363A      4.611841  
     364A      4.614194   365A      4.661877   366A      4.666673  
     367A      4.685223   368A      4.731236   369A      4.741264  
     370A      4.753185   371A      4.762593   372A      4.782223  
     373A      4.808357   374A      4.828309   375A      4.853565  
     376A      4.861996   377A      4.919630   378A      4.930580  
     379A      4.937449   380A      4.959686   381A      5.005523  
     382A      5.008345   383A      5.026356   384A      5.051738  
     385A      5.076830   386A      5.096167   387A      5.100249  
     388A      5.126099   389A      5.146847   390A      5.168169  
     391A      5.175768   392A      5.219962   393A      5.242410  
     394A      5.270886   395A      5.284504   396A      5.333619  
     397A      5.382906   398A      5.403630   399A      5.418396  
     400A      5.461375   401A      5.573878   402A      5.588179  
     403A      5.618039   404A      5.629341   405A      5.658141  
     406A      5.715342   407A      5.745433   408A      5.808471  
     409A      5.848957   410A      5.880356   411A      5.911634  
     412A      5.966240   413A      5.978586   414A      6.096047  
     415A      6.108144   416A      6.126403   417A      6.186548  
     418A      6.306453   419A      6.336879   420A      6.420479  
     421A      6.472165   422A      6.492805   423A      6.530074  
     424A      6.550194   425A      6.567485   426A      6.599660  
     427A      6.626606   428A      6.699033   429A      6.724700  
     430A      6.771850   431A      6.867471   432A      6.883814  
     433A      6.902870   434A      6.938600   435A      6.953770  
     436A      7.046387   437A      7.091089   438A      7.135596  
     439A      7.186545   440A      7.234205   441A      7.256816  
     442A      7.291810   443A      7.402370   444A      7.416359  
     445A      7.495855   446A      7.539477   447A      7.553626  
     448A      7.619122   449A      7.642971   450A      7.717289  
     451A      7.835367   452A      7.880187   453A      8.116846  
     454A      8.416179   455A     15.235350   456A     15.914615  
     457A     16.546673   458A     18.591498   459A     19.075666  
     460A     19.556692  

    Final Occupation by Irrep:
              A 
    DOCC [    24 ]

  @DF-RHF Final Energy:  -322.33307804661246

   => Energetics <=

    Nuclear Repulsion Energy =            257.2274381673187236
    One-Electron Energy =                -940.0446064599275360
    Two-Electron Energy =                 360.4840902459963559
    Total Energy =                       -322.3330780466124565

Computation Completed

*** tstop() called on node93.bme.utexas.edu at Wed Nov  4 02:03:59 2020
Module time:
	user time   =      73.23 seconds =       1.22 minutes
	system time =       1.84 seconds =       0.03 minutes
	total time  =         11 seconds =       0.18 minutes
Total time:
	user time   =      73.23 seconds =       1.22 minutes
	system time =       1.84 seconds =       0.03 minutes
	total time  =         11 seconds =       0.18 minutes
   => Loading Basis Set <=

    Name: (AUG-CC-PVTZ AUX)
    Role: RIFIT
    Keyword: DF_BASIS_MP2
    atoms 1-2  entry O          line   264 file /home/xy3866/psi4conda/share/psi4/basis/aug-cc-pvtz-ri.gbs 
    atoms 3    entry N          line   206 file /home/xy3866/psi4conda/share/psi4/basis/aug-cc-pvtz-ri.gbs 
    atoms 4-6  entry C          line   148 file /home/xy3866/psi4conda/share/psi4/basis/aug-cc-pvtz-ri.gbs 
    atoms 7-14 entry H          line    30 file /home/xy3866/psi4conda/share/psi4/basis/aug-cc-pvtz-ri.gbs 


*** tstart() called on node93.bme.utexas.edu
*** at Wed Nov  4 02:04:00 2020


  //>>>>>>>>>>>>>>>>>>>>>>>>>>>>>>>>>>>//
  //               DFMP2               //
  //<<<<<<<<<<<<<<<<<<<<<<<<<<<<<<<<<<<//

	 --------------------------------------------------------
	                          DF-MP2                         
	      2nd-Order Density-Fitted Moller-Plesset Theory     
	              RMP2 Wavefunction,   8 Threads             
	                                                         
	        Rob Parrish, Justin Turney, Andy Simmonett,      
	           Ed Hohenstein, and C. David Sherrill          
	 --------------------------------------------------------

   => Auxiliary Basis Set <=

  Basis Set: (AUG-CC-PVTZ AUX)
    Blend: AUG-CC-PVTZ-RI
    Number of shells: 280
    Number of basis function: 1004
    Number of Cartesian functions: 1256
    Spherical Harmonics?: true
    Max angular momentum: 4

	 --------------------------------------------------------
	                 NBF =   460, NAUX =  1004
	 --------------------------------------------------------
	   CLASS    FOCC     OCC    AOCC    AVIR     VIR    FVIR
	   PAIRS       0      24      24     436     436       0
	 --------------------------------------------------------

  DFHelper Memory: AOs need 1.597 GiB; user supplied 22.352 GiB. Using in-core AOs.


         ------------------------------------------------------------
                                     CPHF                           
                                  Rob Parrish                       
         ------------------------------------------------------------

  ==> Geometry <==

    Molecular point group: c1
    Full point group: C1

    Geometry (in Angstrom), charge = 1, multiplicity = 1:

       Center              X                  Y                   Z               Mass       
    ------------   -----------------  -----------------  -----------------  -----------------
         O           -1.597062835198     0.831309241363    -0.290617127939    15.994914619570
         O           -1.058513835198    -1.266962758637     0.421413872061    15.994914619570
         N            1.512677164802    -1.006879758637    -0.170474127939    14.003074004430
         C            0.666378164802     0.207178241363    -0.410416127939    12.000000000000
         C            1.252142064802     1.551848341363     0.490034572061    12.000000000000
         C           -0.756761835198    -0.180307758637    -0.044449127939    12.000000000000
         H            0.715450164802     0.414460241363    -1.481919127939     1.007825032230
         H            1.184615164802    -1.814643758637    -0.713874127939     1.007825032230
         H            1.493507164802    -1.288025758637     0.817106872061     1.007825032230
         H            2.492871164802    -0.835100758637    -0.428068127939     1.007825032230
         H            1.141125164802     1.196954241363     1.458977872061     1.007825032230
         H            0.559265164802     2.259405241363     0.160536872061     1.007825032230
         H            2.211833164802     1.626502241363     0.099265872061     1.007825032230
         H           -2.503262835198     0.546991241363    -0.037993127939     1.007825032230

  Nuclear repulsion =  257.227438167318724
  Reference energy  = -322.333078046612457

  ==> Basis Set <==

  Basis Set: AUG-CC-PVTZ
    Blend: AUG-CC-PVTZ
    Number of shells: 156
    Number of basis function: 460
    Number of Cartesian functions: 530
    Spherical Harmonics?: true
    Max angular momentum: 3

  ==> CGRSolver (by Rob Parrish) <==

   Number of roots    =         1
   Preconditioning    =    JACOBI
   Convergence cutoff =     1E-06
   Maximum iterations =       100

  ==> CPHFRHamiltonian (by Rob Parrish) <== 

  ==> MemDFJK: Density-Fitted J/K Matrices <==

    J tasked:                   Yes
    K tasked:                   Yes
    wK tasked:                   No
    OpenMP threads:               8
    Memory [MiB]:             22888
    Algorithm:                 Core
    Schwarz Cutoff:           1E-12
    Mask sparsity (%):       1.8582
    Fitting Condition:        1E-10

   => Auxiliary Basis Set <=

  Basis Set: (AUG-CC-PVTZ AUX)
    Blend: AUG-CC-PVTZ-JKFIT
    Number of shells: 292
    Number of basis function: 992
    Number of Cartesian functions: 1226
    Spherical Harmonics?: true
    Max angular momentum: 4

  ==> CPHF Iterations <==

  => Iterations <=

             Iter  Converged  Remaining    Residual
  CGR           1          0          1   1.095E-01
  CGR           2          0          1   3.324E-02
  CGR           3          0          1   1.248E-02
  CGR           4          0          1   3.752E-03
  CGR           5          0          1   1.320E-03
  CGR           6          0          1   3.303E-04
  CGR           7          0          1   9.811E-05
  CGR           8          0          1   3.066E-05
  CGR           9          0          1   1.070E-05
  CGR          10          0          1   4.565E-06
  CGR          11          0          1   1.455E-06
  CGR          12          1          0   4.279E-07

    CGRSolver converged.

	-----------------------------------------------------------
	 ==================> DF-MP2 Energies <==================== 
	-----------------------------------------------------------
	 Reference Energy          =    -322.3330780466124565 [Eh]
	 Singles Energy            =      -0.0000000000000000 [Eh]
	 Same-Spin Energy          =      -0.3109817068790209 [Eh]
	 Opposite-Spin Energy      =      -0.9980731384768717 [Eh]
	 Correlation Energy        =      -1.3090548453558926 [Eh]
	 Total Energy              =    -323.6421328919683447 [Eh]
	-----------------------------------------------------------
	 ================> DF-SCS-MP2 Energies <================== 
	-----------------------------------------------------------
	 SCS Same-Spin Scale       =       0.3333333333333333 [-]
	 SCS Opposite-Spin Scale   =       1.2000000000000000 [-]
	 SCS Same-Spin Energy      =      -0.1036605689596736 [Eh]
	 SCS Opposite-Spin Energy  =      -1.1976877661722460 [Eh]
	 SCS Correlation Energy    =      -1.3013483351319197 [Eh]
	 SCS Total Energy          =    -323.6344263817443903 [Eh]
	-----------------------------------------------------------



Properties will be evaluated at  -0.000000,  -0.000000,  -0.000000 [a0]

Properties computed using the MP2 density matrix

  Nuclear Dipole Moment: [e a0]
     X:     6.8221      Y:     1.9757      Z:    -0.1170

  Electronic Dipole Moment: [e a0]
     X:    -4.5539      Y:    -2.4648      Z:    -0.3111

  Dipole Moment: [e a0]
     X:     2.2682      Y:    -0.4892      Z:    -0.4280     Total:     2.3595

  Dipole Moment: [D]
     X:     5.7651      Y:    -1.2433      Z:    -1.0879     Total:     5.9971


*** tstop() called on node93.bme.utexas.edu at Wed Nov  4 02:04:33 2020
Module time:
	user time   =     228.84 seconds =       3.81 minutes
	system time =       4.78 seconds =       0.08 minutes
	total time  =         33 seconds =       0.55 minutes
Total time:
	user time   =     303.12 seconds =       5.05 minutes
	system time =       6.67 seconds =       0.11 minutes
	total time  =         45 seconds =       0.75 minutes

    Psi4 stopped on: Wednesday, 04 November 2020 02:04AM
    Psi4 wall time for execution: 0:00:44.75

*** Psi4 exiting successfully. Buy a developer a beer!
