23586771                                                                
Freq      RMP2-FC                                                     6-31G(d)            
Number of atoms                            I               26
Info1-9                                    I   N=           9
          38          36        1002           0           0         100
           6           2           1
Charge                                     I                0
Multiplicity                               I                1
Number of electrons                        I               90
Number of alpha electrons                  I               45
Number of beta electrons                   I               45
Number of basis functions                  I              186
Number of independent functions            I              186
Number of point charges in /Mol/           I                0
Number of translation vectors              I                0
Atomic numbers                             I   N=          26
          16           8           8           6           6           6
           6           6           6           6           1           1
           1           1           1           1           1           1
           1           1           1           1           1           1
           1           1
Nuclear charges                            R   N=          26
  1.60000000E+01  8.00000000E+00  8.00000000E+00  6.00000000E+00  6.00000000E+00
  6.00000000E+00  6.00000000E+00  6.00000000E+00  6.00000000E+00  6.00000000E+00
  1.00000000E+00  1.00000000E+00  1.00000000E+00  1.00000000E+00  1.00000000E+00
  1.00000000E+00  1.00000000E+00  1.00000000E+00  1.00000000E+00  1.00000000E+00
  1.00000000E+00  1.00000000E+00  1.00000000E+00  1.00000000E+00  1.00000000E+00
  1.00000000E+00
Current cartesian coordinates              R   N=          78
 -4.86275971E-01 -6.28009732E-01  2.68179632E-01 -5.40501710E-01 -2.87694035E+00
 -1.37727073E+00 -3.61547760E-01 -9.10855131E-01  3.03857949E+00  2.09333143E+00
  1.38037308E+00 -6.66494593E-01  4.62905013E+00  4.95780742E-01  4.09613870E-01
 -3.23519408E+00  1.22270988E+00 -4.66201303E-01 -5.62634343E+00 -2.81590654E-01
  1.12075649E-01  5.46818076E+00 -2.03558930E+00 -6.97812310E-01  6.61022499E+00
  2.54152415E+00 -7.83223083E-02 -7.99448720E+00  1.25552984E+00 -4.77154582E-01
  2.11676462E+00  1.41974176E+00 -2.73696087E+00  1.63234326E+00  3.27196146E+00
  4.14225453E-02  4.38447362E+00  2.83270361E-01  2.45601955E+00 -3.12098883E+00
  1.71729138E+00 -2.47316284E+00 -3.13377954E+00  2.94868914E+00  6.70329481E-01
 -5.60141812E+00 -2.02503112E+00 -9.98372520E-01 -5.60203683E+00 -8.27166560E-01
  2.10678152E+00  5.66908128E+00 -1.89119596E+00 -2.75350192E+00  4.12119011E+00
 -3.54544670E+00 -2.99469303E-01  7.30431903E+00 -2.57265820E+00  8.72402368E-02
  6.87333845E+00  2.83633704E+00 -2.11034726E+00  6.06741053E+00  4.34682982E+00
  7.73380715E-01  8.43242934E+00  1.98030669E+00  7.21366841E-01 -8.06036053E+00
  2.98666853E+00  6.51362127E-01 -8.05928647E+00  1.78851014E+00 -2.47387492E+00
 -9.69524422E+00  1.59985329E-01 -5.77841202E-02
Force Field                                I                0
Int Atom Types                             I   N=          26
           0           0           0           0           0           0
           0           0           0           0           0           0
           0           0           0           0           0           0
           0           0           0           0           0           0
           0           0
MM charges                                 R   N=          26
  0.00000000E+00  0.00000000E+00  0.00000000E+00  0.00000000E+00  0.00000000E+00
  0.00000000E+00  0.00000000E+00  0.00000000E+00  0.00000000E+00  0.00000000E+00
  0.00000000E+00  0.00000000E+00  0.00000000E+00  0.00000000E+00  0.00000000E+00
  0.00000000E+00  0.00000000E+00  0.00000000E+00  0.00000000E+00  0.00000000E+00
  0.00000000E+00  0.00000000E+00  0.00000000E+00  0.00000000E+00  0.00000000E+00
  0.00000000E+00
Integer atomic weights                     I   N=          26
          32          16          16          12          12          12
          12          12          12          12           1           1
           1           1           1           1           1           1
           1           1           1           1           1           1
           1           1
Real atomic weights                        R   N=          26
  3.19720718E+01  1.59949146E+01  1.59949146E+01  1.20000000E+01  1.20000000E+01
  1.20000000E+01  1.20000000E+01  1.20000000E+01  1.20000000E+01  1.20000000E+01
  1.00782504E+00  1.00782504E+00  1.00782504E+00  1.00782504E+00  1.00782504E+00
  1.00782504E+00  1.00782504E+00  1.00782504E+00  1.00782504E+00  1.00782504E+00
  1.00782504E+00  1.00782504E+00  1.00782504E+00  1.00782504E+00  1.00782504E+00
  1.00782504E+00
Atom fragment info                         I   N=          26
           0           0           0           0           0           0
           0           0           0           0           0           0
           0           0           0           0           0           0
           0           0           0           0           0           0
           0           0
Atom residue num                           I   N=          26
           0           0           0           0           0           0
           0           0           0           0           0           0
           0           0           0           0           0           0
           0           0           0           0           0           0
           0           0
Nuclear spins                              I   N=          26
           0           0           0           0           0           0
           0           0           0           0           1           1
           1           1           1           1           1           1
           1           1           1           1           1           1
           1           1
Nuclear ZEff                               R   N=          26
 -1.36000000E+01 -5.60000000E+00 -5.60000000E+00 -3.60000000E+00 -3.60000000E+00
 -3.60000000E+00 -3.60000000E+00 -3.60000000E+00 -3.60000000E+00 -3.60000000E+00
 -1.00000000E+00 -1.00000000E+00 -1.00000000E+00 -1.00000000E+00 -1.00000000E+00
 -1.00000000E+00 -1.00000000E+00 -1.00000000E+00 -1.00000000E+00 -1.00000000E+00
 -1.00000000E+00 -1.00000000E+00 -1.00000000E+00 -1.00000000E+00 -1.00000000E+00
 -1.00000000E+00
Nuclear QMom                               R   N=          26
  0.00000000E+00  0.00000000E+00  0.00000000E+00  0.00000000E+00  0.00000000E+00
  0.00000000E+00  0.00000000E+00  0.00000000E+00  0.00000000E+00  0.00000000E+00
  0.00000000E+00  0.00000000E+00  0.00000000E+00  0.00000000E+00  0.00000000E+00
  0.00000000E+00  0.00000000E+00  0.00000000E+00  0.00000000E+00  0.00000000E+00
  0.00000000E+00  0.00000000E+00  0.00000000E+00  0.00000000E+00  0.00000000E+00
  0.00000000E+00
Nuclear GFac                               R   N=          26
  0.00000000E+00  0.00000000E+00  0.00000000E+00  0.00000000E+00  0.00000000E+00
  0.00000000E+00  0.00000000E+00  0.00000000E+00  0.00000000E+00  0.00000000E+00
  2.79284600E+00  2.79284600E+00  2.79284600E+00  2.79284600E+00  2.79284600E+00
  2.79284600E+00  2.79284600E+00  2.79284600E+00  2.79284600E+00  2.79284600E+00
  2.79284600E+00  2.79284600E+00  2.79284600E+00  2.79284600E+00  2.79284600E+00
  2.79284600E+00
MicOpt                                     I   N=          26
          -1          -1          -1          -1          -1          -1
          -1          -1          -1          -1          -1          -1
          -1          -1          -1          -1          -1          -1
          -1          -1          -1          -1          -1          -1
          -1          -1
Number of contracted shells                I               73
Number of primitive shells                 I              180
Pure/Cartesian d shells                    I                1
Pure/Cartesian f shells                    I                0
Highest angular momentum                   I                2
Largest degree of contraction              I                6
Shell types                                I   N=          73
           0          -1          -1          -1           2           0
          -1          -1           2           0          -1          -1
           2           0          -1          -1           2           0
          -1          -1           2           0          -1          -1
           2           0          -1          -1           2           0
          -1          -1           2           0          -1          -1
           2           0          -1          -1           2           0
           0           0           0           0           0           0
           0           0           0           0           0           0
           0           0           0           0           0           0
           0           0           0           0           0           0
           0           0           0           0           0           0
           0
Number of primitives per shell             I   N=          73
           6           6           3           1           1           6
           3           1           1           6           3           1
           1           6           3           1           1           6
           3           1           1           6           3           1
           1           6           3           1           1           6
           3           1           1           6           3           1
           1           6           3           1           1           3
           1           3           1           3           1           3
           1           3           1           3           1           3
           1           3           1           3           1           3
           1           3           1           3           1           3
           1           3           1           3           1           3
           1
Shell to atom map                          I   N=          73
           1           1           1           1           1           2
           2           2           2           3           3           3
           3           4           4           4           4           5
           5           5           5           6           6           6
           6           7           7           7           7           8
           8           8           8           9           9           9
           9          10          10          10          10          11
          11          12          12          13          13          14
          14          15          15          16          16          17
          17          18          18          19          19          20
          20          21          21          22          22          23
          23          24          24          25          25          26
          26
Primitive exponents                        R   N=         180
  2.19171000E+04  3.30149000E+03  7.54146000E+02  2.12711000E+02  6.79896000E+01
  2.30515000E+01  4.23735000E+02  1.00710000E+02  3.21599000E+01  1.18079000E+01
  4.63110000E+00  1.87025000E+00  2.61584000E+00  9.22167000E-01  3.41287000E-01
  1.17167000E-01  6.50000000E-01  5.48467166E+03  8.25234946E+02  1.88046958E+02
  5.29645000E+01  1.68975704E+01  5.79963534E+00  1.55396162E+01  3.59993359E+00
  1.01376175E+00  2.70005823E-01  8.00000000E-01  5.48467166E+03  8.25234946E+02
  1.88046958E+02  5.29645000E+01  1.68975704E+01  5.79963534E+00  1.55396162E+01
  3.59993359E+00  1.01376175E+00  2.70005823E-01  8.00000000E-01  3.04752488E+03
  4.57369518E+02  1.03948685E+02  2.92101553E+01  9.28666296E+00  3.16392696E+00
  7.86827235E+00  1.88128854E+00  5.44249258E-01  1.68714478E-01  8.00000000E-01
  3.04752488E+03  4.57369518E+02  1.03948685E+02  2.92101553E+01  9.28666296E+00
  3.16392696E+00  7.86827235E+00  1.88128854E+00  5.44249258E-01  1.68714478E-01
  8.00000000E-01  3.04752488E+03  4.57369518E+02  1.03948685E+02  2.92101553E+01
  9.28666296E+00  3.16392696E+00  7.86827235E+00  1.88128854E+00  5.44249258E-01
  1.68714478E-01  8.00000000E-01  3.04752488E+03  4.57369518E+02  1.03948685E+02
  2.92101553E+01  9.28666296E+00  3.16392696E+00  7.86827235E+00  1.88128854E+00
  5.44249258E-01  1.68714478E-01  8.00000000E-01  3.04752488E+03  4.57369518E+02
  1.03948685E+02  2.92101553E+01  9.28666296E+00  3.16392696E+00  7.86827235E+00
  1.88128854E+00  5.44249258E-01  1.68714478E-01  8.00000000E-01  3.04752488E+03
  4.57369518E+02  1.03948685E+02  2.92101553E+01  9.28666296E+00  3.16392696E+00
  7.86827235E+00  1.88128854E+00  5.44249258E-01  1.68714478E-01  8.00000000E-01
  3.04752488E+03  4.57369518E+02  1.03948685E+02  2.92101553E+01  9.28666296E+00
  3.16392696E+00  7.86827235E+00  1.88128854E+00  5.44249258E-01  1.68714478E-01
  8.00000000E-01  1.87311370E+01  2.82539436E+00  6.40121692E-01  1.61277759E-01
  1.87311370E+01  2.82539436E+00  6.40121692E-01  1.61277759E-01  1.87311370E+01
  2.82539436E+00  6.40121692E-01  1.61277759E-01  1.87311370E+01  2.82539436E+00
  6.40121692E-01  1.61277759E-01  1.87311370E+01  2.82539436E+00  6.40121692E-01
  1.61277759E-01  1.87311370E+01  2.82539436E+00  6.40121692E-01  1.61277759E-01
  1.87311370E+01  2.82539436E+00  6.40121692E-01  1.61277759E-01  1.87311370E+01
  2.82539436E+00  6.40121692E-01  1.61277759E-01  1.87311370E+01  2.82539436E+00
  6.40121692E-01  1.61277759E-01  1.87311370E+01  2.82539436E+00  6.40121692E-01
  1.61277759E-01  1.87311370E+01  2.82539436E+00  6.40121692E-01  1.61277759E-01
  1.87311370E+01  2.82539436E+00  6.40121692E-01  1.61277759E-01  1.87311370E+01
  2.82539436E+00  6.40121692E-01  1.61277759E-01  1.87311370E+01  2.82539436E+00
  6.40121692E-01  1.61277759E-01  1.87311370E+01  2.82539436E+00  6.40121692E-01
  1.61277759E-01  1.87311370E+01  2.82539436E+00  6.40121692E-01  1.61277759E-01
Contraction coefficients                   R   N=         180
  1.86924085E-03  1.42303065E-02  6.96962317E-02  2.38487108E-01  4.83307220E-01
  3.38074154E-01 -2.37677050E-03 -3.16930067E-02 -1.13317024E-01  5.60900118E-02
  5.92255124E-01  4.55006095E-01 -2.50373114E-01  6.69567631E-02  1.05450627E+00
  1.00000000E+00  1.00000000E+00  1.83107443E-03  1.39501722E-02  6.84450781E-02
  2.32714336E-01  4.70192898E-01  3.58520853E-01 -1.10777550E-01 -1.48026263E-01
  1.13076702E+00  1.00000000E+00  1.00000000E+00  1.83107443E-03  1.39501722E-02
  6.84450781E-02  2.32714336E-01  4.70192898E-01  3.58520853E-01 -1.10777550E-01
 -1.48026263E-01  1.13076702E+00  1.00000000E+00  1.00000000E+00  1.83473713E-03
  1.40373228E-02  6.88426223E-02  2.32184443E-01  4.67941348E-01  3.62311985E-01
 -1.19332420E-01 -1.60854152E-01  1.14345644E+00  1.00000000E+00  1.00000000E+00
  1.83473713E-03  1.40373228E-02  6.88426223E-02  2.32184443E-01  4.67941348E-01
  3.62311985E-01 -1.19332420E-01 -1.60854152E-01  1.14345644E+00  1.00000000E+00
  1.00000000E+00  1.83473713E-03  1.40373228E-02  6.88426223E-02  2.32184443E-01
  4.67941348E-01  3.62311985E-01 -1.19332420E-01 -1.60854152E-01  1.14345644E+00
  1.00000000E+00  1.00000000E+00  1.83473713E-03  1.40373228E-02  6.88426223E-02
  2.32184443E-01  4.67941348E-01  3.62311985E-01 -1.19332420E-01 -1.60854152E-01
  1.14345644E+00  1.00000000E+00  1.00000000E+00  1.83473713E-03  1.40373228E-02
  6.88426223E-02  2.32184443E-01  4.67941348E-01  3.62311985E-01 -1.19332420E-01
 -1.60854152E-01  1.14345644E+00  1.00000000E+00  1.00000000E+00  1.83473713E-03
  1.40373228E-02  6.88426223E-02  2.32184443E-01  4.67941348E-01  3.62311985E-01
 -1.19332420E-01 -1.60854152E-01  1.14345644E+00  1.00000000E+00  1.00000000E+00
  1.83473713E-03  1.40373228E-02  6.88426223E-02  2.32184443E-01  4.67941348E-01
  3.62311985E-01 -1.19332420E-01 -1.60854152E-01  1.14345644E+00  1.00000000E+00
  1.00000000E+00  3.34946043E-02  2.34726953E-01  8.13757326E-01  1.00000000E+00
  3.34946043E-02  2.34726953E-01  8.13757326E-01  1.00000000E+00  3.34946043E-02
  2.34726953E-01  8.13757326E-01  1.00000000E+00  3.34946043E-02  2.34726953E-01
  8.13757326E-01  1.00000000E+00  3.34946043E-02  2.34726953E-01  8.13757326E-01
  1.00000000E+00  3.34946043E-02  2.34726953E-01  8.13757326E-01  1.00000000E+00
  3.34946043E-02  2.34726953E-01  8.13757326E-01  1.00000000E+00  3.34946043E-02
  2.34726953E-01  8.13757326E-01  1.00000000E+00  3.34946043E-02  2.34726953E-01
  8.13757326E-01  1.00000000E+00  3.34946043E-02  2.34726953E-01  8.13757326E-01
  1.00000000E+00  3.34946043E-02  2.34726953E-01  8.13757326E-01  1.00000000E+00
  3.34946043E-02  2.34726953E-01  8.13757326E-01  1.00000000E+00  3.34946043E-02
  2.34726953E-01  8.13757326E-01  1.00000000E+00  3.34946043E-02  2.34726953E-01
  8.13757326E-01  1.00000000E+00  3.34946043E-02  2.34726953E-01  8.13757326E-01
  1.00000000E+00  3.34946043E-02  2.34726953E-01  8.13757326E-01  1.00000000E+00
P(S=P) Contraction coefficients            R   N=         180
  0.00000000E+00  0.00000000E+00  0.00000000E+00  0.00000000E+00  0.00000000E+00
  0.00000000E+00  4.06100998E-03  3.06812999E-02  1.30451999E-01  3.27204999E-01
  4.52850998E-01  2.56041999E-01 -1.45104895E-02  3.10262776E-01  7.54482456E-01
  1.00000000E+00  0.00000000E+00  0.00000000E+00  0.00000000E+00  0.00000000E+00
  0.00000000E+00  0.00000000E+00  0.00000000E+00  7.08742682E-02  3.39752839E-01
  7.27158577E-01  1.00000000E+00  0.00000000E+00  0.00000000E+00  0.00000000E+00
  0.00000000E+00  0.00000000E+00  0.00000000E+00  0.00000000E+00  7.08742682E-02
  3.39752839E-01  7.27158577E-01  1.00000000E+00  0.00000000E+00  0.00000000E+00
  0.00000000E+00  0.00000000E+00  0.00000000E+00  0.00000000E+00  0.00000000E+00
  6.89990666E-02  3.16423961E-01  7.44308291E-01  1.00000000E+00  0.00000000E+00
  0.00000000E+00  0.00000000E+00  0.00000000E+00  0.00000000E+00  0.00000000E+00
  0.00000000E+00  6.89990666E-02  3.16423961E-01  7.44308291E-01  1.00000000E+00
  0.00000000E+00  0.00000000E+00  0.00000000E+00  0.00000000E+00  0.00000000E+00
  0.00000000E+00  0.00000000E+00  6.89990666E-02  3.16423961E-01  7.44308291E-01
  1.00000000E+00  0.00000000E+00  0.00000000E+00  0.00000000E+00  0.00000000E+00
  0.00000000E+00  0.00000000E+00  0.00000000E+00  6.89990666E-02  3.16423961E-01
  7.44308291E-01  1.00000000E+00  0.00000000E+00  0.00000000E+00  0.00000000E+00
  0.00000000E+00  0.00000000E+00  0.00000000E+00  0.00000000E+00  6.89990666E-02
  3.16423961E-01  7.44308291E-01  1.00000000E+00  0.00000000E+00  0.00000000E+00
  0.00000000E+00  0.00000000E+00  0.00000000E+00  0.00000000E+00  0.00000000E+00
  6.89990666E-02  3.16423961E-01  7.44308291E-01  1.00000000E+00  0.00000000E+00
  0.00000000E+00  0.00000000E+00  0.00000000E+00  0.00000000E+00  0.00000000E+00
  0.00000000E+00  6.89990666E-02  3.16423961E-01  7.44308291E-01  1.00000000E+00
  0.00000000E+00  0.00000000E+00  0.00000000E+00  0.00000000E+00  0.00000000E+00
  0.00000000E+00  0.00000000E+00  0.00000000E+00  0.00000000E+00  0.00000000E+00
  0.00000000E+00  0.00000000E+00  0.00000000E+00  0.00000000E+00  0.00000000E+00
  0.00000000E+00  0.00000000E+00  0.00000000E+00  0.00000000E+00  0.00000000E+00
  0.00000000E+00  0.00000000E+00  0.00000000E+00  0.00000000E+00  0.00000000E+00
  0.00000000E+00  0.00000000E+00  0.00000000E+00  0.00000000E+00  0.00000000E+00
  0.00000000E+00  0.00000000E+00  0.00000000E+00  0.00000000E+00  0.00000000E+00
  0.00000000E+00  0.00000000E+00  0.00000000E+00  0.00000000E+00  0.00000000E+00
  0.00000000E+00  0.00000000E+00  0.00000000E+00  0.00000000E+00  0.00000000E+00
  0.00000000E+00  0.00000000E+00  0.00000000E+00  0.00000000E+00  0.00000000E+00
  0.00000000E+00  0.00000000E+00  0.00000000E+00  0.00000000E+00  0.00000000E+00
  0.00000000E+00  0.00000000E+00  0.00000000E+00  0.00000000E+00  0.00000000E+00
  0.00000000E+00  0.00000000E+00  0.00000000E+00  0.00000000E+00  0.00000000E+00
Coordinates of each shell                  R   N=         219
 -4.86275971E-01 -6.28009732E-01  2.68179632E-01 -4.86275971E-01 -6.28009732E-01
  2.68179632E-01 -4.86275971E-01 -6.28009732E-01  2.68179632E-01 -4.86275971E-01
 -6.28009732E-01  2.68179632E-01 -4.86275971E-01 -6.28009732E-01  2.68179632E-01
 -5.40501710E-01 -2.87694035E+00 -1.37727073E+00 -5.40501710E-01 -2.87694035E+00
 -1.37727073E+00 -5.40501710E-01 -2.87694035E+00 -1.37727073E+00 -5.40501710E-01
 -2.87694035E+00 -1.37727073E+00 -3.61547760E-01 -9.10855131E-01  3.03857949E+00
 -3.61547760E-01 -9.10855131E-01  3.03857949E+00 -3.61547760E-01 -9.10855131E-01
  3.03857949E+00 -3.61547760E-01 -9.10855131E-01  3.03857949E+00  2.09333143E+00
  1.38037308E+00 -6.66494593E-01  2.09333143E+00  1.38037308E+00 -6.66494593E-01
  2.09333143E+00  1.38037308E+00 -6.66494593E-01  2.09333143E+00  1.38037308E+00
 -6.66494593E-01  4.62905013E+00  4.95780742E-01  4.09613870E-01  4.62905013E+00
  4.95780742E-01  4.09613870E-01  4.62905013E+00  4.95780742E-01  4.09613870E-01
  4.62905013E+00  4.95780742E-01  4.09613870E-01 -3.23519408E+00  1.22270988E+00
 -4.66201303E-01 -3.23519408E+00  1.22270988E+00 -4.66201303E-01 -3.23519408E+00
  1.22270988E+00 -4.66201303E-01 -3.23519408E+00  1.22270988E+00 -4.66201303E-01
 -5.62634343E+00 -2.81590654E-01  1.12075649E-01 -5.62634343E+00 -2.81590654E-01
  1.12075649E-01 -5.62634343E+00 -2.81590654E-01  1.12075649E-01 -5.62634343E+00
 -2.81590654E-01  1.12075649E-01  5.46818076E+00 -2.03558930E+00 -6.97812310E-01
  5.46818076E+00 -2.03558930E+00 -6.97812310E-01  5.46818076E+00 -2.03558930E+00
 -6.97812310E-01  5.46818076E+00 -2.03558930E+00 -6.97812310E-01  6.61022499E+00
  2.54152415E+00 -7.83223083E-02  6.61022499E+00  2.54152415E+00 -7.83223083E-02
  6.61022499E+00  2.54152415E+00 -7.83223083E-02  6.61022499E+00  2.54152415E+00
 -7.83223083E-02 -7.99448720E+00  1.25552984E+00 -4.77154582E-01 -7.99448720E+00
  1.25552984E+00 -4.77154582E-01 -7.99448720E+00  1.25552984E+00 -4.77154582E-01
 -7.99448720E+00  1.25552984E+00 -4.77154582E-01  2.11676462E+00  1.41974176E+00
 -2.73696087E+00  2.11676462E+00  1.41974176E+00 -2.73696087E+00  1.63234326E+00
  3.27196146E+00  4.14225453E-02  1.63234326E+00  3.27196146E+00  4.14225453E-02
  4.38447362E+00  2.83270361E-01  2.45601955E+00  4.38447362E+00  2.83270361E-01
  2.45601955E+00 -3.12098883E+00  1.71729138E+00 -2.47316284E+00 -3.12098883E+00
  1.71729138E+00 -2.47316284E+00 -3.13377954E+00  2.94868914E+00  6.70329481E-01
 -3.13377954E+00  2.94868914E+00  6.70329481E-01 -5.60141812E+00 -2.02503112E+00
 -9.98372520E-01 -5.60141812E+00 -2.02503112E+00 -9.98372520E-01 -5.60203683E+00
 -8.27166560E-01  2.10678152E+00 -5.60203683E+00 -8.27166560E-01  2.10678152E+00
  5.66908128E+00 -1.89119596E+00 -2.75350192E+00  5.66908128E+00 -1.89119596E+00
 -2.75350192E+00  4.12119011E+00 -3.54544670E+00 -2.99469303E-01  4.12119011E+00
 -3.54544670E+00 -2.99469303E-01  7.30431903E+00 -2.57265820E+00  8.72402368E-02
  7.30431903E+00 -2.57265820E+00  8.72402368E-02  6.87333845E+00  2.83633704E+00
 -2.11034726E+00  6.87333845E+00  2.83633704E+00 -2.11034726E+00  6.06741053E+00
  4.34682982E+00  7.73380715E-01  6.06741053E+00  4.34682982E+00  7.73380715E-01
  8.43242934E+00  1.98030669E+00  7.21366841E-01  8.43242934E+00  1.98030669E+00
  7.21366841E-01 -8.06036053E+00  2.98666853E+00  6.51362127E-01 -8.06036053E+00
  2.98666853E+00  6.51362127E-01 -8.05928647E+00  1.78851014E+00 -2.47387492E+00
 -8.05928647E+00  1.78851014E+00 -2.47387492E+00 -9.69524422E+00  1.59985329E-01
 -5.77841202E-02 -9.69524422E+00  1.59985329E-01 -5.77841202E-02
Constraint Structure                       R   N=          78
 -4.86275971E-01 -6.28009732E-01  2.68179632E-01 -5.40501710E-01 -2.87694035E+00
 -1.37727073E+00 -3.61547760E-01 -9.10855131E-01  3.03857949E+00  2.09333143E+00
  1.38037308E+00 -6.66494593E-01  4.62905013E+00  4.95780742E-01  4.09613870E-01
 -3.23519408E+00  1.22270988E+00 -4.66201303E-01 -5.62634343E+00 -2.81590654E-01
  1.12075649E-01  5.46818076E+00 -2.03558930E+00 -6.97812310E-01  6.61022499E+00
  2.54152415E+00 -7.83223083E-02 -7.99448720E+00  1.25552984E+00 -4.77154582E-01
  2.11676462E+00  1.41974176E+00 -2.73696087E+00  1.63234326E+00  3.27196146E+00
  4.14225453E-02  4.38447362E+00  2.83270361E-01  2.45601955E+00 -3.12098883E+00
  1.71729138E+00 -2.47316284E+00 -3.13377954E+00  2.94868914E+00  6.70329481E-01
 -5.60141812E+00 -2.02503112E+00 -9.98372520E-01 -5.60203683E+00 -8.27166560E-01
  2.10678152E+00  5.66908128E+00 -1.89119596E+00 -2.75350192E+00  4.12119011E+00
 -3.54544670E+00 -2.99469303E-01  7.30431903E+00 -2.57265820E+00  8.72402368E-02
  6.87333845E+00  2.83633704E+00 -2.11034726E+00  6.06741053E+00  4.34682982E+00
  7.73380715E-01  8.43242934E+00  1.98030669E+00  7.21366841E-01 -8.06036053E+00
  2.98666853E+00  6.51362127E-01 -8.05928647E+00  1.78851014E+00 -2.47387492E+00
 -9.69524422E+00  1.59985329E-01 -5.77841202E-02
Num ILSW                                   I              100
ILSW                                       I   N=         100
           0           1           0           0           2           0
           0           0           0           0           0          -1
           0           0           0           0           0           0
           0           0           0           0           1           0
           1           0           0           0           0           0
           0           0      100000           0          -1           0
           0           0           0           0           0           0
           0           0           0           1           1           0
           0           0           1           0           0           0
           0           0           4          40           0           0
           0           0           0           0           0           0
           0           0           0           0           0           0
           0           0           0           0           0           0
           0           0           0           0           0           0
           0           0           0           0           0           0
           0           0           0           0           0           0
           0           0           0           0
Num RLSW                                   I               40
RLSW                                       R   N=          40
  1.00000000E+00  1.00000000E+00  1.00000000E+00  1.00000000E+00  1.00000000E+00
  0.00000000E+00  0.00000000E+00  1.00000000E+00  0.00000000E+00  0.00000000E+00
  0.00000000E+00  0.00000000E+00  1.00000000E+00  0.00000000E+00  0.00000000E+00
  0.00000000E+00  0.00000000E+00  1.00000000E+00  0.00000000E+00  0.00000000E+00
  0.00000000E+00  0.00000000E+00  1.00000000E+00  0.00000000E+00  0.00000000E+00
  0.00000000E+00  0.00000000E+00  1.00000000E+00  0.00000000E+00  0.00000000E+00
  0.00000000E+00  0.00000000E+00  0.00000000E+00  0.00000000E+00  0.00000000E+00
  0.00000000E+00  0.00000000E+00  0.00000000E+00  1.00000000E+00  1.00000000E+00
MxBond                                     I                4
NBond                                      I   N=          26
           4           1           1           4           4           4
           4           4           4           4           1           1
           1           1           1           1           1           1
           1           1           1           1           1           1
           1           1
IBond                                      I   N=         104
           2           3           4           6           1           0
           0           0           1           0           0           0
           1           5          11          12           4           8
           9          13           1           7          14          15
           6          10          16          17           5          18
          19          20           5          21          22          23
           7          24          25          26           4           0
           0           0           4           0           0           0
           5           0           0           0           6           0
           0           0           6           0           0           0
           7           0           0           0           7           0
           0           0           8           0           0           0
           8           0           0           0           8           0
           0           0           9           0           0           0
           9           0           0           0           9           0
           0           0          10           0           0           0
          10           0           0           0          10           0
           0           0
RBond                                      R   N=         104
  2.00000000E+00  2.00000000E+00  1.00000000E+00  1.00000000E+00  2.00000000E+00
  0.00000000E+00  0.00000000E+00  0.00000000E+00  2.00000000E+00  0.00000000E+00
  0.00000000E+00  0.00000000E+00  1.00000000E+00  1.00000000E+00  1.00000000E+00
  1.00000000E+00  1.00000000E+00  1.00000000E+00  1.00000000E+00  1.00000000E+00
  1.00000000E+00  1.00000000E+00  1.00000000E+00  1.00000000E+00  1.00000000E+00
  1.00000000E+00  1.00000000E+00  1.00000000E+00  1.00000000E+00  1.00000000E+00
  1.00000000E+00  1.00000000E+00  1.00000000E+00  1.00000000E+00  1.00000000E+00
  1.00000000E+00  1.00000000E+00  1.00000000E+00  1.00000000E+00  1.00000000E+00
  1.00000000E+00  0.00000000E+00  0.00000000E+00  0.00000000E+00  1.00000000E+00
  0.00000000E+00  0.00000000E+00  0.00000000E+00  1.00000000E+00  0.00000000E+00
  0.00000000E+00  0.00000000E+00  1.00000000E+00  0.00000000E+00  0.00000000E+00
  0.00000000E+00  1.00000000E+00  0.00000000E+00  0.00000000E+00  0.00000000E+00
  1.00000000E+00  0.00000000E+00  0.00000000E+00  0.00000000E+00  1.00000000E+00