10953466                                                                
Freq      RMP2-FC                                                     6-31G(d)            
Number of atoms                            I               18
Info1-9                                    I   N=           9
          30          28        1002           0           0         100
           6           2           1
Charge                                     I                0
Multiplicity                               I                1
Number of electrons                        I               62
Number of alpha electrons                  I               31
Number of beta electrons                   I               31
Number of basis functions                  I              140
Number of independent functions            I              140
Number of point charges in /Mol/           I                0
Number of translation vectors              I                0
Atomic numbers                             I   N=          18
           8           8           6           6           6           6
           6           6           1           1           1           1
           1           1           1           1           1           1
Nuclear charges                            R   N=          18
  8.00000000E+00  8.00000000E+00  6.00000000E+00  6.00000000E+00  6.00000000E+00
  6.00000000E+00  6.00000000E+00  6.00000000E+00  1.00000000E+00  1.00000000E+00
  1.00000000E+00  1.00000000E+00  1.00000000E+00  1.00000000E+00  1.00000000E+00
  1.00000000E+00  1.00000000E+00  1.00000000E+00
Current cartesian coordinates              R   N=          54
  3.56811448E+00  2.72739405E+00 -1.97818431E-05 -6.00310074E+00  1.86725147E+00
  3.26491950E-05 -9.74286072E-01  6.74190346E-02 -2.20590743E-05  1.53833239E+00
 -1.33298084E+00  3.42573158E-05 -3.20697681E+00 -1.74608653E+00 -2.60469819E-05
  3.81108060E+00  4.19661669E-01  1.53130228E-06  6.38723474E+00 -8.23260206E-01
  3.73710636E-06 -5.73300273E+00 -4.29724049E-01 -6.09700308E-06 -1.08273237E+00
  1.31318143E+00  1.64481488E+00 -1.08268353E+00  1.31312883E+00 -1.64490304E+00
  1.69299648E+00 -2.58567648E+00 -1.65077320E+00  1.69297473E+00 -2.58557142E+00
  1.65092438E+00 -3.16097311E+00 -3.00921157E+00  1.65078319E+00 -3.16098542E+00
 -3.00918973E+00 -1.65085172E+00  6.60316234E+00 -2.03030882E+00 -1.66647427E+00
  6.60318397E+00 -2.03024884E+00  1.66652289E+00  7.84910440E+00  6.29292013E-01
 -3.01722280E-05 -7.40845014E+00 -1.69273404E+00 -2.78070556E-05
Force Field                                I                0
Int Atom Types                             I   N=          18
           0           0           0           0           0           0
           0           0           0           0           0           0
           0           0           0           0           0           0
MM charges                                 R   N=          18
  0.00000000E+00  0.00000000E+00  0.00000000E+00  0.00000000E+00  0.00000000E+00
  0.00000000E+00  0.00000000E+00  0.00000000E+00  0.00000000E+00  0.00000000E+00
  0.00000000E+00  0.00000000E+00  0.00000000E+00  0.00000000E+00  0.00000000E+00
  0.00000000E+00  0.00000000E+00  0.00000000E+00
Integer atomic weights                     I   N=          18
          16          16          12          12          12          12
          12          12           1           1           1           1
           1           1           1           1           1           1
Real atomic weights                        R   N=          18
  1.59949146E+01  1.59949146E+01  1.20000000E+01  1.20000000E+01  1.20000000E+01
  1.20000000E+01  1.20000000E+01  1.20000000E+01  1.00782504E+00  1.00782504E+00
  1.00782504E+00  1.00782504E+00  1.00782504E+00  1.00782504E+00  1.00782504E+00
  1.00782504E+00  1.00782504E+00  1.00782504E+00
Atom fragment info                         I   N=          18
           0           0           0           0           0           0
           0           0           0           0           0           0
           0           0           0           0           0           0
Atom residue num                           I   N=          18
           0           0           0           0           0           0
           0           0           0           0           0           0
           0           0           0           0           0           0
Nuclear spins                              I   N=          18
           0           0           0           0           0           0
           0           0           1           1           1           1
           1           1           1           1           1           1
Nuclear ZEff                               R   N=          18
 -5.60000000E+00 -5.60000000E+00 -3.60000000E+00 -3.60000000E+00 -3.60000000E+00
 -3.60000000E+00 -3.60000000E+00 -3.60000000E+00 -1.00000000E+00 -1.00000000E+00
 -1.00000000E+00 -1.00000000E+00 -1.00000000E+00 -1.00000000E+00 -1.00000000E+00
 -1.00000000E+00 -1.00000000E+00 -1.00000000E+00
Nuclear QMom                               R   N=          18
  0.00000000E+00  0.00000000E+00  0.00000000E+00  0.00000000E+00  0.00000000E+00
  0.00000000E+00  0.00000000E+00  0.00000000E+00  0.00000000E+00  0.00000000E+00
  0.00000000E+00  0.00000000E+00  0.00000000E+00  0.00000000E+00  0.00000000E+00
  0.00000000E+00  0.00000000E+00  0.00000000E+00
Nuclear GFac                               R   N=          18
  0.00000000E+00  0.00000000E+00  0.00000000E+00  0.00000000E+00  0.00000000E+00
  0.00000000E+00  0.00000000E+00  0.00000000E+00  2.79284600E+00  2.79284600E+00
  2.79284600E+00  2.79284600E+00  2.79284600E+00  2.79284600E+00  2.79284600E+00
  2.79284600E+00  2.79284600E+00  2.79284600E+00
MicOpt                                     I   N=          18
          -1          -1          -1          -1          -1          -1
          -1          -1          -1          -1          -1          -1
          -1          -1          -1          -1          -1          -1
Number of contracted shells                I               52
Number of primitive shells                 I              128
Pure/Cartesian d shells                    I                1
Pure/Cartesian f shells                    I                0
Highest angular momentum                   I                2
Largest degree of contraction              I                6
Shell types                                I   N=          52
           0          -1          -1           2           0          -1
          -1           2           0          -1          -1           2
           0          -1          -1           2           0          -1
          -1           2           0          -1          -1           2
           0          -1          -1           2           0          -1
          -1           2           0           0           0           0
           0           0           0           0           0           0
           0           0           0           0           0           0
           0           0           0           0
Number of primitives per shell             I   N=          52
           6           3           1           1           6           3
           1           1           6           3           1           1
           6           3           1           1           6           3
           1           1           6           3           1           1
           6           3           1           1           6           3
           1           1           3           1           3           1
           3           1           3           1           3           1
           3           1           3           1           3           1
           3           1           3           1
Shell to atom map                          I   N=          52
           1           1           1           1           2           2
           2           2           3           3           3           3
           4           4           4           4           5           5
           5           5           6           6           6           6
           7           7           7           7           8           8
           8           8           9           9          10          10
          11          11          12          12          13          13
          14          14          15          15          16          16
          17          17          18          18
Primitive exponents                        R   N=         128
  5.48467166E+03  8.25234946E+02  1.88046958E+02  5.29645000E+01  1.68975704E+01
  5.79963534E+00  1.55396162E+01  3.59993359E+00  1.01376175E+00  2.70005823E-01
  8.00000000E-01  5.48467166E+03  8.25234946E+02  1.88046958E+02  5.29645000E+01
  1.68975704E+01  5.79963534E+00  1.55396162E+01  3.59993359E+00  1.01376175E+00
  2.70005823E-01  8.00000000E-01  3.04752488E+03  4.57369518E+02  1.03948685E+02
  2.92101553E+01  9.28666296E+00  3.16392696E+00  7.86827235E+00  1.88128854E+00
  5.44249258E-01  1.68714478E-01  8.00000000E-01  3.04752488E+03  4.57369518E+02
  1.03948685E+02  2.92101553E+01  9.28666296E+00  3.16392696E+00  7.86827235E+00
  1.88128854E+00  5.44249258E-01  1.68714478E-01  8.00000000E-01  3.04752488E+03
  4.57369518E+02  1.03948685E+02  2.92101553E+01  9.28666296E+00  3.16392696E+00
  7.86827235E+00  1.88128854E+00  5.44249258E-01  1.68714478E-01  8.00000000E-01
  3.04752488E+03  4.57369518E+02  1.03948685E+02  2.92101553E+01  9.28666296E+00
  3.16392696E+00  7.86827235E+00  1.88128854E+00  5.44249258E-01  1.68714478E-01
  8.00000000E-01  3.04752488E+03  4.57369518E+02  1.03948685E+02  2.92101553E+01
  9.28666296E+00  3.16392696E+00  7.86827235E+00  1.88128854E+00  5.44249258E-01
  1.68714478E-01  8.00000000E-01  3.04752488E+03  4.57369518E+02  1.03948685E+02
  2.92101553E+01  9.28666296E+00  3.16392696E+00  7.86827235E+00  1.88128854E+00
  5.44249258E-01  1.68714478E-01  8.00000000E-01  1.87311370E+01  2.82539436E+00
  6.40121692E-01  1.61277759E-01  1.87311370E+01  2.82539436E+00  6.40121692E-01
  1.61277759E-01  1.87311370E+01  2.82539436E+00  6.40121692E-01  1.61277759E-01
  1.87311370E+01  2.82539436E+00  6.40121692E-01  1.61277759E-01  1.87311370E+01
  2.82539436E+00  6.40121692E-01  1.61277759E-01  1.87311370E+01  2.82539436E+00
  6.40121692E-01  1.61277759E-01  1.87311370E+01  2.82539436E+00  6.40121692E-01
  1.61277759E-01  1.87311370E+01  2.82539436E+00  6.40121692E-01  1.61277759E-01
  1.87311370E+01  2.82539436E+00  6.40121692E-01  1.61277759E-01  1.87311370E+01
  2.82539436E+00  6.40121692E-01  1.61277759E-01
Contraction coefficients                   R   N=         128
  1.83107443E-03  1.39501722E-02  6.84450781E-02  2.32714336E-01  4.70192898E-01
  3.58520853E-01 -1.10777550E-01 -1.48026263E-01  1.13076702E+00  1.00000000E+00
  1.00000000E+00  1.83107443E-03  1.39501722E-02  6.84450781E-02  2.32714336E-01
  4.70192898E-01  3.58520853E-01 -1.10777550E-01 -1.48026263E-01  1.13076702E+00
  1.00000000E+00  1.00000000E+00  1.83473713E-03  1.40373228E-02  6.88426223E-02
  2.32184443E-01  4.67941348E-01  3.62311985E-01 -1.19332420E-01 -1.60854152E-01
  1.14345644E+00  1.00000000E+00  1.00000000E+00  1.83473713E-03  1.40373228E-02
  6.88426223E-02  2.32184443E-01  4.67941348E-01  3.62311985E-01 -1.19332420E-01
 -1.60854152E-01  1.14345644E+00  1.00000000E+00  1.00000000E+00  1.83473713E-03
  1.40373228E-02  6.88426223E-02  2.32184443E-01  4.67941348E-01  3.62311985E-01
 -1.19332420E-01 -1.60854152E-01  1.14345644E+00  1.00000000E+00  1.00000000E+00
  1.83473713E-03  1.40373228E-02  6.88426223E-02  2.32184443E-01  4.67941348E-01
  3.62311985E-01 -1.19332420E-01 -1.60854152E-01  1.14345644E+00  1.00000000E+00
  1.00000000E+00  1.83473713E-03  1.40373228E-02  6.88426223E-02  2.32184443E-01
  4.67941348E-01  3.62311985E-01 -1.19332420E-01 -1.60854152E-01  1.14345644E+00
  1.00000000E+00  1.00000000E+00  1.83473713E-03  1.40373228E-02  6.88426223E-02
  2.32184443E-01  4.67941348E-01  3.62311985E-01 -1.19332420E-01 -1.60854152E-01
  1.14345644E+00  1.00000000E+00  1.00000000E+00  3.34946043E-02  2.34726953E-01
  8.13757326E-01  1.00000000E+00  3.34946043E-02  2.34726953E-01  8.13757326E-01
  1.00000000E+00  3.34946043E-02  2.34726953E-01  8.13757326E-01  1.00000000E+00
  3.34946043E-02  2.34726953E-01  8.13757326E-01  1.00000000E+00  3.34946043E-02
  2.34726953E-01  8.13757326E-01  1.00000000E+00  3.34946043E-02  2.34726953E-01
  8.13757326E-01  1.00000000E+00  3.34946043E-02  2.34726953E-01  8.13757326E-01
  1.00000000E+00  3.34946043E-02  2.34726953E-01  8.13757326E-01  1.00000000E+00
  3.34946043E-02  2.34726953E-01  8.13757326E-01  1.00000000E+00  3.34946043E-02
  2.34726953E-01  8.13757326E-01  1.00000000E+00
P(S=P) Contraction coefficients            R   N=         128
  0.00000000E+00  0.00000000E+00  0.00000000E+00  0.00000000E+00  0.00000000E+00
  0.00000000E+00  7.08742682E-02  3.39752839E-01  7.27158577E-01  1.00000000E+00
  0.00000000E+00  0.00000000E+00  0.00000000E+00  0.00000000E+00  0.00000000E+00
  0.00000000E+00  0.00000000E+00  7.08742682E-02  3.39752839E-01  7.27158577E-01
  1.00000000E+00  0.00000000E+00  0.00000000E+00  0.00000000E+00  0.00000000E+00
  0.00000000E+00  0.00000000E+00  0.00000000E+00  6.89990666E-02  3.16423961E-01
  7.44308291E-01  1.00000000E+00  0.00000000E+00  0.00000000E+00  0.00000000E+00
  0.00000000E+00  0.00000000E+00  0.00000000E+00  0.00000000E+00  6.89990666E-02
  3.16423961E-01  7.44308291E-01  1.00000000E+00  0.00000000E+00  0.00000000E+00
  0.00000000E+00  0.00000000E+00  0.00000000E+00  0.00000000E+00  0.00000000E+00
  6.89990666E-02  3.16423961E-01  7.44308291E-01  1.00000000E+00  0.00000000E+00
  0.00000000E+00  0.00000000E+00  0.00000000E+00  0.00000000E+00  0.00000000E+00
  0.00000000E+00  6.89990666E-02  3.16423961E-01  7.44308291E-01  1.00000000E+00
  0.00000000E+00  0.00000000E+00  0.00000000E+00  0.00000000E+00  0.00000000E+00
  0.00000000E+00  0.00000000E+00  6.89990666E-02  3.16423961E-01  7.44308291E-01
  1.00000000E+00  0.00000000E+00  0.00000000E+00  0.00000000E+00  0.00000000E+00
  0.00000000E+00  0.00000000E+00  0.00000000E+00  6.89990666E-02  3.16423961E-01
  7.44308291E-01  1.00000000E+00  0.00000000E+00  0.00000000E+00  0.00000000E+00
  0.00000000E+00  0.00000000E+00  0.00000000E+00  0.00000000E+00  0.00000000E+00
  0.00000000E+00  0.00000000E+00  0.00000000E+00  0.00000000E+00  0.00000000E+00
  0.00000000E+00  0.00000000E+00  0.00000000E+00  0.00000000E+00  0.00000000E+00
  0.00000000E+00  0.00000000E+00  0.00000000E+00  0.00000000E+00  0.00000000E+00
  0.00000000E+00  0.00000000E+00  0.00000000E+00  0.00000000E+00  0.00000000E+00
  0.00000000E+00  0.00000000E+00  0.00000000E+00  0.00000000E+00  0.00000000E+00
  0.00000000E+00  0.00000000E+00  0.00000000E+00  0.00000000E+00  0.00000000E+00
  0.00000000E+00  0.00000000E+00  0.00000000E+00
Coordinates of each shell                  R   N=         156
  3.56811448E+00  2.72739405E+00 -1.97818431E-05  3.56811448E+00  2.72739405E+00
 -1.97818431E-05  3.56811448E+00  2.72739405E+00 -1.97818431E-05  3.56811448E+00
  2.72739405E+00 -1.97818431E-05 -6.00310074E+00  1.86725147E+00  3.26491950E-05
 -6.00310074E+00  1.86725147E+00  3.26491950E-05 -6.00310074E+00  1.86725147E+00
  3.26491950E-05 -6.00310074E+00  1.86725147E+00  3.26491950E-05 -9.74286072E-01
  6.74190346E-02 -2.20590743E-05 -9.74286072E-01  6.74190346E-02 -2.20590743E-05
 -9.74286072E-01  6.74190346E-02 -2.20590743E-05 -9.74286072E-01  6.74190346E-02
 -2.20590743E-05  1.53833239E+00 -1.33298084E+00  3.42573158E-05  1.53833239E+00
 -1.33298084E+00  3.42573158E-05  1.53833239E+00 -1.33298084E+00  3.42573158E-05
  1.53833239E+00 -1.33298084E+00  3.42573158E-05 -3.20697681E+00 -1.74608653E+00
 -2.60469819E-05 -3.20697681E+00 -1.74608653E+00 -2.60469819E-05 -3.20697681E+00
 -1.74608653E+00 -2.60469819E-05 -3.20697681E+00 -1.74608653E+00 -2.60469819E-05
  3.81108060E+00  4.19661669E-01  1.53130228E-06  3.81108060E+00  4.19661669E-01
  1.53130228E-06  3.81108060E+00  4.19661669E-01  1.53130228E-06  3.81108060E+00
  4.19661669E-01  1.53130228E-06  6.38723474E+00 -8.23260206E-01  3.73710636E-06
  6.38723474E+00 -8.23260206E-01  3.73710636E-06  6.38723474E+00 -8.23260206E-01
  3.73710636E-06  6.38723474E+00 -8.23260206E-01  3.73710636E-06 -5.73300273E+00
 -4.29724049E-01 -6.09700308E-06 -5.73300273E+00 -4.29724049E-01 -6.09700308E-06
 -5.73300273E+00 -4.29724049E-01 -6.09700308E-06 -5.73300273E+00 -4.29724049E-01
 -6.09700308E-06 -1.08273237E+00  1.31318143E+00  1.64481488E+00 -1.08273237E+00
  1.31318143E+00  1.64481488E+00 -1.08268353E+00  1.31312883E+00 -1.64490304E+00
 -1.08268353E+00  1.31312883E+00 -1.64490304E+00  1.69299648E+00 -2.58567648E+00
 -1.65077320E+00  1.69299648E+00 -2.58567648E+00 -1.65077320E+00  1.69297473E+00
 -2.58557142E+00  1.65092438E+00  1.69297473E+00 -2.58557142E+00  1.65092438E+00
 -3.16097311E+00 -3.00921157E+00  1.65078319E+00 -3.16097311E+00 -3.00921157E+00
  1.65078319E+00 -3.16098542E+00 -3.00918973E+00 -1.65085172E+00 -3.16098542E+00
 -3.00918973E+00 -1.65085172E+00  6.60316234E+00 -2.03030882E+00 -1.66647427E+00
  6.60316234E+00 -2.03030882E+00 -1.66647427E+00  6.60318397E+00 -2.03024884E+00
  1.66652289E+00  6.60318397E+00 -2.03024884E+00  1.66652289E+00  7.84910440E+00
  6.29292013E-01 -3.01722280E-05  7.84910440E+00  6.29292013E-01 -3.01722280E-05
 -7.40845014E+00 -1.69273404E+00 -2.78070556E-05 -7.40845014E+00 -1.69273404E+00
 -2.78070556E-05
Constraint Structure                       R   N=          54
  3.56811448E+00  2.72739405E+00 -1.97818431E-05 -6.00310074E+00  1.86725147E+00
  3.26491950E-05 -9.74286072E-01  6.74190346E-02 -2.20590743E-05  1.53833239E+00
 -1.33298084E+00  3.42573158E-05 -3.20697681E+00 -1.74608653E+00 -2.60469819E-05
  3.81108060E+00  4.19661669E-01  1.53130228E-06  6.38723474E+00 -8.23260206E-01
  3.73710636E-06 -5.73300273E+00 -4.29724049E-01 -6.09700308E-06 -1.08273237E+00
  1.31318143E+00  1.64481488E+00 -1.08268353E+00  1.31312883E+00 -1.64490304E+00
  1.69299648E+00 -2.58567648E+00 -1.65077320E+00  1.69297473E+00 -2.58557142E+00
  1.65092438E+00 -3.16097311E+00 -3.00921157E+00  1.65078319E+00 -3.16098542E+00
 -3.00918973E+00 -1.65085172E+00  6.60316234E+00 -2.03030882E+00 -1.66647427E+00
  6.60318397E+00 -2.03024884E+00  1.66652289E+00  7.84910440E+00  6.29292013E-01
 -3.01722280E-05 -7.40845014E+00 -1.69273404E+00 -2.78070556E-05
Num ILSW                                   I              100
ILSW                                       I   N=         100
           0           1           0           1           2           0
           0           0           0           0           0          -1
           0           0           0           0           0           0
           0           0           0           0           1           0
           1           0           0           0           0           0
           0           0      100000           0          -1           0
           0           0           0           0           0           0
           0           0           0           1           1           0
           0           0           1           0           0           0
           0           0           4          40           0           0
           0           0           0           0           0           0
           0           0           0           0           0           0
           0           0           0           0           0           0
           0           0           0           0           0           0
           0           0           0           0           0           0
           0           0           0           0           0           0
           0           0           0           0
Num RLSW                                   I               40
RLSW                                       R   N=          40
  1.00000000E+00  1.00000000E+00  1.00000000E+00  1.00000000E+00  1.00000000E+00
  0.00000000E+00  0.00000000E+00  1.00000000E+00  0.00000000E+00  0.00000000E+00
  0.00000000E+00  0.00000000E+00  1.00000000E+00  0.00000000E+00  0.00000000E+00
  0.00000000E+00  0.00000000E+00  1.00000000E+00  0.00000000E+00  0.00000000E+00
  0.00000000E+00  0.00000000E+00  1.00000000E+00  0.00000000E+00  0.00000000E+00
  0.00000000E+00  0.00000000E+00  1.00000000E+00  0.00000000E+00  0.00000000E+00
  0.00000000E+00  0.00000000E+00  0.00000000E+00  0.00000000E+00  0.00000000E+00
  0.00000000E+00  0.00000000E+00  0.00000000E+00  1.00000000E+00  1.00000000E+00
MxBond                                     I                4
NBond                                      I   N=          18
           1           1           4           4           4           3
           4           3           1           1           1           1
           1           1           1           1           1           1
IBond                                      I   N=          72
           6           0           0           0           8           0
           0           0           4           5           9          10
           3           6          11          12           3           8
          13          14           1           4           7           0
           6          15          16          17           2           5
          18           0           3           0           0           0
           3           0           0           0           4           0
           0           0           4           0           0           0
           5           0           0           0           5           0
           0           0           7           0           0           0
           7           0           0           0           7           0
           0           0           8           0           0           0
RBond                                      R   N=          72
  2.00000000E+00  0.00000000E+00  0.00000000E+00  0.00000000E+00  2.00000000E+00
  0.00000000E+00  0.00000000E+00  0.00000000E+00  1.00000000E+00  1.00000000E+00
  1.00000000E+00  1.00000000E+00  1.00000000E+00  1.00000000E+00  1.00000000E+00
  1.00000000E+00  1.00000000E+00  1.00000000E+00  1.00000000E+00  1.00000000E+00
  2.00000000E+00  1.00000000E+00  1.00000000E+00  0.00000000E+00  1.00000000E+00
  1.00000000E+00  1.00000000E+00  1.00000000E+00  2.00000000E+00  1.00000000E+00
  1.00000000E+00  0.00000000E+00  1.00000000E+00  0.00000000E+00  0.00000000E+00
  0.00000000E+00  1.00000000E+00  0.00000000E+00  0.00000000E+00  0.00000000E+00
  1.00000000E+00  0.00000000E+00  0.00000000E+00  0.00000000E+00  1.00000000E+00
  0.00000000E+00  0.00000000E+00  0.00000000E+00  1.00000000E+00  0.00000000E+00
  0.00000000E+00  0.00000000E+00  1.00000000E+00  0.00000000E+00  0.00000000E+00
  0.00000000E+00  1.00000000E+00  0.00000000E+00  0.00000000E+00  0.00000000E+00
  1.00000000E+00  0.00000000E+00  0.00000000E+00  0.00000000E+00  1.00000000E+00
  0.00000000E+00  0.00000000E+00  0.00000000E+00  1.00000000E+00  0.00000000E+00
  0.00000000E+00  0.00000000E+00
Virial Ratio                               R      2.002477431599050E+00
SCF Energy                                 R     -3.827491751071064E+02
MP2 Energy                                 R     -3.838746215489609E+02
Total Energy                               R     -3.838746215489609E+02
Post-SCF wavefunction norm                 R      1.651856310815461E+00
RMS Force                                  R      1.975589979203612E-07
RMS Density                                R      8.895153688089023E-10
External E-field                           R   N=          35
  0.00000000E+00  0.00000000E+00  0.00000000E+00  0.00000000E+00  0.00000000E+00
  0.00000000E+00  0.00000000E+00  0.00000000E+00  0.00000000E+00  0.00000000E+00
  0.00000000E+00  0.00000000E+00  0.00000000E+00  0.00000000E+00  0.00000000E+00
  0.00000000E+00  0.00000000E+00  0.00000000E+00  0.00000000E+00  0.00000000E+00
  0.00000000E+00  0.00000000E+00  0.00000000E+00  0.00000000E+00  0.00000000E+00
  0.00000000E+00  0.00000000E+00  0.00000000E+00  0.00000000E+00  0.00000000E+00
  0.00000000E+00  0.00000000E+00  0.00000000E+00  0.00000000E+00  0.00000000E+00
IOpCl                                      I                0
IROHF                                      I                0
Alpha Orbital Energies                     R   N=         140
 -2.05677525E+01 -2.05561811E+01 -1.13389044E+01 -1.13376715E+01 -1.12490931E+01
 -1.12465364E+01 -1.12393029E+01 -1.12304821E+01 -1.38279490E+00 -1.37710468E+00
 -1.09665378E+00 -1.03425039E+00 -9.81662083E-01 -8.71402006E-01 -7.74528204E-01
 -7.39315579E-01 -6.72555890E-01 -6.63996211E-01 -6.53873684E-01 -6.21493166E-01
 -6.13068047E-01 -6.08298247E-01 -5.69746526E-01 -5.61570237E-01 -5.16626995E-01
 -5.05030072E-01 -5.04652863E-01 -4.84084334E-01 -4.80027675E-01 -4.25979604E-01
 -4.07841582E-01  1.48606858E-01  1.57433585E-01  2.08652077E-01  2.40949690E-01
  2.67013214E-01  2.73154029E-01  2.93583065E-01  3.05217301E-01  3.10757768E-01
  3.11863115E-01  3.30597470E-01  3.56902032E-01  3.69452745E-01  3.74591149E-01
  4.22831701E-01  4.34869062E-01  4.71663494E-01  5.37736397E-01  5.61944224E-01
  6.96394563E-01  7.39751374E-01  7.48766078E-01  7.58004178E-01  7.63109042E-01
  7.78922068E-01  8.04160833E-01  8.34065671E-01  8.57334345E-01  9.04744731E-01
  9.39555975E-01  9.42637084E-01  9.58505182E-01  9.69543286E-01  9.87264186E-01
  1.01633721E+00  1.04358795E+00  1.07906436E+00  1.10130754E+00  1.11191134E+00
  1.11464544E+00  1.11976854E+00  1.12875676E+00  1.15865664E+00  1.16087516E+00
  1.18275086E+00  1.19098335E+00  1.20538382E+00  1.21321497E+00  1.21578930E+00
  1.23390004E+00  1.30668855E+00  1.31119664E+00  1.33073710E+00  1.37562605E+00
  1.40988653E+00  1.42828617E+00  1.59003541E+00  1.65409308E+00  1.68529050E+00
  1.69296534E+00  1.76513740E+00  1.80357416E+00  1.82885911E+00  1.86820650E+00
  1.95744190E+00  1.95761517E+00  2.02194646E+00  2.06687513E+00  2.07588929E+00
  2.10755552E+00  2.12284361E+00  2.12394713E+00  2.17563915E+00  2.19264999E+00
  2.20589710E+00  2.26719917E+00  2.27715977E+00  2.30039650E+00  2.32085954E+00
  2.36341734E+00  2.38314865E+00  2.45601030E+00  2.46002881E+00  2.53527827E+00
  2.55431313E+00  2.65302173E+00  2.65717444E+00  2.70722556E+00  2.70993576E+00
  2.76769045E+00  2.80442963E+00  2.88804186E+00  2.92016720E+00  2.93472795E+00
  2.95757736E+00  3.02436027E+00  3.18783228E+00  3.23171696E+00  3.32084855E+00
  3.33475811E+00  3.37927026E+00  4.25679927E+00  4.37374194E+00  4.49541384E+00
  4.55549869E+00  4.68299420E+00  4.77156148E+00  4.84979357E+00  4.99599040E+00
Alpha MO coefficients                      R   N=       19600
  1.56376455E-06  9.18831169E-06 -3.70439011E-07 -1.01479038E-06 -1.28484231E-10
 -5.07327811E-05 -2.90154587E-07  1.69539021E-05  2.24421806E-10  5.82451967E-06
  3.17690242E-06  7.35138660E-06 -1.47435186E-07 -9.61071750E-11  2.64605000E-12
  9.94707815E-01  2.09245895E-02  1.84063192E-04 -1.50996519E-03 -2.53192717E-08
  4.43827374E-03 -1.70994772E-05  4.72322036E-05  5.88938027E-10 -3.85692391E-03
 -3.59373522E-03 -4.17746695E-03 -3.31045691E-05 -4.66412190E-10  1.14117013E-08
 -3.71353849E-07  4.63757816E-06 -1.24696956E-05  1.42297172E-05 -1.31430977E-09
  5.49248817E-05  1.64504493E-04 -2.21546598E-05  1.08859359E-08  2.06220394E-06
 -1.53880990E-05 -4.11572251E-06 -1.55330542E-05  5.10892673E-10 -3.05228245E-10
  5.01980979E-06  2.43807843E-05 -1.66826796E-06 -5.69925722E-06 -1.13472078E-10
 -1.84595701E-04  9.90373125E-05 -2.02184037E-05  6.30062718E-11  9.21982781E-07
  4.19953669E-06  8.94627158E-06  6.20846750E-06  1.55244247E-11  8.83534074E-13
 -2.55436434E-06 -4.55981055E-06 -3.81992211E-06 -2.21719565E-05 -1.41250688E-10
 -7.75408693E-05  1.92847461E-04  1.15364957E-05 -4.62150451E-09  3.03756648E-05
 -4.39852806E-05 -2.27058344E-05  3.87374865E-05  2.86128048E-10 -5.96485597E-10
  8.17879277E-07  3.21614417E-06 -1.62626652E-06  2.00023177E-06 -1.13194890E-10
  2.01638416E-05  8.43404981E-06  2.65762288E-05 -1.51072118E-10  7.42879521E-07
  2.58732397E-06  1.49489689E-06 -1.33470430E-06 -5.46488380E-12 -2.93825031E-11
  8.29117954E-07  4.07015598E-06 -1.87754172E-06 -1.43068125E-06  8.77297095E-11
 -1.35377367E-05  1.39895090E-05  3.32211963E-07 -3.99375814E-10  2.55683915E-07
  9.34673786E-07  1.27100554E-06  1.22088773E-06  5.48920938E-12  2.19045005E-11
 -4.68716233E-06  4.58864193E-04 -4.31712993E-06 -5.39376518E-05 -9.61556218E-10
 -1.40362572E-04  1.62264399E-04 -5.34924842E-04 -7.81282587E-09 -7.13912996E-05
 -7.41534262E-04 -3.80696333E-05  9.23039190E-05  1.75751118E-09 -1.38089846E-08
  2.17347776E-05 -3.71621820E-05  2.17335601E-05 -3.71464491E-05  6.18787562E-06
  1.58615627E-05  6.18785397E-06  1.58623627E-05  9.49432995E-06 -3.39728594E-05
  9.49363027E-06 -3.39760084E-05  2.32553851E-06 -1.48550036E-06  2.32564069E-06
 -1.48532969E-06 -1.71471572E-07 -5.72416769E-06 -2.70783444E-05 -9.93382738E-05
  9.94698550E-01  2.09189985E-02  1.55356905E-04 -1.48683395E-03  1.38937417E-08
  4.54353277E-03 -3.90186678E-06  3.09360842E-05 -6.11516552E-10 -3.87458499E-03
 -3.63043445E-03 -4.18469074E-03 -3.11951358E-05 -1.22168105E-09 -6.06117839E-09
  2.80935372E-06  1.04574868E-05  1.52576498E-07 -9.17934433E-07 -6.25110237E-11
 -6.18873344E-05 -4.12425965E-06  1.95026323E-05  4.57182959E-10  6.64609007E-06
  3.60552210E-06  7.73353325E-06  1.15289021E-06  8.58367518E-11 -7.37982511E-11
 -1.68738276E-06  5.50837416E-07  7.71951710E-06  1.56946876E-05  1.75835227E-11
  9.46887449E-05 -1.35581447E-04 -5.81484264E-05 -3.98823642E-09 -5.08088873E-06
 -1.25104991E-05 -7.49165300E-06  1.36009895E-05 -3.59672764E-10  4.33729759E-10
 -2.48066921E-06  6.46068008E-06 -3.95519972E-06 -2.50410284E-05 -4.85242278E-11
 -1.33398763E-04 -1.93586852E-04 -2.71991922E-05  3.73339644E-09  1.91709342E-05
 -5.39190388E-05 -2.42213042E-05 -2.67293922E-05  7.54015830E-11  2.93442274E-10