
    -----------------------------------------------------------------------
          Psi4: An Open-Source Ab Initio Electronic Structure Package
                               Psi4 1.3.2 release

                         Git: Rev {HEAD} ecbda83 


    R. M. Parrish, L. A. Burns, D. G. A. Smith, A. C. Simmonett,
    A. E. DePrince III, E. G. Hohenstein, U. Bozkaya, A. Yu. Sokolov,
    R. Di Remigio, R. M. Richard, J. F. Gonthier, A. M. James,
    H. R. McAlexander, A. Kumar, M. Saitow, X. Wang, B. P. Pritchard,
    P. Verma, H. F. Schaefer III, K. Patkowski, R. A. King, E. F. Valeev,
    F. A. Evangelista, J. M. Turney, T. D. Crawford, and C. D. Sherrill,
    J. Chem. Theory Comput. 13(7) pp 3185--3197 (2017).
    (doi: 10.1021/acs.jctc.7b00174)


                         Additional Contributions by
    P. Kraus, H. Kruse, M. H. Lechner, M. C. Schieber, R. A. Shaw,
    A. Alenaizan, R. Galvelis, Z. L. Glick, S. Lehtola, and J. P. Misiewicz

    -----------------------------------------------------------------------


    Psi4 started on: Saturday, 07 November 2020 06:35AM

    Process ID: 19381
    Host:       node37.bme.utexas.edu
    PSIDATADIR: /home/xy3866/psi4conda/share/psi4
    Memory:     500.0 MiB
    Threads:    8
    
  ==> Input File <==

--------------------------------------------------------------------------
#psi4
#
memory 32 gb

molecule  {
0 1
  O       -0.0000020     1.2522540    -0.0000130
  C       -0.7242590    -0.9887060     0.2422500
  C        0.7242680    -0.9886970    -0.2422570
  C       -1.1637400     0.4211370    -0.1388030
  C        1.1441031     0.4310621     0.1238299
  H       -1.3424580    -1.7652320    -0.2168500
  H       -0.7591500    -1.1180870     1.3290580
  H        1.3424710    -1.7652260     0.2168300
  H        0.7591600    -1.1180590    -1.3290680
  H       -1.5137280     0.4564660    -1.1799380
  H       -1.9528620     0.8231880     0.5042800
  H        1.5136860     0.4564610     1.1799670
  H        1.9528750     0.8232040    -0.5042320
units angstrom
no_reorient  #important for SAPT in psi4, default
symmetry c1  #important for SAPT in psi4, default
}

set PROPERTIES_ORIGIN ["COM"]
properties('MP2/aug-cc-pvtz', properties = ['dipole'])
--------------------------------------------------------------------------

  Memory set to  29.802 GiB by Python driver.
    SCF Algorithm Type (re)set to DF.

*** tstart() called on node37.bme.utexas.edu
*** at Sat Nov  7 06:35:29 2020

   => Loading Basis Set <=

    Name: AUG-CC-PVTZ
    Role: ORBITAL
    Keyword: BASIS
    atoms 1    entry O          line   327 file /home/xy3866/psi4conda/share/psi4/basis/aug-cc-pvtz.gbs 
    atoms 2-5  entry C          line   235 file /home/xy3866/psi4conda/share/psi4/basis/aug-cc-pvtz.gbs 
    atoms 6-13 entry H          line    36 file /home/xy3866/psi4conda/share/psi4/basis/aug-cc-pvtz.gbs 


         ---------------------------------------------------------
                                   SCF
               by Justin Turney, Rob Parrish, Andy Simmonett
                          and Daniel G. A. Smith
                              RHF Reference
                        8 Threads,  30517 MiB Core
         ---------------------------------------------------------

  ==> Geometry <==

    Molecular point group: c1
    Full point group: C1

    Geometry (in Angstrom), charge = 0, multiplicity = 1:

       Center              X                  Y                   Z               Mass       
    ------------   -----------------  -----------------  -----------------  -----------------
         O            0.003267233434     1.206528486025     0.002483918835    15.994914619570
         C           -0.720989766566    -1.034431513975     0.244746918835    12.000000000000
         C            0.727537233434    -1.034422513975    -0.239760081165    12.000000000000
         C           -1.160470766566     0.375411486025    -0.136306081165    12.000000000000
         C            1.147372333434     0.385336586025     0.126326818835    12.000000000000
         H           -1.339188766566    -1.810957513975    -0.214353081165     1.007825032230
         H           -0.755880766566    -1.163812513975     1.331554918835     1.007825032230
         H            1.345740233434    -1.810951513975     0.219326918835     1.007825032230
         H            0.762429233434    -1.163784513975    -1.326571081165     1.007825032230
         H           -1.510458766566     0.410740486025    -1.177441081165     1.007825032230
         H           -1.949592766566     0.777462486025     0.506776918835     1.007825032230
         H            1.516955233434     0.410735486025     1.182463918835     1.007825032230
         H            1.956144233434     0.777478486025    -0.501735081165     1.007825032230

  Running in c1 symmetry.

  Rotational constants: A =      0.23931  B =      0.23370  C =      0.13487 [cm^-1]
  Rotational constants: A =   7174.24254  B =   7006.26045  C =   4043.43322 [MHz]
  Nuclear repulsion =  191.121843671587783

  Charge       = 0
  Multiplicity = 1
  Electrons    = 40
  Nalpha       = 20
  Nbeta        = 20

  ==> Algorithm <==

  SCF Algorithm Type is DF.
  DIIS enabled.
  MOM disabled.
  Fractional occupation disabled.
  Guess Type is SAD.
  Energy threshold   = 1.00e-10
  Density threshold  = 1.00e-10
  Integral threshold = 0.00e+00

  ==> Primary Basis <==

  Basis Set: AUG-CC-PVTZ
    Blend: AUG-CC-PVTZ
    Number of shells: 142
    Number of basis function: 414
    Number of Cartesian functions: 475
    Spherical Harmonics?: true
    Max angular momentum: 3

   => Loading Basis Set <=

    Name: (AUG-CC-PVTZ AUX)
    Role: JKFIT
    Keyword: DF_BASIS_SCF
    atoms 1    entry O          line   286 file /home/xy3866/psi4conda/share/psi4/basis/aug-cc-pvtz-jkfit.gbs 
    atoms 2-5  entry C          line   162 file /home/xy3866/psi4conda/share/psi4/basis/aug-cc-pvtz-jkfit.gbs 
    atoms 6-13 entry H          line    70 file /home/xy3866/psi4conda/share/psi4/basis/aug-cc-pvtz-jkfit.gbs 

  ==> Pre-Iterations <==

   -------------------------------------------------------
    Irrep   Nso     Nmo     Nalpha   Nbeta   Ndocc  Nsocc
   -------------------------------------------------------
     A        414     414       0       0       0       0
   -------------------------------------------------------
    Total     414     414      20      20      20       0
   -------------------------------------------------------

  ==> Integral Setup <==

  DFHelper Memory: AOs need 1.179 GiB; user supplied 22.352 GiB. Using in-core AOs.

  ==> MemDFJK: Density-Fitted J/K Matrices <==

    J tasked:                   Yes
    K tasked:                   Yes
    wK tasked:                   No
    OpenMP threads:               8
    Memory [MiB]:             22888
    Algorithm:                 Core
    Schwarz Cutoff:           1E-12
    Mask sparsity (%):       0.4749
    Fitting Condition:        1E-10

   => Auxiliary Basis Set <=

  Basis Set: (AUG-CC-PVTZ AUX)
    Blend: AUG-CC-PVTZ-JKFIT
    Number of shells: 262
    Number of basis function: 888
    Number of Cartesian functions: 1095
    Spherical Harmonics?: true
    Max angular momentum: 4

  Minimum eigenvalue in the overlap matrix is 5.0082691186E-06.
  Using Symmetric Orthogonalization.

  SCF Guess: Superposition of Atomic Densities via on-the-fly atomic UHF.

  ==> Iterations <==

                           Total Energy        Delta E     RMS |[F,P]|

   @DF-RHF iter SAD:  -230.73731919006548   -2.30737e+02   0.00000e+00 
   @DF-RHF iter   1:  -230.88396579886791   -1.46647e-01   1.30239e-03 DIIS
   @DF-RHF iter   2:  -231.02307211300266   -1.39106e-01   6.74163e-04 DIIS
   @DF-RHF iter   3:  -231.05828350563920   -3.52114e-02   1.29778e-04 DIIS
   @DF-RHF iter   4:  -231.06064074111399   -2.35724e-03   3.32433e-05 DIIS
   @DF-RHF iter   5:  -231.06076665925542   -1.25918e-04   1.28479e-05 DIIS
   @DF-RHF iter   6:  -231.06078202403975   -1.53648e-05   2.54024e-06 DIIS
   @DF-RHF iter   7:  -231.06078316055064   -1.13651e-06   4.61927e-07 DIIS
   @DF-RHF iter   8:  -231.06078319433607   -3.37854e-08   1.56875e-07 DIIS
   @DF-RHF iter   9:  -231.06078319787144   -3.53538e-09   3.75394e-08 DIIS
   @DF-RHF iter  10:  -231.06078319821358   -3.42141e-10   9.13202e-09 DIIS
   @DF-RHF iter  11:  -231.06078319823374   -2.01510e-11   2.15651e-09 DIIS
   @DF-RHF iter  12:  -231.06078319823541   -1.67688e-12   6.65307e-10 DIIS
   @DF-RHF iter  13:  -231.06078319823538    2.84217e-14   2.27708e-10 DIIS
   @DF-RHF iter  14:  -231.06078319823578   -3.97904e-13   5.53379e-11 DIIS
  Energy and wave function converged.


  ==> Post-Iterations <==

    Orbital Energies [Eh]
    ---------------------

    Doubly Occupied:                                                      

       1A    -20.546763     2A    -11.271111     3A    -11.270010  
       4A    -11.226661     5A    -11.225687     6A     -1.369825  
       7A     -1.062203     8A     -0.989303     9A     -0.809699  
      10A     -0.806009    11A     -0.683410    12A     -0.674444  
      13A     -0.593115    14A     -0.585268    15A     -0.559863  
      16A     -0.505657    17A     -0.493789    18A     -0.475317  
      19A     -0.464446    20A     -0.405852  

    Virtual:                                                              

      21A      0.029428    22A      0.037898    23A      0.038211  
      24A      0.041667    25A      0.058509    26A      0.058673  
      27A      0.059275    28A      0.063925    29A      0.091621  
      30A      0.114752    31A      0.118293    32A      0.118433  
      33A      0.121314    34A      0.123297    35A      0.130982  
      36A      0.132761    37A      0.136328    38A      0.140207  
      39A      0.150983    40A      0.155046    41A      0.166842  
      42A      0.185387    43A      0.191857    44A      0.193285  
      45A      0.235583    46A      0.244552    47A      0.249183  
      48A      0.263616    49A      0.272651    50A      0.281132  
      51A      0.284620    52A      0.291246    53A      0.295984  
      54A      0.308167    55A      0.308770    56A      0.309128  
      57A      0.312184    58A      0.320124    59A      0.333849  
      60A      0.338415    61A      0.343655    62A      0.354480  
      63A      0.364851    64A      0.366702    65A      0.368930  
      66A      0.377093    67A      0.396675    68A      0.401990  
      69A      0.409917    70A      0.413906    71A      0.424898  
      72A      0.426387    73A      0.432180    74A      0.435905  
      75A      0.442034    76A      0.446791    77A      0.466132  
      78A      0.469125    79A      0.476227    80A      0.482233  
      81A      0.482794    82A      0.500019    83A      0.506716  
      84A      0.514588    85A      0.521114    86A      0.526057  
      87A      0.529697    88A      0.537475    89A      0.544018  
      90A      0.551706    91A      0.555147    92A      0.567374  
      93A      0.570843    94A      0.583711    95A      0.585644  
      96A      0.591681    97A      0.607010    98A      0.608206  
      99A      0.611131   100A      0.624174   101A      0.634255  
     102A      0.642315   103A      0.655697   104A      0.681811  
     105A      0.690221   106A      0.739432   107A      0.757771  
     108A      0.773725   109A      0.805722   110A      0.809319  
     111A      0.811406   112A      0.815844   113A      0.830535  
     114A      0.853408   115A      0.857519   116A      0.859375  
     117A      0.868503   118A      0.873105   119A      0.885550  
     120A      0.898502   121A      0.901039   122A      0.904645  
     123A      0.923616   124A      0.931037   125A      0.938053  
     126A      0.949638   127A      0.952735   128A      0.958289  
     129A      0.964544   130A      0.980685   131A      0.988661  
     132A      0.999826   133A      1.016642   134A      1.022381  
     135A      1.039103   136A      1.046225   137A      1.054865  
     138A      1.065411   139A      1.069614   140A      1.086750  
     141A      1.094224   142A      1.100218   143A      1.104782  
     144A      1.117237   145A      1.126572   146A      1.136276  
     147A      1.147016   148A      1.163315   149A      1.169567  
     150A      1.171470   151A      1.177225   152A      1.208243  
     153A      1.220494   154A      1.227199   155A      1.231729  
     156A      1.233475   157A      1.244168   158A      1.247128  
     159A      1.269337   160A      1.272127   161A      1.279050  
     162A      1.311694   163A      1.320086   164A      1.322082  
     165A      1.351853   166A      1.362458   167A      1.390761  
     168A      1.395957   169A      1.429514   170A      1.431049  
     171A      1.448231   172A      1.458927   173A      1.461805  
     174A      1.471703   175A      1.487050   176A      1.500642  
     177A      1.515742   178A      1.530592   179A      1.545679  
     180A      1.561814   181A      1.571403   182A      1.575493  
     183A      1.587273   184A      1.594085   185A      1.631911  
     186A      1.632970   187A      1.648210   188A      1.657369  
     189A      1.662336   190A      1.673675   191A      1.681335  
     192A      1.683476   193A      1.713965   194A      1.716613  
     195A      1.739386   196A      1.758103   197A      1.766793  
     198A      1.778587   199A      1.789351   200A      1.793020  
     201A      1.803681   202A      1.841493   203A      1.854789  
     204A      1.873838   205A      1.878075   206A      1.895832  
     207A      1.904991   208A      1.926238   209A      1.930777  
     210A      1.948354   211A      1.954176   212A      1.956747  
     213A      1.979610   214A      1.987384   215A      1.990429  
     216A      1.991878   217A      2.005404   218A      2.018039  
     219A      2.035577   220A      2.089430   221A      2.092566  
     222A      2.093799   223A      2.126620   224A      2.141130  
     225A      2.167405   226A      2.194709   227A      2.198232  
     228A      2.203573   229A      2.246100   230A      2.248098  
     231A      2.272760   232A      2.288677   233A      2.309780  
     234A      2.334050   235A      2.344632   236A      2.378782  
     237A      2.393307   238A      2.422895   239A      2.424911  
     240A      2.444018   241A      2.450017   242A      2.473836  
     243A      2.515564   244A      2.541136   245A      2.567749  
     246A      2.638283   247A      2.729980   248A      2.750787  
     249A      2.788512   250A      2.820634   251A      2.830635  
     252A      2.893633   253A      2.937294   254A      2.946442  
     255A      2.963770   256A      2.992509   257A      3.099832  
     258A      3.121343   259A      3.163726   260A      3.211114  
     261A      3.256367   262A      3.284289   263A      3.297073  
     264A      3.322784   265A      3.339343   266A      3.397005  
     267A      3.440891   268A      3.458098   269A      3.478322  
     270A      3.519088   271A      3.548058   272A      3.551291  
     273A      3.582140   274A      3.588827   275A      3.633711  
     276A      3.645999   277A      3.654049   278A      3.666768  
     279A      3.687669   280A      3.711430   281A      3.723428  
     282A      3.751233   283A      3.763012   284A      3.788838  
     285A      3.795552   286A      3.814472   287A      3.843708  
     288A      3.869173   289A      3.881786   290A      3.885527  
     291A      3.902921   292A      3.915828   293A      3.950827  
     294A      3.963834   295A      3.975313   296A      4.012419  
     297A      4.018208   298A      4.021815   299A      4.030102  
     300A      4.045060   301A      4.061628   302A      4.073602  
     303A      4.114536   304A      4.140493   305A      4.143080  
     306A      4.180652   307A      4.190763   308A      4.194516  
     309A      4.248692   310A      4.249150   311A      4.256159  
     312A      4.270598   313A      4.327900   314A      4.332922  
     315A      4.335090   316A      4.353379   317A      4.362324  
     318A      4.398617   319A      4.410575   320A      4.418244  
     321A      4.439679   322A      4.456171   323A      4.478852  
     324A      4.532234   325A      4.547667   326A      4.566569  
     327A      4.593798   328A      4.596476   329A      4.632887  
     330A      4.646069   331A      4.651438   332A      4.703902  
     333A      4.745988   334A      4.755887   335A      4.759526  
     336A      4.816248   337A      4.832877   338A      4.860299  
     339A      4.883324   340A      4.892909   341A      4.917061  
     342A      4.924119   343A      4.937779   344A      4.957623  
     345A      4.982616   346A      4.994123   347A      5.031278  
     348A      5.054793   349A      5.071305   350A      5.084841  
     351A      5.105022   352A      5.124392   353A      5.135199  
     354A      5.171181   355A      5.240238   356A      5.258318  
     357A      5.292885   358A      5.340434   359A      5.367659  
     360A      5.377050   361A      5.384094   362A      5.438266  
     363A      5.445440   364A      5.447495   365A      5.482886  
     366A      5.495166   367A      5.519079   368A      5.539955  
     369A      5.545346   370A      5.590469   371A      5.618693  
     372A      5.642725   373A      5.661884   374A      5.728494  
     375A      5.739265   376A      5.768430   377A      5.790438  
     378A      5.857267   379A      5.910465   380A      5.939445  
     381A      5.941689   382A      6.006611   383A      6.029417  
     384A      6.081761   385A      6.163974   386A      6.189402  
     387A      6.245871   388A      6.271874   389A      6.352881  
     390A      6.448933   391A      6.562969   392A      6.631352  
     393A      6.801701   394A      6.814891   395A      6.834428  
     396A      6.875424   397A      6.961132   398A      7.021481  
     399A      7.075909   400A      7.225738   401A      7.316431  
     402A      7.457476   403A      7.467350   404A      7.517299  
     405A      7.703023   406A      7.819443   407A      8.053595  
     408A      8.332622   409A      8.391489   410A     15.384361  
     411A     17.859007   412A     18.028923   413A     18.934940  
     414A     19.013359  

    Final Occupation by Irrep:
              A 
    DOCC [    20 ]

  @DF-RHF Final Energy:  -231.06078319823578

   => Energetics <=

    Nuclear Repulsion Energy =            191.1218436715877829
    One-Electron Energy =                -692.3283912095490678
    Two-Electron Energy =                 270.1457643397255310
    Total Energy =                       -231.0607831982357538

Computation Completed

*** tstop() called on node37.bme.utexas.edu at Sat Nov  7 06:35:52 2020
Module time:
	user time   =      74.37 seconds =       1.24 minutes
	system time =       5.02 seconds =       0.08 minutes
	total time  =         23 seconds =       0.38 minutes
Total time:
	user time   =      74.37 seconds =       1.24 minutes
	system time =       5.02 seconds =       0.08 minutes
	total time  =         23 seconds =       0.38 minutes
   => Loading Basis Set <=

    Name: (AUG-CC-PVTZ AUX)
    Role: RIFIT
    Keyword: DF_BASIS_MP2
    atoms 1    entry O          line   264 file /home/xy3866/psi4conda/share/psi4/basis/aug-cc-pvtz-ri.gbs 
    atoms 2-5  entry C          line   148 file /home/xy3866/psi4conda/share/psi4/basis/aug-cc-pvtz-ri.gbs 
    atoms 6-13 entry H          line    30 file /home/xy3866/psi4conda/share/psi4/basis/aug-cc-pvtz-ri.gbs 


*** tstart() called on node37.bme.utexas.edu
*** at Sat Nov  7 06:35:52 2020


  //>>>>>>>>>>>>>>>>>>>>>>>>>>>>>>>>>>>//
  //               DFMP2               //
  //<<<<<<<<<<<<<<<<<<<<<<<<<<<<<<<<<<<//

	 --------------------------------------------------------
	                          DF-MP2                         
	      2nd-Order Density-Fitted Moller-Plesset Theory     
	              RMP2 Wavefunction,   8 Threads             
	                                                         
	        Rob Parrish, Justin Turney, Andy Simmonett,      
	           Ed Hohenstein, and C. David Sherrill          
	 --------------------------------------------------------

   => Auxiliary Basis Set <=

  Basis Set: (AUG-CC-PVTZ AUX)
    Blend: AUG-CC-PVTZ-RI
    Number of shells: 252
    Number of basis function: 898
    Number of Cartesian functions: 1120
    Spherical Harmonics?: true
    Max angular momentum: 4

	 --------------------------------------------------------
	                 NBF =   414, NAUX =   898
	 --------------------------------------------------------
	   CLASS    FOCC     OCC    AOCC    AVIR     VIR    FVIR
	   PAIRS       0      20      20     394     394       0
	 --------------------------------------------------------

  DFHelper Memory: AOs need 1.179 GiB; user supplied 22.352 GiB. Using in-core AOs.


         ------------------------------------------------------------
                                     CPHF                           
                                  Rob Parrish                       
         ------------------------------------------------------------

  ==> Geometry <==

    Molecular point group: c1
    Full point group: C1

    Geometry (in Angstrom), charge = 0, multiplicity = 1:

       Center              X                  Y                   Z               Mass       
    ------------   -----------------  -----------------  -----------------  -----------------
         O            0.003267233434     1.206528486025     0.002483918835    15.994914619570
         C           -0.720989766566    -1.034431513975     0.244746918835    12.000000000000
         C            0.727537233434    -1.034422513975    -0.239760081165    12.000000000000
         C           -1.160470766566     0.375411486025    -0.136306081165    12.000000000000
         C            1.147372333434     0.385336586025     0.126326818835    12.000000000000
         H           -1.339188766566    -1.810957513975    -0.214353081165     1.007825032230
         H           -0.755880766566    -1.163812513975     1.331554918835     1.007825032230
         H            1.345740233434    -1.810951513975     0.219326918835     1.007825032230
         H            0.762429233434    -1.163784513975    -1.326571081165     1.007825032230
         H           -1.510458766566     0.410740486025    -1.177441081165     1.007825032230
         H           -1.949592766566     0.777462486025     0.506776918835     1.007825032230
         H            1.516955233434     0.410735486025     1.182463918835     1.007825032230
         H            1.956144233434     0.777478486025    -0.501735081165     1.007825032230

  Nuclear repulsion =  191.121843671587783
  Reference energy  = -231.060783198235782

  ==> Basis Set <==

  Basis Set: AUG-CC-PVTZ
    Blend: AUG-CC-PVTZ
    Number of shells: 142
    Number of basis function: 414
    Number of Cartesian functions: 475
    Spherical Harmonics?: true
    Max angular momentum: 3

  ==> CGRSolver (by Rob Parrish) <==

   Number of roots    =         1
   Preconditioning    =    JACOBI
   Convergence cutoff =     1E-06
   Maximum iterations =       100

  ==> CPHFRHamiltonian (by Rob Parrish) <== 

  ==> MemDFJK: Density-Fitted J/K Matrices <==

    J tasked:                   Yes
    K tasked:                   Yes
    wK tasked:                   No
    OpenMP threads:               8
    Memory [MiB]:             22888
    Algorithm:                 Core
    Schwarz Cutoff:           1E-12
    Mask sparsity (%):       0.4749
    Fitting Condition:        1E-10

   => Auxiliary Basis Set <=

  Basis Set: (AUG-CC-PVTZ AUX)
    Blend: AUG-CC-PVTZ-JKFIT
    Number of shells: 262
    Number of basis function: 888
    Number of Cartesian functions: 1095
    Spherical Harmonics?: true
    Max angular momentum: 4

  ==> CPHF Iterations <==

  => Iterations <=

             Iter  Converged  Remaining    Residual
  CGR           1          0          1   8.792E-02
  CGR           2          0          1   1.732E-02
  CGR           3          0          1   6.588E-03
  CGR           4          0          1   1.669E-03
  CGR           5          0          1   4.147E-04
  CGR           6          0          1   1.019E-04
  CGR           7          0          1   3.142E-05
  CGR           8          0          1   7.311E-06
  CGR           9          0          1   1.256E-06
  CGR          10          1          0   3.848E-07

    CGRSolver converged.

	-----------------------------------------------------------
	 ==================> DF-MP2 Energies <==================== 
	-----------------------------------------------------------
	 Reference Energy          =    -231.0607831982357823 [Eh]
	 Singles Energy            =      -0.0000000000000000 [Eh]
	 Same-Spin Energy          =      -0.2325646067912016 [Eh]
	 Opposite-Spin Energy      =      -0.7953628906512435 [Eh]
	 Correlation Energy        =      -1.0279274974424450 [Eh]
	 Total Energy              =    -232.0887106956782304 [Eh]
	-----------------------------------------------------------
	 ================> DF-SCS-MP2 Energies <================== 
	-----------------------------------------------------------
	 SCS Same-Spin Scale       =       0.3333333333333333 [-]
	 SCS Opposite-Spin Scale   =       1.2000000000000000 [-]
	 SCS Same-Spin Energy      =      -0.0775215355970672 [Eh]
	 SCS Opposite-Spin Energy  =      -0.9544354687814922 [Eh]
	 SCS Correlation Energy    =      -1.0319570043785593 [Eh]
	 SCS Total Energy          =    -232.0927402026143511 [Eh]
	-----------------------------------------------------------



Properties will be evaluated at  -0.000000,   0.000000,  -0.000000 [a0]

Properties computed using the MP2 density matrix

  Nuclear Dipole Moment: [e a0]
     X:     0.0245      Y:    -3.3439      Z:     0.0188

  Electronic Dipole Moment: [e a0]
     X:    -0.0560      Y:     2.6154      Z:    -0.0330

  Dipole Moment: [e a0]
     X:    -0.0315      Y:    -0.7285      Z:    -0.0142     Total:     0.7293

  Dipole Moment: [D]
     X:    -0.0799      Y:    -1.8516      Z:    -0.0361     Total:     1.8537


*** tstop() called on node37.bme.utexas.edu at Sat Nov  7 06:36:24 2020
Module time:
	user time   =     190.51 seconds =       3.18 minutes
	system time =      11.71 seconds =       0.20 minutes
	total time  =         32 seconds =       0.53 minutes
Total time:
	user time   =     265.02 seconds =       4.42 minutes
	system time =      16.73 seconds =       0.28 minutes
	total time  =         55 seconds =       0.92 minutes

    Psi4 stopped on: Saturday, 07 November 2020 06:36AM
    Psi4 wall time for execution: 0:00:56.69

*** Psi4 exiting successfully. Buy a developer a beer!
