
    -----------------------------------------------------------------------
          Psi4: An Open-Source Ab Initio Electronic Structure Package
                               Psi4 1.3.2 release

                         Git: Rev {HEAD} ecbda83 


    R. M. Parrish, L. A. Burns, D. G. A. Smith, A. C. Simmonett,
    A. E. DePrince III, E. G. Hohenstein, U. Bozkaya, A. Yu. Sokolov,
    R. Di Remigio, R. M. Richard, J. F. Gonthier, A. M. James,
    H. R. McAlexander, A. Kumar, M. Saitow, X. Wang, B. P. Pritchard,
    P. Verma, H. F. Schaefer III, K. Patkowski, R. A. King, E. F. Valeev,
    F. A. Evangelista, J. M. Turney, T. D. Crawford, and C. D. Sherrill,
    J. Chem. Theory Comput. 13(7) pp 3185--3197 (2017).
    (doi: 10.1021/acs.jctc.7b00174)


                         Additional Contributions by
    P. Kraus, H. Kruse, M. H. Lechner, M. C. Schieber, R. A. Shaw,
    A. Alenaizan, R. Galvelis, Z. L. Glick, S. Lehtola, and J. P. Misiewicz

    -----------------------------------------------------------------------


    Psi4 started on: Saturday, 07 November 2020 06:24AM

    Process ID: 18559
    Host:       node37.bme.utexas.edu
    PSIDATADIR: /home/xy3866/psi4conda/share/psi4
    Memory:     500.0 MiB
    Threads:    8
    
  ==> Input File <==

--------------------------------------------------------------------------
#psi4
#
memory 32 gb

molecule  {
0 1
  O        0.0673665     1.1607726    -0.0985503
  C       -0.7242590    -0.9887060     0.2422500
  C        0.7242680    -0.9886970    -0.2422570
  C       -1.1637400     0.4211370    -0.1388030
  C        1.1637350     0.4211420     0.1388200
  H       -1.3424580    -1.7652320    -0.2168500
  H       -0.7591500    -1.1180870     1.3290580
  H        1.3424710    -1.7652260     0.2168300
  H        0.7591600    -1.1180590    -1.3290680
  H       -1.5137280     0.4564660    -1.1799380
  H       -1.9528620     0.8231880     0.5042800
  H        1.5136860     0.4564610     1.1799670
  H        1.9528750     0.8232040    -0.5042320
units angstrom
no_reorient  #important for SAPT in psi4, default
symmetry c1  #important for SAPT in psi4, default
}

set PROPERTIES_ORIGIN ["COM"]
properties('MP2/aug-cc-pvtz', properties = ['dipole'])
--------------------------------------------------------------------------

  Memory set to  29.802 GiB by Python driver.
    SCF Algorithm Type (re)set to DF.

*** tstart() called on node37.bme.utexas.edu
*** at Sat Nov  7 06:24:29 2020

   => Loading Basis Set <=

    Name: AUG-CC-PVTZ
    Role: ORBITAL
    Keyword: BASIS
    atoms 1    entry O          line   327 file /home/xy3866/psi4conda/share/psi4/basis/aug-cc-pvtz.gbs 
    atoms 2-5  entry C          line   235 file /home/xy3866/psi4conda/share/psi4/basis/aug-cc-pvtz.gbs 
    atoms 6-13 entry H          line    36 file /home/xy3866/psi4conda/share/psi4/basis/aug-cc-pvtz.gbs 


         ---------------------------------------------------------
                                   SCF
               by Justin Turney, Rob Parrish, Andy Simmonett
                          and Daniel G. A. Smith
                              RHF Reference
                        8 Threads,  30517 MiB Core
         ---------------------------------------------------------

  ==> Geometry <==

    Molecular point group: c1
    Full point group: C1

    Geometry (in Angstrom), charge = 0, multiplicity = 1:

       Center              X                  Y                   Z               Mass       
    ------------   -----------------  -----------------  -----------------  -----------------
         O            0.052412287790     1.137005633790    -0.076676991308    15.994914619570
         C           -0.739213212210    -1.012472966210     0.264123308692    12.000000000000
         C            0.709313787790    -1.012463966210    -0.220383691308    12.000000000000
         C           -1.178694212210     0.397370033790    -0.116929691308    12.000000000000
         C            1.148780787790     0.397375033790     0.160693308692    12.000000000000
         H           -1.357412212210    -1.788998966210    -0.194976691308     1.007825032230
         H           -0.774104212210    -1.141853966210     1.350931308692     1.007825032230
         H            1.327516787790    -1.788992966210     0.238703308692     1.007825032230
         H            0.744205787790    -1.141825966210    -1.307194691308     1.007825032230
         H           -1.528682212210     0.432699033790    -1.158064691308     1.007825032230
         H           -1.967816212210     0.799421033790     0.526153308692     1.007825032230
         H            1.498731787790     0.432694033790     1.201840308692     1.007825032230
         H            1.937920787790     0.799437033790    -0.482358691308     1.007825032230

  Running in c1 symmetry.

  Rotational constants: A =      0.24698  B =      0.23519  C =      0.13803 [cm^-1]
  Rotational constants: A =   7404.30957  B =   7050.84878  C =   4138.14561 [MHz]
  Nuclear repulsion =  193.031447952320121

  Charge       = 0
  Multiplicity = 1
  Electrons    = 40
  Nalpha       = 20
  Nbeta        = 20

  ==> Algorithm <==

  SCF Algorithm Type is DF.
  DIIS enabled.
  MOM disabled.
  Fractional occupation disabled.
  Guess Type is SAD.
  Energy threshold   = 1.00e-10
  Density threshold  = 1.00e-10
  Integral threshold = 0.00e+00

  ==> Primary Basis <==

  Basis Set: AUG-CC-PVTZ
    Blend: AUG-CC-PVTZ
    Number of shells: 142
    Number of basis function: 414
    Number of Cartesian functions: 475
    Spherical Harmonics?: true
    Max angular momentum: 3

   => Loading Basis Set <=

    Name: (AUG-CC-PVTZ AUX)
    Role: JKFIT
    Keyword: DF_BASIS_SCF
    atoms 1    entry O          line   286 file /home/xy3866/psi4conda/share/psi4/basis/aug-cc-pvtz-jkfit.gbs 
    atoms 2-5  entry C          line   162 file /home/xy3866/psi4conda/share/psi4/basis/aug-cc-pvtz-jkfit.gbs 
    atoms 6-13 entry H          line    70 file /home/xy3866/psi4conda/share/psi4/basis/aug-cc-pvtz-jkfit.gbs 

  ==> Pre-Iterations <==

   -------------------------------------------------------
    Irrep   Nso     Nmo     Nalpha   Nbeta   Ndocc  Nsocc
   -------------------------------------------------------
     A        414     414       0       0       0       0
   -------------------------------------------------------
    Total     414     414      20      20      20       0
   -------------------------------------------------------

  ==> Integral Setup <==

  DFHelper Memory: AOs need 1.179 GiB; user supplied 22.352 GiB. Using in-core AOs.

  ==> MemDFJK: Density-Fitted J/K Matrices <==

    J tasked:                   Yes
    K tasked:                   Yes
    wK tasked:                   No
    OpenMP threads:               8
    Memory [MiB]:             22888
    Algorithm:                 Core
    Schwarz Cutoff:           1E-12
    Mask sparsity (%):       0.4516
    Fitting Condition:        1E-10

   => Auxiliary Basis Set <=

  Basis Set: (AUG-CC-PVTZ AUX)
    Blend: AUG-CC-PVTZ-JKFIT
    Number of shells: 262
    Number of basis function: 888
    Number of Cartesian functions: 1095
    Spherical Harmonics?: true
    Max angular momentum: 4

  Minimum eigenvalue in the overlap matrix is 4.8188494594E-06.
  Using Symmetric Orthogonalization.

  SCF Guess: Superposition of Atomic Densities via on-the-fly atomic UHF.

  ==> Iterations <==

                           Total Energy        Delta E     RMS |[F,P]|

   @DF-RHF iter SAD:  -230.88509011933283   -2.30885e+02   0.00000e+00 
   @DF-RHF iter   1:  -230.87280293048866    1.22872e-02   1.33608e-03 DIIS
   @DF-RHF iter   2:  -231.01426998538889   -1.41467e-01   7.12587e-04 DIIS
   @DF-RHF iter   3:  -231.05299166948947   -3.87217e-02   1.32636e-04 DIIS
   @DF-RHF iter   4:  -231.05540646594068   -2.41480e-03   3.57348e-05 DIIS
   @DF-RHF iter   5:  -231.05554460919217   -1.38143e-04   1.26477e-05 DIIS
   @DF-RHF iter   6:  -231.05556058871025   -1.59795e-05   2.45670e-06 DIIS
   @DF-RHF iter   7:  -231.05556173228510   -1.14357e-06   4.07713e-07 DIIS
   @DF-RHF iter   8:  -231.05556176277531   -3.04902e-08   1.24136e-07 DIIS
   @DF-RHF iter   9:  -231.05556176499414   -2.21883e-09   3.75203e-08 DIIS
   @DF-RHF iter  10:  -231.05556176531948   -3.25343e-10   9.20842e-09 DIIS
   @DF-RHF iter  11:  -231.05556176534037   -2.08900e-11   2.07335e-09 DIIS
   @DF-RHF iter  12:  -231.05556176534094   -5.68434e-13   5.63355e-10 DIIS
   @DF-RHF iter  13:  -231.05556176534068    2.55795e-13   1.67802e-10 DIIS
   @DF-RHF iter  14:  -231.05556176534122   -5.40012e-13   4.98535e-11 DIIS
  Energy and wave function converged.


  ==> Post-Iterations <==

    Orbital Energies [Eh]
    ---------------------

    Doubly Occupied:                                                      

       1A    -20.541022     2A    -11.274478     3A    -11.261627  
       4A    -11.224843     5A    -11.220021     6A     -1.392668  
       7A     -1.056770     8A     -0.997797     9A     -0.811995  
      10A     -0.803682    11A     -0.690716    12A     -0.680048  
      13A     -0.607519    14A     -0.589211    15A     -0.563572  
      16A     -0.505158    17A     -0.492777    18A     -0.474857  
      19A     -0.451105    20A     -0.402829  

    Virtual:                                                              

      21A      0.029894    22A      0.037979    23A      0.038467  
      24A      0.041518    25A      0.058340    26A      0.058880  
      27A      0.059510    28A      0.063737    29A      0.090996  
      30A      0.114830    31A      0.118437    32A      0.119016  
      33A      0.121535    34A      0.122797    35A      0.130784  
      36A      0.133235    37A      0.135770    38A      0.140148  
      39A      0.151539    40A      0.155147    41A      0.166473  
      42A      0.184960    43A      0.192030    44A      0.193132  
      45A      0.235320    46A      0.244863    47A      0.250153  
      48A      0.265666    49A      0.274646    50A      0.281380  
      51A      0.285284    52A      0.291774    53A      0.296535  
      54A      0.306005    55A      0.308870    56A      0.312317  
      57A      0.314460    58A      0.320496    59A      0.334019  
      60A      0.340086    61A      0.345617    62A      0.356108  
      63A      0.363967    64A      0.366899    65A      0.369060  
      66A      0.377055    67A      0.398681    68A      0.401621  
      69A      0.411476    70A      0.412855    71A      0.424700  
      72A      0.428090    73A      0.431149    74A      0.440255  
      75A      0.444290    76A      0.448702    77A      0.468396  
      78A      0.469820    79A      0.480955    80A      0.481697  
      81A      0.486133    82A      0.500739    83A      0.511129  
      84A      0.518394    85A      0.524065    86A      0.527900  
      87A      0.528805    88A      0.537633    89A      0.547878  
      90A      0.549327    91A      0.555683    92A      0.562203  
      93A      0.573867    94A      0.583489    95A      0.588888  
      96A      0.590690    97A      0.605204    98A      0.609563  
      99A      0.610754   100A      0.623813   101A      0.636468  
     102A      0.644105   103A      0.661457   104A      0.683165  
     105A      0.701577   106A      0.741052   107A      0.769459  
     108A      0.780524   109A      0.800978   110A      0.809461  
     111A      0.812800   112A      0.816942   113A      0.829558  
     114A      0.848568   115A      0.859094   116A      0.862338  
     117A      0.870405   118A      0.877248   119A      0.888241  
     120A      0.894550   121A      0.896964   122A      0.908465  
     123A      0.922476   124A      0.931944   125A      0.939142  
     126A      0.950625   127A      0.954690   128A      0.960616  
     129A      0.966295   130A      0.981343   131A      0.987223  
     132A      1.000686   133A      1.018427   134A      1.024694  
     135A      1.039695   136A      1.048233   137A      1.055999  
     138A      1.068295   139A      1.074321   140A      1.088153  
     141A      1.099785   142A      1.101211   143A      1.108248  
     144A      1.115405   145A      1.128010   146A      1.135900  
     147A      1.147706   148A      1.161705   149A      1.171000  
     150A      1.176295   151A      1.180802   152A      1.208687  
     153A      1.218350   154A      1.227868   155A      1.233879  
     156A      1.235749   157A      1.243901   158A      1.248899  
     159A      1.272628   160A      1.274830   161A      1.281397  
     162A      1.312285   163A      1.326987   164A      1.331136  
     165A      1.351486   166A      1.363944   167A      1.392681  
     168A      1.397021   169A      1.424925   170A      1.430167  
     171A      1.452361   172A      1.459369   173A      1.462395  
     174A      1.475431   175A      1.494826   176A      1.498192  
     177A      1.508305   178A      1.536282   179A      1.556199  
     180A      1.565053   181A      1.570746   182A      1.580581  
     183A      1.593104   184A      1.600782   185A      1.625595  
     186A      1.633863   187A      1.640492   188A      1.644293  
     189A      1.656129   190A      1.674214   191A      1.681423  
     192A      1.687857   193A      1.710809   194A      1.726582  
     195A      1.741217   196A      1.763893   197A      1.769224  
     198A      1.783208   199A      1.788251   200A      1.792302  
     201A      1.806366   202A      1.849529   203A      1.858421  
     204A      1.871695   205A      1.896366   206A      1.898485  
     207A      1.914304   208A      1.929419   209A      1.935873  
     210A      1.940923   211A      1.952252   212A      1.960227  
     213A      1.984716   214A      1.990172   215A      1.996508  
     216A      1.999163   217A      2.012077   218A      2.024472  
     219A      2.076861   220A      2.089290   221A      2.101802  
     222A      2.129012   223A      2.132078   224A      2.156042  
     225A      2.172688   226A      2.196695   227A      2.200165  
     228A      2.207741   229A      2.241295   230A      2.247972  
     231A      2.276524   232A      2.280432   233A      2.306993  
     234A      2.329130   235A      2.345332   236A      2.363909  
     237A      2.385519   238A      2.424485   239A      2.435655  
     240A      2.445403   241A      2.449651   242A      2.473465  
     243A      2.515671   244A      2.538911   245A      2.574537  
     246A      2.661819   247A      2.737458   248A      2.767050  
     249A      2.775450   250A      2.836569   251A      2.867394  
     252A      2.897920   253A      2.933119   254A      2.964756  
     255A      2.994751   256A      3.008455   257A      3.093545  
     258A      3.122708   259A      3.149443   260A      3.205422  
     261A      3.256343   262A      3.302820   263A      3.330837  
     264A      3.336219   265A      3.359550   266A      3.400384  
     267A      3.459596   268A      3.460768   269A      3.479103  
     270A      3.515574   271A      3.545315   272A      3.561223  
     273A      3.578253   274A      3.591971   275A      3.627524  
     276A      3.647468   277A      3.653195   278A      3.686164  
     279A      3.694341   280A      3.717150   281A      3.731522  
     282A      3.760804   283A      3.776996   284A      3.795028  
     285A      3.802254   286A      3.831051   287A      3.844808  
     288A      3.879483   289A      3.882756   290A      3.905009  
     291A      3.915528   292A      3.918977   293A      3.965437  
     294A      3.971067   295A      3.984389   296A      4.009702  
     297A      4.018684   298A      4.026013   299A      4.048923  
     300A      4.053914   301A      4.069313   302A      4.098978  
     303A      4.112755   304A      4.143943   305A      4.158431  
     306A      4.194431   307A      4.200850   308A      4.206389  
     309A      4.252591   310A      4.260691   311A      4.281336  
     312A      4.293441   313A      4.308771   314A      4.339904  
     315A      4.342782   316A      4.365857   317A      4.387734  
     318A      4.395443   319A      4.411847   320A      4.443758  
     321A      4.460984   322A      4.487428   323A      4.503346  
     324A      4.528073   325A      4.560840   326A      4.590387  
     327A      4.602581   328A      4.609983   329A      4.642287  
     330A      4.666616   331A      4.698091   332A      4.731655  
     333A      4.749256   334A      4.758944   335A      4.794596  
     336A      4.802302   337A      4.849555   338A      4.880671  
     339A      4.895177   340A      4.906772   341A      4.927068  
     342A      4.931271   343A      4.954638   344A      4.967362  
     345A      4.978500   346A      5.014600   347A      5.039270  
     348A      5.061147   349A      5.092636   350A      5.107137  
     351A      5.119900   352A      5.129585   353A      5.174756  
     354A      5.187330   355A      5.254594   356A      5.293689  
     357A      5.325109   358A      5.355382   359A      5.368688  
     360A      5.387719   361A      5.396099   362A      5.437202  
     363A      5.454424   364A      5.463069   365A      5.492873  
     366A      5.511848   367A      5.526262   368A      5.558413  
     369A      5.574456   370A      5.613708   371A      5.617692  
     372A      5.681045   373A      5.695330   374A      5.743886  
     375A      5.758052   376A      5.774207   377A      5.803226  
     378A      5.861831   379A      5.918584   380A      5.939676  
     381A      5.968433   382A      6.023701   383A      6.039812  
     384A      6.109411   385A      6.199422   386A      6.207964  
     387A      6.253629   388A      6.291169   389A      6.378283  
     390A      6.454388   391A      6.556240   392A      6.635676  
     393A      6.799600   394A      6.817737   395A      6.839547  
     396A      6.892366   397A      6.964764   398A      7.037669  
     399A      7.104851   400A      7.268690   401A      7.391810  
     402A      7.492701   403A      7.505077   404A      7.628792  
     405A      7.723185   406A      7.845489   407A      8.111034  
     408A      8.334660   409A      8.519586   410A     15.852127  
     411A     17.971441   412A     18.420360   413A     18.971788  
     414A     19.185295  

    Final Occupation by Irrep:
              A 
    DOCC [    20 ]

  @DF-RHF Final Energy:  -231.05556176534122

   => Energetics <=

    Nuclear Repulsion Energy =            193.0314479523201214
    One-Electron Energy =                -696.0886349333856060
    Two-Electron Energy =                 272.0016252157242320
    Total Energy =                       -231.0555617653412241

Computation Completed

*** tstop() called on node37.bme.utexas.edu at Sat Nov  7 06:24:39 2020
Module time:
	user time   =      61.32 seconds =       1.02 minutes
	system time =       5.65 seconds =       0.09 minutes
	total time  =         10 seconds =       0.17 minutes
Total time:
	user time   =      61.32 seconds =       1.02 minutes
	system time =       5.65 seconds =       0.09 minutes
	total time  =         10 seconds =       0.17 minutes
   => Loading Basis Set <=

    Name: (AUG-CC-PVTZ AUX)
    Role: RIFIT
    Keyword: DF_BASIS_MP2
    atoms 1    entry O          line   264 file /home/xy3866/psi4conda/share/psi4/basis/aug-cc-pvtz-ri.gbs 
    atoms 2-5  entry C          line   148 file /home/xy3866/psi4conda/share/psi4/basis/aug-cc-pvtz-ri.gbs 
    atoms 6-13 entry H          line    30 file /home/xy3866/psi4conda/share/psi4/basis/aug-cc-pvtz-ri.gbs 


*** tstart() called on node37.bme.utexas.edu
*** at Sat Nov  7 06:24:39 2020


  //>>>>>>>>>>>>>>>>>>>>>>>>>>>>>>>>>>>//
  //               DFMP2               //
  //<<<<<<<<<<<<<<<<<<<<<<<<<<<<<<<<<<<//

	 --------------------------------------------------------
	                          DF-MP2                         
	      2nd-Order Density-Fitted Moller-Plesset Theory     
	              RMP2 Wavefunction,   8 Threads             
	                                                         
	        Rob Parrish, Justin Turney, Andy Simmonett,      
	           Ed Hohenstein, and C. David Sherrill          
	 --------------------------------------------------------

   => Auxiliary Basis Set <=

  Basis Set: (AUG-CC-PVTZ AUX)
    Blend: AUG-CC-PVTZ-RI
    Number of shells: 252
    Number of basis function: 898
    Number of Cartesian functions: 1120
    Spherical Harmonics?: true
    Max angular momentum: 4

	 --------------------------------------------------------
	                 NBF =   414, NAUX =   898
	 --------------------------------------------------------
	   CLASS    FOCC     OCC    AOCC    AVIR     VIR    FVIR
	   PAIRS       0      20      20     394     394       0
	 --------------------------------------------------------

  DFHelper Memory: AOs need 1.179 GiB; user supplied 22.352 GiB. Using in-core AOs.


         ------------------------------------------------------------
                                     CPHF                           
                                  Rob Parrish                       
         ------------------------------------------------------------

  ==> Geometry <==

    Molecular point group: c1
    Full point group: C1

    Geometry (in Angstrom), charge = 0, multiplicity = 1:

       Center              X                  Y                   Z               Mass       
    ------------   -----------------  -----------------  -----------------  -----------------
         O            0.052412287790     1.137005633790    -0.076676991308    15.994914619570
         C           -0.739213212210    -1.012472966210     0.264123308692    12.000000000000
         C            0.709313787790    -1.012463966210    -0.220383691308    12.000000000000
         C           -1.178694212210     0.397370033790    -0.116929691308    12.000000000000
         C            1.148780787790     0.397375033790     0.160693308692    12.000000000000
         H           -1.357412212210    -1.788998966210    -0.194976691308     1.007825032230
         H           -0.774104212210    -1.141853966210     1.350931308692     1.007825032230
         H            1.327516787790    -1.788992966210     0.238703308692     1.007825032230
         H            0.744205787790    -1.141825966210    -1.307194691308     1.007825032230
         H           -1.528682212210     0.432699033790    -1.158064691308     1.007825032230
         H           -1.967816212210     0.799421033790     0.526153308692     1.007825032230
         H            1.498731787790     0.432694033790     1.201840308692     1.007825032230
         H            1.937920787790     0.799437033790    -0.482358691308     1.007825032230

  Nuclear repulsion =  193.031447952320121
  Reference energy  = -231.055561765341224

  ==> Basis Set <==

  Basis Set: AUG-CC-PVTZ
    Blend: AUG-CC-PVTZ
    Number of shells: 142
    Number of basis function: 414
    Number of Cartesian functions: 475
    Spherical Harmonics?: true
    Max angular momentum: 3

  ==> CGRSolver (by Rob Parrish) <==

   Number of roots    =         1
   Preconditioning    =    JACOBI
   Convergence cutoff =     1E-06
   Maximum iterations =       100

  ==> CPHFRHamiltonian (by Rob Parrish) <== 

  ==> MemDFJK: Density-Fitted J/K Matrices <==

    J tasked:                   Yes
    K tasked:                   Yes
    wK tasked:                   No
    OpenMP threads:               8
    Memory [MiB]:             22888
    Algorithm:                 Core
    Schwarz Cutoff:           1E-12
    Mask sparsity (%):       0.4516
    Fitting Condition:        1E-10

   => Auxiliary Basis Set <=

  Basis Set: (AUG-CC-PVTZ AUX)
    Blend: AUG-CC-PVTZ-JKFIT
    Number of shells: 262
    Number of basis function: 888
    Number of Cartesian functions: 1095
    Spherical Harmonics?: true
    Max angular momentum: 4

  ==> CPHF Iterations <==

  => Iterations <=

             Iter  Converged  Remaining    Residual
  CGR           1          0          1   8.576E-02
  CGR           2          0          1   1.616E-02
  CGR           3          0          1   5.922E-03
  CGR           4          0          1   1.522E-03
  CGR           5          0          1   3.737E-04
  CGR           6          0          1   9.944E-05
  CGR           7          0          1   3.335E-05
  CGR           8          0          1   7.013E-06
  CGR           9          0          1   1.202E-06
  CGR          10          1          0   3.790E-07

    CGRSolver converged.

	-----------------------------------------------------------
	 ==================> DF-MP2 Energies <==================== 
	-----------------------------------------------------------
	 Reference Energy          =    -231.0555617653412241 [Eh]
	 Singles Energy            =      -0.0000000000000000 [Eh]
	 Same-Spin Energy          =      -0.2324993292904718 [Eh]
	 Opposite-Spin Energy      =      -0.7937338821358776 [Eh]
	 Correlation Energy        =      -1.0262332114263493 [Eh]
	 Total Energy              =    -232.0817949767675827 [Eh]
	-----------------------------------------------------------
	 ================> DF-SCS-MP2 Energies <================== 
	-----------------------------------------------------------
	 SCS Same-Spin Scale       =       0.3333333333333333 [-]
	 SCS Opposite-Spin Scale   =       1.2000000000000000 [-]
	 SCS Same-Spin Energy      =      -0.0774997764301573 [Eh]
	 SCS Opposite-Spin Energy  =      -0.9524806585630531 [Eh]
	 SCS Correlation Energy    =      -1.0299804349932105 [Eh]
	 SCS Total Energy          =    -232.0855422003344302 [Eh]
	-----------------------------------------------------------



Properties will be evaluated at  -0.000000,   0.000000,  -0.000000 [a0]

Properties computed using the MP2 density matrix

  Nuclear Dipole Moment: [e a0]
     X:    -0.1119      Y:    -3.1795      Z:     0.1637

  Electronic Dipole Moment: [e a0]
     X:    -0.0087      Y:     2.5591      Z:    -0.1192

  Dipole Moment: [e a0]
     X:    -0.1206      Y:    -0.6204      Z:     0.0445     Total:     0.6336

  Dipole Moment: [D]
     X:    -0.3065      Y:    -1.5769      Z:     0.1130     Total:     1.6103


*** tstop() called on node37.bme.utexas.edu at Sat Nov  7 06:25:10 2020
Module time:
	user time   =     184.11 seconds =       3.07 minutes
	system time =      10.15 seconds =       0.17 minutes
	total time  =         31 seconds =       0.52 minutes
Total time:
	user time   =     245.97 seconds =       4.10 minutes
	system time =      15.83 seconds =       0.26 minutes
	total time  =         41 seconds =       0.68 minutes

    Psi4 stopped on: Saturday, 07 November 2020 06:25AM
    Psi4 wall time for execution: 0:00:41.56

*** Psi4 exiting successfully. Buy a developer a beer!
