
    -----------------------------------------------------------------------
          Psi4: An Open-Source Ab Initio Electronic Structure Package
                               Psi4 1.3.2 release

                         Git: Rev {HEAD} ecbda83 


    R. M. Parrish, L. A. Burns, D. G. A. Smith, A. C. Simmonett,
    A. E. DePrince III, E. G. Hohenstein, U. Bozkaya, A. Yu. Sokolov,
    R. Di Remigio, R. M. Richard, J. F. Gonthier, A. M. James,
    H. R. McAlexander, A. Kumar, M. Saitow, X. Wang, B. P. Pritchard,
    P. Verma, H. F. Schaefer III, K. Patkowski, R. A. King, E. F. Valeev,
    F. A. Evangelista, J. M. Turney, T. D. Crawford, and C. D. Sherrill,
    J. Chem. Theory Comput. 13(7) pp 3185--3197 (2017).
    (doi: 10.1021/acs.jctc.7b00174)


                         Additional Contributions by
    P. Kraus, H. Kruse, M. H. Lechner, M. C. Schieber, R. A. Shaw,
    A. Alenaizan, R. Galvelis, Z. L. Glick, S. Lehtola, and J. P. Misiewicz

    -----------------------------------------------------------------------


    Psi4 started on: Wednesday, 03 February 2021 12:02PM

    Process ID: 70524
    Host:       node142.bme.utexas.edu
    PSIDATADIR: /home/xy3866/psi4conda/share/psi4
    Memory:     500.0 MiB
    Threads:    8
    
  ==> Input File <==

--------------------------------------------------------------------------
#psi4
#
memory 32 gb

molecule  {
0 1
  N        0.0678190     0.9536280     0.3022870
  N        2.3787710     0.9561460     0.2207080
  C       -1.1991060     0.3426720     0.1363540
  C        1.2968694     0.1691452     0.0628369
  C        0.1402100     2.4122570     0.3330790
  C       -1.5868590    -0.6993050     0.9921800
  C       -2.0897480     0.7954790    -0.8469150
  C        1.2497210    -1.1235430    -0.2722420
  C       -2.8402720    -1.2929990     0.8487880
  C       -3.3529590     0.2138150    -0.9676140
  C       -3.7300960    -0.8357430    -0.1274420
  C        2.4727450    -1.7522840    -0.4525030
  C        3.5488610     0.3171890     0.0404760
  C        3.6581100    -1.0291840    -0.2852360
  H        0.8914220     2.7227450     1.0594170
  H       -0.8398030     2.7868350     0.6320060
  H        0.4165240     2.8365740    -0.6404330
  H       -0.9028320    -1.0219250     1.7735780
  H       -1.7862700     1.5949720    -1.5186410
  H        0.3236690    -1.6661200    -0.4241870
  H       -3.1324200    -2.0992380     1.5176810
  H       -4.0389250     0.5738560    -1.7308950
  H       -4.7117870    -1.2913710    -0.2288330
  H        2.5003580    -2.8034100    -0.7313100
  H        4.4376410     0.9347650     0.1641390
  H        4.6312890    -1.4915970    -0.4182900
units angstrom
no_reorient  #important for SAPT in psi4, default
symmetry c1  #important for SAPT in psi4, default
}

set PROPERTIES_ORIGIN ["COM"]
properties('MP2/aug-cc-pvtz', properties = ['dipole'])
--------------------------------------------------------------------------

  Memory set to  29.802 GiB by Python driver.
    SCF Algorithm Type (re)set to DF.

*** tstart() called on node142.bme.utexas.edu
*** at Wed Feb  3 12:02:12 2021

   => Loading Basis Set <=

    Name: AUG-CC-PVTZ
    Role: ORBITAL
    Keyword: BASIS
    atoms 1-2   entry N          line   281 file /home/xy3866/psi4conda/share/psi4/basis/aug-cc-pvtz.gbs 
    atoms 3-14  entry C          line   235 file /home/xy3866/psi4conda/share/psi4/basis/aug-cc-pvtz.gbs 
    atoms 15-26 entry H          line    36 file /home/xy3866/psi4conda/share/psi4/basis/aug-cc-pvtz.gbs 


         ---------------------------------------------------------
                                   SCF
               by Justin Turney, Rob Parrish, Andy Simmonett
                          and Daniel G. A. Smith
                              RHF Reference
                        8 Threads,  30517 MiB Core
         ---------------------------------------------------------

  ==> Geometry <==

    Molecular point group: c1
    Full point group: C1

    Geometry (in Angstrom), charge = 0, multiplicity = 1:

       Center              X                  Y                   Z               Mass       
    ------------   -----------------  -----------------  -----------------  -----------------
         N            0.052386839833     0.964289575354     0.300577919315    14.003074004430
         N            2.363338839833     0.966807575354     0.218998919315    14.003074004430
         C           -1.214538160167     0.353333575354     0.134644919315    12.000000000000
         C            1.281437239833     0.179806775354     0.061127819315    12.000000000000
         C            0.124777839833     2.422918575354     0.331369919315    12.000000000000
         C           -1.602291160167    -0.688643424646     0.990470919315    12.000000000000
         C           -2.105180160167     0.806140575354    -0.848624080685    12.000000000000
         C            1.234288839833    -1.112881424646    -0.273951080685    12.000000000000
         C           -2.855704160167    -1.282337424646     0.847078919315    12.000000000000
         C           -3.368391160167     0.224476575354    -0.969323080685    12.000000000000
         C           -3.745528160167    -0.825081424646    -0.129151080685    12.000000000000
         C            2.457312839833    -1.741622424646    -0.454212080685    12.000000000000
         C            3.533428839833     0.327850575354     0.038766919315    12.000000000000
         C            3.642677839833    -1.018522424646    -0.286945080685    12.000000000000
         H            0.875989839833     2.733406575354     1.057707919315     1.007825032230
         H           -0.855235160167     2.797496575354     0.630296919315     1.007825032230
         H            0.401091839833     2.847235575354    -0.642142080685     1.007825032230
         H           -0.918264160167    -1.011263424646     1.771868919315     1.007825032230
         H           -1.801702160167     1.605633575354    -1.520350080685     1.007825032230
         H            0.308236839833    -1.655458424646    -0.425896080685     1.007825032230
         H           -3.147852160167    -2.088576424646     1.515971919315     1.007825032230
         H           -4.054357160167     0.584517575354    -1.732604080685     1.007825032230
         H           -4.727219160167    -1.280709424646    -0.230542080685     1.007825032230
         H            2.484925839833    -2.792748424646    -0.733019080685     1.007825032230
         H            4.422208839833     0.945426575354     0.162429919315     1.007825032230
         H            4.615856839833    -1.480935424646    -0.419999080685     1.007825032230

  Running in c1 symmetry.

  Rotational constants: A =      0.05353  B =      0.01445  C =      0.01242 [cm^-1]
  Rotational constants: A =   1604.69186  B =    433.24290  C =    372.38152 [MHz]
  Nuclear repulsion =  819.577236489061420

  Charge       = 0
  Multiplicity = 1
  Electrons    = 98
  Nalpha       = 49
  Nbeta        = 49

  ==> Algorithm <==

  SCF Algorithm Type is DF.
  DIIS enabled.
  MOM disabled.
  Fractional occupation disabled.
  Guess Type is SAD.
  Energy threshold   = 1.00e-10
  Density threshold  = 1.00e-10
  Integral threshold = 0.00e+00

  ==> Primary Basis <==

  Basis Set: AUG-CC-PVTZ
    Blend: AUG-CC-PVTZ
    Number of shells: 304
    Number of basis function: 920
    Number of Cartesian functions: 1070
    Spherical Harmonics?: true
    Max angular momentum: 3

   => Loading Basis Set <=

    Name: (AUG-CC-PVTZ AUX)
    Role: JKFIT
    Keyword: DF_BASIS_SCF
    atoms 1-2   entry N          line   224 file /home/xy3866/psi4conda/share/psi4/basis/aug-cc-pvtz-jkfit.gbs 
    atoms 3-14  entry C          line   162 file /home/xy3866/psi4conda/share/psi4/basis/aug-cc-pvtz-jkfit.gbs 
    atoms 15-26 entry H          line    70 file /home/xy3866/psi4conda/share/psi4/basis/aug-cc-pvtz-jkfit.gbs 

  ==> Pre-Iterations <==

   -------------------------------------------------------
    Irrep   Nso     Nmo     Nalpha   Nbeta   Ndocc  Nsocc
   -------------------------------------------------------
     A        920     920       0       0       0       0
   -------------------------------------------------------
    Total     920     920      49      49      49       0
   -------------------------------------------------------

  ==> Integral Setup <==

  DFHelper Memory: AOs need 11.639 GiB; user supplied 22.352 GiB. Using in-core AOs.

  ==> MemDFJK: Density-Fitted J/K Matrices <==

    J tasked:                   Yes
    K tasked:                   Yes
    wK tasked:                   No
    OpenMP threads:               8
    Memory [MiB]:             22888
    Algorithm:                 Disk
    Schwarz Cutoff:           1E-12
    Mask sparsity (%):      10.0624
    Fitting Condition:        1E-10

   => Auxiliary Basis Set <=

  Basis Set: (AUG-CC-PVTZ AUX)
    Blend: AUG-CC-PVTZ-JKFIT
    Number of shells: 588
    Number of basis function: 2008
    Number of Cartesian functions: 2494
    Spherical Harmonics?: true
    Max angular momentum: 4

  Minimum eigenvalue in the overlap matrix is 4.1811529489E-07.
  Using Symmetric Orthogonalization.

  SCF Guess: Superposition of Atomic Densities via on-the-fly atomic UHF.

  ==> Iterations <==

                           Total Energy        Delta E     RMS |[F,P]|

   @DF-RHF iter SAD:  -570.02361896022558   -5.70024e+02   0.00000e+00 
   @DF-RHF iter   1:  -570.11424568886093   -9.06267e-02   8.28182e-04 DIIS
   @DF-RHF iter   2:  -570.41603124622202   -3.01786e-01   3.52475e-04 DIIS
   @DF-RHF iter   3:  -570.46816889300965   -5.21376e-02   7.39270e-05 DIIS
   @DF-RHF iter   4:  -570.47195369533210   -3.78480e-03   2.15744e-05 DIIS
   @DF-RHF iter   5:  -570.47218355593645   -2.29861e-04   6.75898e-06 DIIS
   @DF-RHF iter   6:  -570.47221856852468   -3.50126e-05   2.84368e-06 DIIS
   @DF-RHF iter   7:  -570.47222554737652   -6.97885e-06   1.02290e-06 DIIS
   @DF-RHF iter   8:  -570.47222707749154   -1.53012e-06   4.59206e-07 DIIS
   @DF-RHF iter   9:  -570.47222742648944   -3.48998e-07   1.65685e-07 DIIS
   @DF-RHF iter  10:  -570.47222747935621   -5.28668e-08   8.27790e-08 DIIS
   @DF-RHF iter  11:  -570.47222749517118   -1.58150e-08   3.37317e-08 DIIS
   @DF-RHF iter  12:  -570.47222749763296   -2.46177e-09   1.59523e-08 DIIS
   @DF-RHF iter  13:  -570.47222749801369   -3.80737e-10   4.26039e-09 DIIS
   @DF-RHF iter  14:  -570.47222749804087   -2.71712e-11   1.63512e-09 DIIS
   @DF-RHF iter  15:  -570.47222749804337   -2.50111e-12   6.93983e-10 DIIS
   @DF-RHF iter  16:  -570.47222749804041    2.95586e-12   3.56580e-10 DIIS
   @DF-RHF iter  17:  -570.47222749804234   -1.93268e-12   1.78184e-10 DIIS
   @DF-RHF iter  18:  -570.47222749804416   -1.81899e-12   6.69218e-11 DIIS
  Energy and wave function converged.


  ==> Post-Iterations <==

    Orbital Energies [Eh]
    ---------------------

    Doubly Occupied:                                                      

       1A    -15.566506     2A    -15.558891     3A    -11.313528  
       4A    -11.278562     5A    -11.272989     6A    -11.262731  
       7A    -11.243457     8A    -11.239286     9A    -11.239180  
      10A    -11.233122    11A    -11.232862    12A    -11.231974  
      13A    -11.231092    14A    -11.226122    15A     -1.284638  
      16A     -1.217094    17A     -1.136159    18A     -1.092666  
      19A     -1.034440    20A     -1.015861    21A     -1.001049  
      22A     -0.915386    23A     -0.862671    24A     -0.847302  
      25A     -0.829095    26A     -0.789436    27A     -0.725293  
      28A     -0.692850    29A     -0.671688    30A     -0.652622  
      31A     -0.640829    32A     -0.628172    33A     -0.615948  
      34A     -0.599170    35A     -0.588382    36A     -0.580109  
      37A     -0.569140    38A     -0.542368    39A     -0.538059  
      40A     -0.523164    41A     -0.504159    42A     -0.497978  
      43A     -0.495494    44A     -0.431295    45A     -0.418163  
      46A     -0.383315    47A     -0.342794    48A     -0.337772  
      49A     -0.292299  

    Virtual:                                                              

      50A      0.025802    51A      0.029275    52A      0.033032  
      53A      0.036860    54A      0.040601    55A      0.046500  
      56A      0.049439    57A      0.051456    58A      0.059869  
      59A      0.063360    60A      0.069289    61A      0.073538  
      62A      0.083557    63A      0.088255    64A      0.096032  
      65A      0.099449    66A      0.102567    67A      0.102983  
      68A      0.108373    69A      0.111464    70A      0.114129  
      71A      0.115342    72A      0.117990    73A      0.119822  
      74A      0.121137    75A      0.121827    76A      0.123845  
      77A      0.129025    78A      0.132130    79A      0.135348  
      80A      0.139365    81A      0.139888    82A      0.141870  
      83A      0.146474    84A      0.148677    85A      0.151524  
      86A      0.154404    87A      0.157396    88A      0.160124  
      89A      0.163226    90A      0.170022    91A      0.171050  
      92A      0.172554    93A      0.175785    94A      0.180710  
      95A      0.186569    96A      0.190519    97A      0.200518  
      98A      0.204288    99A      0.210358   100A      0.213430  
     101A      0.220684   102A      0.226196   103A      0.231929  
     104A      0.237100   105A      0.240200   106A      0.245042  
     107A      0.252865   108A      0.256117   109A      0.258393  
     110A      0.259839   111A      0.261433   112A      0.266776  
     113A      0.272058   114A      0.278004   115A      0.280486  
     116A      0.284182   117A      0.285435   118A      0.289344  
     119A      0.293644   120A      0.300073   121A      0.303124  
     122A      0.306264   123A      0.310039   124A      0.313279  
     125A      0.315873   126A      0.319278   127A      0.322002  
     128A      0.325752   129A      0.331308   130A      0.333262  
     131A      0.336634   132A      0.340660   133A      0.344430  
     134A      0.345445   135A      0.350272   136A      0.352471  
     137A      0.354558   138A      0.357363   139A      0.366389  
     140A      0.367628   141A      0.370989   142A      0.380762  
     143A      0.381551   144A      0.387247   145A      0.391493  
     146A      0.396696   147A      0.400181   148A      0.403441  
     149A      0.409658   150A      0.411774   151A      0.419636  
     152A      0.422895   153A      0.426293   154A      0.429463  
     155A      0.431487   156A      0.434836   157A      0.438568  
     158A      0.444714   159A      0.446724   160A      0.450843  
     161A      0.454559   162A      0.458176   163A      0.460301  
     164A      0.463563   165A      0.466532   166A      0.467525  
     167A      0.470744   168A      0.476871   169A      0.480039  
     170A      0.484985   171A      0.487298   172A      0.488477  
     173A      0.491238   174A      0.493418   175A      0.496970  
     176A      0.499238   177A      0.503935   178A      0.507329  
     179A      0.509455   180A      0.514292   181A      0.516717  
     182A      0.519437   183A      0.520697   184A      0.523992  
     185A      0.529985   186A      0.532477   187A      0.537217  
     188A      0.541019   189A      0.541543   190A      0.545638  
     191A      0.548617   192A      0.552600   193A      0.558245  
     194A      0.558556   195A      0.561365   196A      0.563311  
     197A      0.565603   198A      0.570234   199A      0.572388  
     200A      0.579120   201A      0.584408   202A      0.589767  
     203A      0.592872   204A      0.597124   205A      0.604327  
     206A      0.604550   207A      0.610518   208A      0.614785  
     209A      0.617600   210A      0.624421   211A      0.629951  
     212A      0.632892   213A      0.640929   214A      0.643855  
     215A      0.647313   216A      0.661103   217A      0.663726  
     218A      0.669930   219A      0.673450   220A      0.675141  
     221A      0.679985   222A      0.682631   223A      0.688270  
     224A      0.698022   225A      0.701105   226A      0.704158  
     227A      0.707946   228A      0.711256   229A      0.720313  
     230A      0.721463   231A      0.728056   232A      0.732274  
     233A      0.734656   234A      0.744472   235A      0.750937  
     236A      0.757877   237A      0.761355   238A      0.765862  
     239A      0.769926   240A      0.774708   241A      0.781570  
     242A      0.784236   243A      0.794004   244A      0.794048  
     245A      0.798885   246A      0.803892   247A      0.807631  
     248A      0.813361   249A      0.821803   250A      0.825875  
     251A      0.827678   252A      0.839295   253A      0.843776  
     254A      0.849882   255A      0.853754   256A      0.855383  
     257A      0.857987   258A      0.864146   259A      0.869107  
     260A      0.875219   261A      0.878690   262A      0.881394  
     263A      0.886669   264A      0.888421   265A      0.896111  
     266A      0.900290   267A      0.901853   268A      0.905688  
     269A      0.909565   270A      0.911799   271A      0.916096  
     272A      0.920619   273A      0.926352   274A      0.932399  
     275A      0.936890   276A      0.940366   277A      0.942933  
     278A      0.944832   279A      0.948684   280A      0.955657  
     281A      0.959099   282A      0.962061   283A      0.971316  
     284A      0.979711   285A      0.985035   286A      0.988172  
     287A      0.992565   288A      0.996154   289A      0.999298  
     290A      1.002664   291A      1.005082   292A      1.007576  
     293A      1.015327   294A      1.017262   295A      1.025245  
     296A      1.034531   297A      1.037168   298A      1.041964  
     299A      1.046344   300A      1.051821   301A      1.054360  
     302A      1.061682   303A      1.065685   304A      1.067455  
     305A      1.074030   306A      1.074397   307A      1.078423  
     308A      1.081347   309A      1.084285   310A      1.090130  
     311A      1.095709   312A      1.099900   313A      1.105554  
     314A      1.109568   315A      1.111091   316A      1.118479  
     317A      1.121763   318A      1.127800   319A      1.132317  
     320A      1.133321   321A      1.136179   322A      1.146095  
     323A      1.146809   324A      1.149009   325A      1.157788  
     326A      1.158162   327A      1.166223   328A      1.167453  
     329A      1.172139   330A      1.177144   331A      1.181734  
     332A      1.184706   333A      1.189844   334A      1.192589  
     335A      1.194109   336A      1.200261   337A      1.204445  
     338A      1.206967   339A      1.210475   340A      1.215876  
     341A      1.218202   342A      1.225507   343A      1.229270  
     344A      1.232041   345A      1.237116   346A      1.239550  
     347A      1.243477   348A      1.246940   349A      1.252224  
     350A      1.261055   351A      1.269792   352A      1.273890  
     353A      1.277017   354A      1.282392   355A      1.285688  
     356A      1.288898   357A      1.292600   358A      1.298345  
     359A      1.303937   360A      1.312168   361A      1.317096  
     362A      1.319390   363A      1.328311   364A      1.341448  
     365A      1.348984   366A      1.350336   367A      1.360515  
     368A      1.363622   369A      1.372635   370A      1.380395  
     371A      1.382921   372A      1.387189   373A      1.392883  
     374A      1.400642   375A      1.402848   376A      1.411681  
     377A      1.419574   378A      1.420576   379A      1.427596  
     380A      1.431590   381A      1.440320   382A      1.443056  
     383A      1.453926   384A      1.458153   385A      1.461235  
     386A      1.466868   387A      1.474970   388A      1.476122  
     389A      1.486605   390A      1.494383   391A      1.502261  
     392A      1.516254   393A      1.518947   394A      1.527188  
     395A      1.530731   396A      1.535705   397A      1.539545  
     398A      1.549336   399A      1.553077   400A      1.557759  
     401A      1.562337   402A      1.574173   403A      1.576688  
     404A      1.582313   405A      1.594743   406A      1.595638  
     407A      1.601653   408A      1.611317   409A      1.618666  
     410A      1.623658   411A      1.628577   412A      1.639783  
     413A      1.643192   414A      1.643856   415A      1.651686  
     416A      1.661944   417A      1.673495   418A      1.676449  
     419A      1.682709   420A      1.684905   421A      1.689790  
     422A      1.697652   423A      1.707492   424A      1.716231  
     425A      1.717961   426A      1.731349   427A      1.739744  
     428A      1.743823   429A      1.744361   430A      1.749835  
     431A      1.755193   432A      1.764119   433A      1.769162  
     434A      1.777146   435A      1.780127   436A      1.789303  
     437A      1.794201   438A      1.796718   439A      1.800133  
     440A      1.812146   441A      1.817757   442A      1.829496  
     443A      1.833809   444A      1.838101   445A      1.843027  
     446A      1.848722   447A      1.858753   448A      1.862404  
     449A      1.869314   450A      1.871355   451A      1.880496  
     452A      1.883257   453A      1.893414   454A      1.896234  
     455A      1.906156   456A      1.906415   457A      1.911773  
     458A      1.924348   459A      1.931883   460A      1.935349  
     461A      1.941592   462A      1.955821   463A      1.959078  
     464A      1.967285   465A      1.978367   466A      1.982021  
     467A      1.985487   468A      1.994392   469A      2.000204  
     470A      2.003706   471A      2.009764   472A      2.015126  
     473A      2.020427   474A      2.027984   475A      2.038162  
     476A      2.045651   477A      2.052447   478A      2.056221  
     479A      2.057784   480A      2.063070   481A      2.070710  
     482A      2.080966   483A      2.084266   484A      2.091242  
     485A      2.099213   486A      2.103337   487A      2.110184  
     488A      2.119158   489A      2.125651   490A      2.132901  
     491A      2.141525   492A      2.147478   493A      2.156955  
     494A      2.166246   495A      2.172422   496A      2.176635  
     497A      2.189132   498A      2.192421   499A      2.197032  
     500A      2.205190   501A      2.214795   502A      2.222241  
     503A      2.227622   504A      2.228590   505A      2.237122  
     506A      2.243609   507A      2.255575   508A      2.262125  
     509A      2.270750   510A      2.279085   511A      2.285971  
     512A      2.295951   513A      2.297767   514A      2.314079  
     515A      2.319885   516A      2.327930   517A      2.333785  
     518A      2.341798   519A      2.345271   520A      2.360598  
     521A      2.367112   522A      2.370120   523A      2.378770  
     524A      2.391167   525A      2.402398   526A      2.403572  
     527A      2.417697   528A      2.422533   529A      2.439033  
     530A      2.449972   531A      2.458584   532A      2.466469  
     533A      2.479537   534A      2.480939   535A      2.498501  
     536A      2.501993   537A      2.509866   538A      2.523034  
     539A      2.525361   540A      2.543201   541A      2.556706  
     542A      2.564192   543A      2.576669   544A      2.587596  
     545A      2.597070   546A      2.603640   547A      2.620386  
     548A      2.635370   549A      2.645778   550A      2.655277  
     551A      2.664865   552A      2.673716   553A      2.684538  
     554A      2.700627   555A      2.710138   556A      2.736353  
     557A      2.744347   558A      2.768454   559A      2.780411  
     560A      2.798843   561A      2.808698   562A      2.814317  
     563A      2.820909   564A      2.835843   565A      2.843698  
     566A      2.869188   567A      2.877263   568A      2.881807  
     569A      2.900576   570A      2.929700   571A      2.945334  
     572A      2.948253   573A      2.972687   574A      2.988226  
     575A      3.015186   576A      3.058423   577A      3.070132  
     578A      3.092992   579A      3.102815   580A      3.119656  
     581A      3.143535   582A      3.163602   583A      3.184875  
     584A      3.193336   585A      3.220383   586A      3.224744  
     587A      3.239764   588A      3.258015   589A      3.267689  
     590A      3.271608   591A      3.286711   592A      3.312279  
     593A      3.318675   594A      3.340383   595A      3.346440  
     596A      3.365053   597A      3.367981   598A      3.383715  
     599A      3.389639   600A      3.400676   601A      3.416310  
     602A      3.421118   603A      3.430957   604A      3.435146  
     605A      3.445177   606A      3.456084   607A      3.460178  
     608A      3.470566   609A      3.480234   610A      3.484358  
     611A      3.498294   612A      3.502269   613A      3.507085  
     614A      3.513727   615A      3.530454   616A      3.533279  
     617A      3.541665   618A      3.547880   619A      3.551982  
     620A      3.560405   621A      3.571079   622A      3.577788  
     623A      3.593936   624A      3.595030   625A      3.600504  
     626A      3.611356   627A      3.623891   628A      3.631563  
     629A      3.635702   630A      3.637364   631A      3.651532  
     632A      3.661211   633A      3.666673   634A      3.671610  
     635A      3.682903   636A      3.687378   637A      3.694616  
     638A      3.698017   639A      3.705821   640A      3.723433  
     641A      3.727461   642A      3.738378   643A      3.743269  
     644A      3.762614   645A      3.766681   646A      3.770403  
     647A      3.781560   648A      3.795807   649A      3.798152  
     650A      3.819767   651A      3.822130   652A      3.828484  
     653A      3.832229   654A      3.839282   655A      3.849678  
     656A      3.856058   657A      3.867193   658A      3.873675  
     659A      3.881939   660A      3.890038   661A      3.893950  
     662A      3.904242   663A      3.914513   664A      3.922020  
     665A      3.930808   666A      3.937082   667A      3.939000  
     668A      3.944179   669A      3.951812   670A      3.953969  
     671A      3.959464   672A      3.971337   673A      3.973475  
     674A      3.975850   675A      3.980109   676A      3.983715  
     677A      4.002124   678A      4.011435   679A      4.015859  
     680A      4.022828   681A      4.026185   682A      4.035248  
     683A      4.044383   684A      4.048677   685A      4.053943  
     686A      4.066781   687A      4.077002   688A      4.080730  
     689A      4.091603   690A      4.105972   691A      4.111933  
     692A      4.123123   693A      4.137266   694A      4.138427  
     695A      4.156001   696A      4.160141   697A      4.164438  
     698A      4.171000   699A      4.173319   700A      4.186146  
     701A      4.198118   702A      4.207153   703A      4.209377  
     704A      4.217161   705A      4.223694   706A      4.235565  
     707A      4.238479   708A      4.247465   709A      4.254547  
     710A      4.266651   711A      4.274190   712A      4.288141  
     713A      4.289545   714A      4.302428   715A      4.310469  
     716A      4.314341   717A      4.319597   718A      4.323199  
     719A      4.340676   720A      4.345931   721A      4.354052  
     722A      4.363078   723A      4.379461   724A      4.381278  
     725A      4.385912   726A      4.395156   727A      4.396905  
     728A      4.409838   729A      4.413618   730A      4.423190  
     731A      4.432460   732A      4.436080   733A      4.441481  
     734A      4.452598   735A      4.459019   736A      4.473328  
     737A      4.478269   738A      4.486409   739A      4.502498  
     740A      4.503304   741A      4.522179   742A      4.529260  
     743A      4.540825   744A      4.550324   745A      4.554838  
     746A      4.566451   747A      4.569642   748A      4.575172  
     749A      4.589382   750A      4.598128   751A      4.606840  
     752A      4.629780   753A      4.635828   754A      4.661269  
     755A      4.671715   756A      4.680167   757A      4.692130  
     758A      4.703679   759A      4.725003   760A      4.737107  
     761A      4.737201   762A      4.749650   763A      4.763258  
     764A      4.778860   765A      4.779905   766A      4.792022  
     767A      4.809138   768A      4.811552   769A      4.823995  
     770A      4.842218   771A      4.848453   772A      4.870738  
     773A      4.875542   774A      4.906004   775A      4.914798  
     776A      4.927469   777A      4.935337   778A      4.948490  
     779A      4.951693   780A      4.958269   781A      4.962283  
     782A      4.970278   783A      4.980119   784A      4.993305  
     785A      4.998266   786A      5.017375   787A      5.028851  
     788A      5.039119   789A      5.042064   790A      5.052807  
     791A      5.069790   792A      5.079891   793A      5.091660  
     794A      5.101153   795A      5.114212   796A      5.122716  
     797A      5.127135   798A      5.132149   799A      5.136071  
     800A      5.140636   801A      5.156464   802A      5.167789  
     803A      5.171441   804A      5.186939   805A      5.191130  
     806A      5.200177   807A      5.208181   808A      5.222475  
     809A      5.226445   810A      5.236954   811A      5.240677  
     812A      5.259368   813A      5.261159   814A      5.268099  
     815A      5.282806   816A      5.302119   817A      5.318235  
     818A      5.326062   819A      5.331653   820A      5.346124  
     821A      5.359126   822A      5.376196   823A      5.389039  
     824A      5.397165   825A      5.403621   826A      5.407634  
     827A      5.432161   828A      5.437078   829A      5.462049  
     830A      5.489659   831A      5.501693   832A      5.527541  
     833A      5.532869   834A      5.552302   835A      5.583652  
     836A      5.590419   837A      5.613348   838A      5.622618  
     839A      5.639442   840A      5.645539   841A      5.653607  
     842A      5.680989   843A      5.691801   844A      5.720981  
     845A      5.738413   846A      5.745691   847A      5.756622  
     848A      5.766276   849A      5.779823   850A      5.826648  
     851A      5.837430   852A      5.855266   853A      5.859914  
     854A      5.883584   855A      5.895595   856A      5.898175  
     857A      5.910034   858A      5.928860   859A      5.957878  
     860A      5.964034   861A      5.997859   862A      6.035770  
     863A      6.091494   864A      6.101688   865A      6.142061  
     866A      6.154519   867A      6.197416   868A      6.201840  
     869A      6.236732   870A      6.242953   871A      6.264502  
     872A      6.265723   873A      6.278394   874A      6.300923  
     875A      6.308527   876A      6.322077   877A      6.350395  
     878A      6.384113   879A      6.406170   880A      6.436250  
     881A      6.473135   882A      6.493249   883A      6.542759  
     884A      6.569678   885A      6.604745   886A      6.673641  
     887A      6.701806   888A      6.735136   889A      6.764408  
     890A      6.801987   891A      6.806023   892A      6.846934  
     893A      6.882638   894A      6.925578   895A      6.933879  
     896A      6.985993   897A      7.007390   898A      7.040253  
     899A      7.067450   900A      7.083868   901A      7.156986  
     902A      7.201964   903A      7.243973   904A      7.388413  
     905A      7.401720   906A      7.546489   907A     16.040304  
     908A     16.164450   909A     16.340239   910A     17.043964  
     911A     17.766132   912A     18.724967   913A     19.082355  
     914A     19.307149   915A     19.560740   916A     19.676664  
     917A     19.996981   918A     20.116993   919A     20.604591  
     920A     22.392944  

    Final Occupation by Irrep:
              A 
    DOCC [    49 ]

  @DF-RHF Final Energy:  -570.47222749804416

   => Energetics <=

    Nuclear Repulsion Energy =            819.5772364890614199
    One-Electron Energy =               -2399.2446074450808737
    Two-Electron Energy =                1009.1951434579754050
    Total Energy =                       -570.4722274980441625

Computation Completed

*** tstop() called on node142.bme.utexas.edu at Wed Feb  3 12:06:36 2021
Module time:
	user time   =    1317.47 seconds =      21.96 minutes
	system time =     111.13 seconds =       1.85 minutes
	total time  =        264 seconds =       4.40 minutes
Total time:
	user time   =    1317.47 seconds =      21.96 minutes
	system time =     111.13 seconds =       1.85 minutes
	total time  =        264 seconds =       4.40 minutes
   => Loading Basis Set <=

    Name: (AUG-CC-PVTZ AUX)
    Role: RIFIT
    Keyword: DF_BASIS_MP2
    atoms 1-2   entry N          line   206 file /home/xy3866/psi4conda/share/psi4/basis/aug-cc-pvtz-ri.gbs 
    atoms 3-14  entry C          line   148 file /home/xy3866/psi4conda/share/psi4/basis/aug-cc-pvtz-ri.gbs 
    atoms 15-26 entry H          line    30 file /home/xy3866/psi4conda/share/psi4/basis/aug-cc-pvtz-ri.gbs 


*** tstart() called on node142.bme.utexas.edu
*** at Wed Feb  3 12:06:36 2021


  //>>>>>>>>>>>>>>>>>>>>>>>>>>>>>>>>>>>//
  //               DFMP2               //
  //<<<<<<<<<<<<<<<<<<<<<<<<<<<<<<<<<<<//

	 --------------------------------------------------------
	                          DF-MP2                         
	      2nd-Order Density-Fitted Moller-Plesset Theory     
	              RMP2 Wavefunction,   8 Threads             
	                                                         
	        Rob Parrish, Justin Turney, Andy Simmonett,      
	           Ed Hohenstein, and C. David Sherrill          
	 --------------------------------------------------------

   => Auxiliary Basis Set <=

  Basis Set: (AUG-CC-PVTZ AUX)
    Blend: AUG-CC-PVTZ-RI
    Number of shells: 560
    Number of basis function: 2036
    Number of Cartesian functions: 2564
    Spherical Harmonics?: true
    Max angular momentum: 4

	 --------------------------------------------------------
	                 NBF =   920, NAUX =  2036
	 --------------------------------------------------------
	   CLASS    FOCC     OCC    AOCC    AVIR     VIR    FVIR
	   PAIRS       0      49      49     871     871       0
	 --------------------------------------------------------

  DFHelper Memory: AOs need 11.639 GiB; user supplied 22.352 GiB. Using in-core AOs.


         ------------------------------------------------------------
                                     CPHF                           
                                  Rob Parrish                       
         ------------------------------------------------------------

  ==> Geometry <==

    Molecular point group: c1
    Full point group: C1

    Geometry (in Angstrom), charge = 0, multiplicity = 1:

       Center              X                  Y                   Z               Mass       
    ------------   -----------------  -----------------  -----------------  -----------------
         N            0.052386839833     0.964289575354     0.300577919315    14.003074004430
         N            2.363338839833     0.966807575354     0.218998919315    14.003074004430
         C           -1.214538160167     0.353333575354     0.134644919315    12.000000000000
         C            1.281437239833     0.179806775354     0.061127819315    12.000000000000
         C            0.124777839833     2.422918575354     0.331369919315    12.000000000000
         C           -1.602291160167    -0.688643424646     0.990470919315    12.000000000000
         C           -2.105180160167     0.806140575354    -0.848624080685    12.000000000000
         C            1.234288839833    -1.112881424646    -0.273951080685    12.000000000000
         C           -2.855704160167    -1.282337424646     0.847078919315    12.000000000000
         C           -3.368391160167     0.224476575354    -0.969323080685    12.000000000000
         C           -3.745528160167    -0.825081424646    -0.129151080685    12.000000000000
         C            2.457312839833    -1.741622424646    -0.454212080685    12.000000000000
         C            3.533428839833     0.327850575354     0.038766919315    12.000000000000
         C            3.642677839833    -1.018522424646    -0.286945080685    12.000000000000
         H            0.875989839833     2.733406575354     1.057707919315     1.007825032230
         H           -0.855235160167     2.797496575354     0.630296919315     1.007825032230
         H            0.401091839833     2.847235575354    -0.642142080685     1.007825032230
         H           -0.918264160167    -1.011263424646     1.771868919315     1.007825032230
         H           -1.801702160167     1.605633575354    -1.520350080685     1.007825032230
         H            0.308236839833    -1.655458424646    -0.425896080685     1.007825032230
         H           -3.147852160167    -2.088576424646     1.515971919315     1.007825032230
         H           -4.054357160167     0.584517575354    -1.732604080685     1.007825032230
         H           -4.727219160167    -1.280709424646    -0.230542080685     1.007825032230
         H            2.484925839833    -2.792748424646    -0.733019080685     1.007825032230
         H            4.422208839833     0.945426575354     0.162429919315     1.007825032230
         H            4.615856839833    -1.480935424646    -0.419999080685     1.007825032230

  Nuclear repulsion =  819.577236489061420
  Reference energy  = -570.472227498044163

  ==> Basis Set <==

  Basis Set: AUG-CC-PVTZ
    Blend: AUG-CC-PVTZ
    Number of shells: 304
    Number of basis function: 920
    Number of Cartesian functions: 1070
    Spherical Harmonics?: true
    Max angular momentum: 3

  ==> CGRSolver (by Rob Parrish) <==

   Number of roots    =         1
   Preconditioning    =    JACOBI
   Convergence cutoff =     1E-06
   Maximum iterations =       100

  ==> CPHFRHamiltonian (by Rob Parrish) <== 

  ==> MemDFJK: Density-Fitted J/K Matrices <==

    J tasked:                   Yes
    K tasked:                   Yes
    wK tasked:                   No
    OpenMP threads:               8
    Memory [MiB]:             22888
    Algorithm:                 Disk
    Schwarz Cutoff:           1E-12
    Mask sparsity (%):      10.0624
    Fitting Condition:        1E-10

   => Auxiliary Basis Set <=

  Basis Set: (AUG-CC-PVTZ AUX)
    Blend: AUG-CC-PVTZ-JKFIT
    Number of shells: 588
    Number of basis function: 2008
    Number of Cartesian functions: 2494
    Spherical Harmonics?: true
    Max angular momentum: 4

  ==> CPHF Iterations <==

  => Iterations <=

             Iter  Converged  Remaining    Residual
  CGR           1          0          1   9.968E-02
  CGR           2          0          1   3.799E-02
  CGR           3          0          1   2.214E-02
  CGR           4          0          1   8.159E-03
  CGR           5          0          1   3.284E-03
  CGR           6          0          1   1.533E-03
  CGR           7          0          1   4.701E-04
  CGR           8          0          1   1.532E-04
  CGR           9          0          1   6.099E-05
  CGR          10          0          1   2.527E-05
  CGR          11          0          1   1.316E-05
  CGR          12          0          1   4.952E-06
  CGR          13          0          1   2.008E-06
  CGR          14          1          0   5.924E-07

    CGRSolver converged.

	-----------------------------------------------------------
	 ==================> DF-MP2 Energies <==================== 
	-----------------------------------------------------------
	 Reference Energy          =    -570.4722274980441625 [Eh]
	 Singles Energy            =      -0.0000000000000000 [Eh]
	 Same-Spin Energy          =      -0.6373277646790847 [Eh]
	 Opposite-Spin Energy      =      -1.9744474904117506 [Eh]
	 Correlation Energy        =      -2.6117752550908353 [Eh]
	 Total Energy              =    -573.0840027531349961 [Eh]
	-----------------------------------------------------------
	 ================> DF-SCS-MP2 Energies <================== 
	-----------------------------------------------------------
	 SCS Same-Spin Scale       =       0.3333333333333333 [-]
	 SCS Opposite-Spin Scale   =       1.2000000000000000 [-]
	 SCS Same-Spin Energy      =      -0.2124425882263616 [Eh]
	 SCS Opposite-Spin Energy  =      -2.3693369884941005 [Eh]
	 SCS Correlation Energy    =      -2.5817795767204621 [Eh]
	 SCS Total Energy          =    -573.0540070747646269 [Eh]
	-----------------------------------------------------------



Properties will be evaluated at  -0.000000,   0.000000,  -0.000000 [a0]

Properties computed using the MP2 density matrix

  Nuclear Dipole Moment: [e a0]
     X:    -2.2535      Y:     1.1231      Z:    -0.5324

  Electronic Dipole Moment: [e a0]
     X:     2.1395      Y:    -1.6060      Z:     0.3145

  Dipole Moment: [e a0]
     X:    -0.1140      Y:    -0.4829      Z:    -0.2178     Total:     0.5419

  Dipole Moment: [D]
     X:    -0.2898      Y:    -1.2274      Z:    -0.5537     Total:     1.3774


*** tstop() called on node142.bme.utexas.edu at Wed Feb  3 12:19:55 2021
Module time:
	user time   =    5127.99 seconds =      85.47 minutes
	system time =     160.62 seconds =       2.68 minutes
	total time  =        799 seconds =      13.32 minutes
Total time:
	user time   =    6445.77 seconds =     107.43 minutes
	system time =     271.75 seconds =       4.53 minutes
	total time  =       1063 seconds =      17.72 minutes

    Psi4 stopped on: Wednesday, 03 February 2021 12:19PM
    Psi4 wall time for execution: 0:17:43.54

*** Psi4 exiting successfully. Buy a developer a beer!
