
    -----------------------------------------------------------------------
          Psi4: An Open-Source Ab Initio Electronic Structure Package
                               Psi4 1.4a3.dev225 

                         Git: Rev {master} 7105e37 


    D. G. A. Smith, L. A. Burns, A. C. Simmonett, R. M. Parrish,
    M. C. Schieber, R. Galvelis, P. Kraus, H. Kruse, R. Di Remigio,
    A. Alenaizan, A. M. James, S. Lehtola, J. P. Misiewicz, M. Scheurer,
    R. A. Shaw, J. B. Schriber, Y. Xie, Z. L. Glick, D. A. Sirianni,
    J. S. O'Brien, J. M. Waldrop, A. Kumar, E. G. Hohenstein,
    B. P. Pritchard, B. R. Brooks, H. F. Schaefer III, A. Yu. Sokolov,
    K. Patkowski, A. E. DePrince III, U. Bozkaya, R. A. King,
    F. A. Evangelista, J. M. Turney, T. D. Crawford, C. D. Sherrill,
    J. Chem. Phys. 152(18) 184108 (2020). https://doi.org/10.1063/5.0006002

                            Additional Code Authors
    E. T. Seidl, C. L. Janssen, E. F. Valeev, M. L. Leininger,
    J. F. Gonthier, R. M. Richard, H. R. McAlexander, M. Saitow, X. Wang,
    P. Verma, and M. H. Lechner

             Previous Authors, Complete List of Code Contributors,
                       and Citations for Specific Modules
    https://github.com/psi4/psi4/blob/master/codemeta.json
    https://github.com/psi4/psi4/graphs/contributors
    http://psicode.org/psi4manual/master/introduction.html#citing-psifour

    -----------------------------------------------------------------------


    Psi4 started on: Sunday, 21 March 2021 06:19AM

    Process ID: 258716
    Host:       c445-114.stampede2.tacc.utexas.edu
    PSIDATADIR: /home1/07844/xy3866/miniconda3/envs/p4env/share/psi4
    Memory:     500.0 MiB
    Threads:    32
    
  ==> Input File <==

--------------------------------------------------------------------------
#psi4
#
memory 32 gb

molecule  {
0 1
  N        0.0678190     0.9536280     0.3022870
  N        2.3787710     0.9561460     0.2207080
  C       -1.1991060     0.3426720     0.1363540
  C        1.2604690     0.2340253     0.0787063
  C        0.1402100     2.4122570     0.3330790
  C       -1.5868590    -0.6993050     0.9921800
  C       -2.0897480     0.7954790    -0.8469150
  C        1.2497210    -1.1235430    -0.2722420
  C       -2.8402720    -1.2929990     0.8487880
  C       -3.3529590     0.2138150    -0.9676140
  C       -3.7300960    -0.8357430    -0.1274420
  C        2.4727450    -1.7522840    -0.4525030
  C        3.5488610     0.3171890     0.0404760
  C        3.6581100    -1.0291840    -0.2852360
  H        0.8914220     2.7227450     1.0594170
  H       -0.8398030     2.7868350     0.6320060
  H        0.4165240     2.8365740    -0.6404330
  H       -0.9028320    -1.0219250     1.7735780
  H       -1.7862700     1.5949720    -1.5186410
  H        0.3236690    -1.6661200    -0.4241870
  H       -3.1324200    -2.0992380     1.5176810
  H       -4.0389250     0.5738560    -1.7308950
  H       -4.7117870    -1.2913710    -0.2288330
  H        2.5003580    -2.8034100    -0.7313100
  H        4.4376410     0.9347650     0.1641390
  H        4.6312890    -1.4915970    -0.4182900
units angstrom
no_reorient  #important for SAPT in psi4, default
symmetry c1  #important for SAPT in psi4, default
}

set PROPERTIES_ORIGIN ["COM"]
properties('MP2/aug-cc-pvtz', properties = ['dipole'])
--------------------------------------------------------------------------

  Memory set to  29.802 GiB by Python driver.
    SCF Algorithm Type (re)set to DF.

*** tstart() called on c445-114.stampede2.tacc.utexas.edu
*** at Sun Mar 21 06:19:59 2021

   => Loading Basis Set <=

    Name: AUG-CC-PVTZ
    Role: ORBITAL
    Keyword: BASIS
    atoms 1-2   entry N          line   285 file /home1/07844/xy3866/miniconda3/envs/p4env/share/psi4/basis/aug-cc-pvtz.gbs 
    atoms 3-14  entry C          line   239 file /home1/07844/xy3866/miniconda3/envs/p4env/share/psi4/basis/aug-cc-pvtz.gbs 
    atoms 15-26 entry H          line    40 file /home1/07844/xy3866/miniconda3/envs/p4env/share/psi4/basis/aug-cc-pvtz.gbs 


         ---------------------------------------------------------
                                   SCF
               by Justin Turney, Rob Parrish, Andy Simmonett
                          and Daniel G. A. Smith
                              RHF Reference
                       32 Threads,  30517 MiB Core
         ---------------------------------------------------------

  ==> Geometry <==

    Molecular point group: c1
    Full point group: C1

    Geometry (in Angstrom), charge = 0, multiplicity = 1:

       Center              X                  Y                   Z               Mass       
    ------------   -----------------  -----------------  -----------------  -----------------
         N            0.054759488856     0.960060563972     0.299543520891    14.003074004430
         N            2.365711488856     0.962578563972     0.217964520891    14.003074004430
         C           -1.212165511144     0.349104563972     0.133610520891    12.000000000000
         C            1.247409488856     0.240457863972     0.075962820891    12.000000000000
         C            0.127150488856     2.418689563972     0.330335520891    12.000000000000
         C           -1.599918511144    -0.692872436028     0.989436520891    12.000000000000
         C           -2.102807511144     0.801911563972    -0.849658479109    12.000000000000
         C            1.236661488856    -1.117110436028    -0.274985479109    12.000000000000
         C           -2.853331511144    -1.286566436028     0.846044520891    12.000000000000
         C           -3.366018511144     0.220247563972    -0.970357479109    12.000000000000
         C           -3.743155511144    -0.829310436028    -0.130185479109    12.000000000000
         C            2.459685488856    -1.745851436028    -0.455246479109    12.000000000000
         C            3.535801488856     0.323621563972     0.037732520891    12.000000000000
         C            3.645050488856    -1.022751436028    -0.287979479109    12.000000000000
         H            0.878362488856     2.729177563972     1.056673520891     1.007825032230
         H           -0.852862511144     2.793267563972     0.629262520891     1.007825032230
         H            0.403464488856     2.843006563972    -0.643176479109     1.007825032230
         H           -0.915891511144    -1.015492436028     1.770834520891     1.007825032230
         H           -1.799329511144     1.601404563972    -1.521384479109     1.007825032230
         H            0.310609488856    -1.659687436028    -0.426930479109     1.007825032230
         H           -3.145479511144    -2.092805436028     1.514937520891     1.007825032230
         H           -4.051984511144     0.580288563972    -1.733638479109     1.007825032230
         H           -4.724846511144    -1.284938436028    -0.231576479109     1.007825032230
         H            2.487298488856    -2.796977436028    -0.734053479109     1.007825032230
         H            4.424581488856     0.941197563972     0.161395520891     1.007825032230
         H            4.618229488856    -1.485164436028    -0.421033479109     1.007825032230

  Running in c1 symmetry.

  Rotational constants: A =      0.05347  B =      0.01446  C =      0.01243 [cm^-1]
  Rotational constants: A =   1602.89149  B =    433.64437  C =    372.59467 [MHz]
  Nuclear repulsion =  819.708767499802093

  Charge       = 0
  Multiplicity = 1
  Electrons    = 98
  Nalpha       = 49
  Nbeta        = 49

  ==> Algorithm <==

  SCF Algorithm Type is DF.
  DIIS enabled.
  MOM disabled.
  Fractional occupation disabled.
  Guess Type is SAD.
  Energy threshold   = 1.00e-10
  Density threshold  = 1.00e-10
  Integral threshold = 1.00e-12

  ==> Primary Basis <==

  Basis Set: AUG-CC-PVTZ
    Blend: AUG-CC-PVTZ
    Number of shells: 304
    Number of basis functions: 920
    Number of Cartesian functions: 1070
    Spherical Harmonics?: true
    Max angular momentum: 3

   => Loading Basis Set <=

    Name: (AUG-CC-PVTZ AUX)
    Role: JKFIT
    Keyword: DF_BASIS_SCF
    atoms 1-2   entry N          line   224 file /home1/07844/xy3866/miniconda3/envs/p4env/share/psi4/basis/aug-cc-pvtz-jkfit.gbs 
    atoms 3-14  entry C          line   162 file /home1/07844/xy3866/miniconda3/envs/p4env/share/psi4/basis/aug-cc-pvtz-jkfit.gbs 
    atoms 15-26 entry H          line    70 file /home1/07844/xy3866/miniconda3/envs/p4env/share/psi4/basis/aug-cc-pvtz-jkfit.gbs 

  ==> Integral Setup <==

  DFHelper Memory: AOs need 11.056 GiB; user supplied 22.352 GiB. Using in-core AOs.

  ==> MemDFJK: Density-Fitted J/K Matrices <==

    J tasked:                   Yes
    K tasked:                   Yes
    wK tasked:                   No
    OpenMP threads:              32
    Memory [MiB]:             22888
    Algorithm:                 Core
    Schwarz Cutoff:           1E-12
    Mask sparsity (%):      15.8658
    Fitting Condition:        1E-10

   => Auxiliary Basis Set <=

  Basis Set: (AUG-CC-PVTZ AUX)
    Blend: AUG-CC-PVTZ-JKFIT
    Number of shells: 588
    Number of basis functions: 2008
    Number of Cartesian functions: 2494
    Spherical Harmonics?: true
    Max angular momentum: 4

  Minimum eigenvalue in the overlap matrix is 4.1404229695E-07.
  Reciprocal condition number of the overlap matrix is 1.8937588461E-08.
    Using symmetric orthogonalization.

  ==> Pre-Iterations <==

  SCF Guess: Superposition of Atomic Densities via on-the-fly atomic UHF (no occupation information).

   -------------------------
    Irrep   Nso     Nmo    
   -------------------------
     A        920     920 
   -------------------------
    Total     920     920
   -------------------------

  ==> Iterations <==

                           Total Energy        Delta E     RMS |[F,P]|

   @DF-RHF iter SAD:  -570.03695578162910   -5.70037e+02   0.00000e+00 
   @DF-RHF iter   1:  -570.12650682183528   -8.95510e-02   8.28244e-04 DIIS
   @DF-RHF iter   2:  -570.42658473449023   -3.00078e-01   3.58144e-04 DIIS
   @DF-RHF iter   3:  -570.47959237145960   -5.30076e-02   7.70133e-05 DIIS
   @DF-RHF iter   4:  -570.48339094775224   -3.79858e-03   2.94556e-05 DIIS
   @DF-RHF iter   5:  -570.48377005008342   -3.79102e-04   7.53912e-06 DIIS
   @DF-RHF iter   6:  -570.48381256130529   -4.25112e-05   2.94852e-06 DIIS
   @DF-RHF iter   7:  -570.48381966917316   -7.10787e-06   1.05009e-06 DIIS
   @DF-RHF iter   8:  -570.48382100412971   -1.33496e-06   4.10896e-07 DIIS
   @DF-RHF iter   9:  -570.48382126240585   -2.58276e-07   1.51842e-07 DIIS
   @DF-RHF iter  10:  -570.48382130088589   -3.84800e-08   7.42996e-08 DIIS
   @DF-RHF iter  11:  -570.48382131298558   -1.20997e-08   3.33409e-08 DIIS
   @DF-RHF iter  12:  -570.48382131543724   -2.45166e-09   1.63219e-08 DIIS
   @DF-RHF iter  13:  -570.48382131589040   -4.53156e-10   4.44650e-09 DIIS
   @DF-RHF iter  14:  -570.48382131591893   -2.85354e-11   1.62602e-09 DIIS
   @DF-RHF iter  15:  -570.48382131592450   -5.57066e-12   6.70704e-10 DIIS
   @DF-RHF iter  16:  -570.48382131592439    1.13687e-13   3.52605e-10 DIIS
   @DF-RHF iter  17:  -570.48382131592405    3.41061e-13   1.75392e-10 DIIS
   @DF-RHF iter  18:  -570.48382131592587   -1.81899e-12   6.87865e-11 DIIS
  Energy and wave function converged.


  ==> Post-Iterations <==

    Orbital Energies [Eh]
    ---------------------

    Doubly Occupied:                                                      

       1A    -15.576060     2A    -15.550733     3A    -11.316532  
       4A    -11.278740     5A    -11.273931     6A    -11.256472  
       7A    -11.248021     8A    -11.242726     9A    -11.242455  
      10A    -11.237879    11A    -11.237119    12A    -11.236523  
      13A    -11.228035    14A    -11.224802    15A     -1.292158  
      16A     -1.221273    17A     -1.142216    18A     -1.082023  
      19A     -1.028918    20A     -1.019484    21A     -1.004222  
      22A     -0.923938    23A     -0.860449    24A     -0.844348  
      25A     -0.832382    26A     -0.791728    27A     -0.728975  
      28A     -0.693286    29A     -0.669529    30A     -0.657269  
      31A     -0.646196    32A     -0.628959    33A     -0.615228  
      34A     -0.601986    35A     -0.590464    36A     -0.583070  
      37A     -0.568795    38A     -0.538123    39A     -0.537173  
      40A     -0.527783    41A     -0.509921    42A     -0.503954  
      43A     -0.499982    44A     -0.427246    45A     -0.417315  
      46A     -0.379006    47A     -0.343371    48A     -0.338888  
      49A     -0.289738  

    Virtual:                                                              

      50A      0.026011    51A      0.029659    52A      0.032666  
      53A      0.036646    54A      0.040492    55A      0.046458  
      56A      0.049030    57A      0.051288    58A      0.059587  
      59A      0.063578    60A      0.068931    61A      0.073404  
      62A      0.083860    63A      0.092125    64A      0.095682  
      65A      0.098188    66A      0.101293    67A      0.103460  
      68A      0.107842    69A      0.111345    70A      0.114591  
      71A      0.115637    72A      0.118667    73A      0.120053  
      74A      0.121675    75A      0.122278    76A      0.123822  
      77A      0.128870    78A      0.131714    79A      0.134879  
      80A      0.138481    81A      0.139640    82A      0.142002  
      83A      0.146351    84A      0.147547    85A      0.151379  
      86A      0.153766    87A      0.157541    88A      0.160410  
      89A      0.163922    90A      0.169709    91A      0.171208  
      92A      0.171786    93A      0.175355    94A      0.180295  
      95A      0.186543    96A      0.190526    97A      0.199893  
      98A      0.204132    99A      0.209487   100A      0.214013  
     101A      0.221700   102A      0.225647   103A      0.231897  
     104A      0.236860   105A      0.240214   106A      0.245144  
     107A      0.254190   108A      0.256002   109A      0.258488  
     110A      0.259534   111A      0.262626   112A      0.267516  
     113A      0.271853   114A      0.277013   115A      0.282210  
     116A      0.283533   117A      0.285854   118A      0.289773  
     119A      0.292847   120A      0.299437   121A      0.301865  
     122A      0.306348   123A      0.310320   124A      0.314218  
     125A      0.315051   126A      0.320135   127A      0.322539  
     128A      0.325317   129A      0.331125   130A      0.332721  
     131A      0.336285   132A      0.340008   133A      0.343757  
     134A      0.345023   135A      0.349457   136A      0.352211  
     137A      0.355710   138A      0.357417   139A      0.365812  
     140A      0.366971   141A      0.371828   142A      0.379658  
     143A      0.380781   144A      0.385492   145A      0.390106  
     146A      0.396064   147A      0.399434   148A      0.404967  
     149A      0.409865   150A      0.412041   151A      0.418801  
     152A      0.423317   153A      0.425872   154A      0.430000  
     155A      0.432746   156A      0.436759   157A      0.442587  
     158A      0.443594   159A      0.447621   160A      0.450556  
     161A      0.454541   162A      0.457118   163A      0.461411  
     164A      0.463740   165A      0.466281   166A      0.468105  
     167A      0.470646   168A      0.475874   169A      0.479563  
     170A      0.484796   171A      0.488074   172A      0.488864  
     173A      0.490035   174A      0.493908   175A      0.494797  
     176A      0.498479   177A      0.504596   178A      0.507564  
     179A      0.509727   180A      0.514037   181A      0.515479  
     182A      0.518111   183A      0.521125   184A      0.522427  
     185A      0.528525   186A      0.532249   187A      0.536784  
     188A      0.540072   189A      0.541434   190A      0.546050  
     191A      0.548906   192A      0.554012   193A      0.556593  
     194A      0.558097   195A      0.561346   196A      0.562510  
     197A      0.566691   198A      0.570223   199A      0.572393  
     200A      0.579733   201A      0.584856   202A      0.589380  
     203A      0.593046   204A      0.597370   205A      0.603036  
     206A      0.604501   207A      0.609952   208A      0.614182  
     209A      0.616124   210A      0.624061   211A      0.629042  
     212A      0.632302   213A      0.640107   214A      0.644373  
     215A      0.646411   216A      0.660418   217A      0.662858  
     218A      0.670623   219A      0.672863   220A      0.675138  
     221A      0.677992   222A      0.682469   223A      0.688406  
     224A      0.696747   225A      0.700927   226A      0.702861  
     227A      0.708506   228A      0.711306   229A      0.718928  
     230A      0.720621   231A      0.728172   232A      0.732455  
     233A      0.734100   234A      0.740517   235A      0.752278  
     236A      0.759652   237A      0.763389   238A      0.767498  
     239A      0.768532   240A      0.773016   241A      0.782305  
     242A      0.787830   243A      0.792272   244A      0.795564  
     245A      0.799250   246A      0.803117   247A      0.807264  
     248A      0.815662   249A      0.820093   250A      0.826862  
     251A      0.828512   252A      0.839500   253A      0.844039  
     254A      0.849900   255A      0.851943   256A      0.853807  
     257A      0.857528   258A      0.864636   259A      0.869551  
     260A      0.873891   261A      0.878736   262A      0.880390  
     263A      0.885147   264A      0.887771   265A      0.894410  
     266A      0.897330   267A      0.900964   268A      0.904932  
     269A      0.908852   270A      0.911016   271A      0.914896  
     272A      0.920424   273A      0.926131   274A      0.930431  
     275A      0.937223   276A      0.938790   277A      0.941718  
     278A      0.942960   279A      0.947810   280A      0.955126  
     281A      0.958825   282A      0.961430   283A      0.970816  
     284A      0.978701   285A      0.984099   286A      0.987669  
     287A      0.992166   288A      0.995365   289A      0.998980  
     290A      0.999759   291A      1.004636   292A      1.006737  
     293A      1.014611   294A      1.020625   295A      1.025334  
     296A      1.034202   297A      1.036468   298A      1.041546  
     299A      1.045026   300A      1.050455   301A      1.053966  
     302A      1.059719   303A      1.064351   304A      1.066627  
     305A      1.072589   306A      1.074648   307A      1.077586  
     308A      1.080318   309A      1.084576   310A      1.088304  
     311A      1.096378   312A      1.099391   313A      1.105286  
     314A      1.108625   315A      1.110695   316A      1.116970  
     317A      1.122161   318A      1.127208   319A      1.131231  
     320A      1.133665   321A      1.137229   322A      1.145733  
     323A      1.147164   324A      1.149512   325A      1.156965  
     326A      1.158142   327A      1.163815   328A      1.165829  
     329A      1.170936   330A      1.176832   331A      1.181311  
     332A      1.184620   333A      1.190062   334A      1.192969  
     335A      1.195031   336A      1.200566   337A      1.204496  
     338A      1.205016   339A      1.211752   340A      1.215705  
     341A      1.218085   342A      1.226531   343A      1.229015  
     344A      1.233440   345A      1.237759   346A      1.239415  
     347A      1.242022   348A      1.247448   349A      1.251867  
     350A      1.259922   351A      1.269849   352A      1.272881  
     353A      1.275555   354A      1.281890   355A      1.284114  
     356A      1.288656   357A      1.293092   358A      1.296884  
     359A      1.303261   360A      1.310468   361A      1.316579  
     362A      1.322995   363A      1.329467   364A      1.342871  
     365A      1.347265   366A      1.349061   367A      1.360650  
     368A      1.362336   369A      1.371675   370A      1.379502  
     371A      1.380627   372A      1.386525   373A      1.394389  
     374A      1.400334   375A      1.405755   376A      1.411527  
     377A      1.418463   378A      1.420911   379A      1.426730  
     380A      1.431819   381A      1.438879   382A      1.442755  
     383A      1.455010   384A      1.457531   385A      1.459080  
     386A      1.464920   387A      1.470083   388A      1.475639  
     389A      1.484937   390A      1.492325   391A      1.500402  
     392A      1.514803   393A      1.518538   394A      1.523094  
     395A      1.529472   396A      1.533919   397A      1.537833  
     398A      1.547334   399A      1.550917   400A      1.555201  
     401A      1.562176   402A      1.572753   403A      1.574654  
     404A      1.579573   405A      1.593131   406A      1.595597  
     407A      1.598294   408A      1.607442   409A      1.615206  
     410A      1.622758   411A      1.628605   412A      1.639217  
     413A      1.641742   414A      1.646672   415A      1.651207  
     416A      1.660771   417A      1.670102   418A      1.676529  
     419A      1.679474   420A      1.686103   421A      1.688007  
     422A      1.695297   423A      1.704935   424A      1.712915  
     425A      1.716739   426A      1.728346   427A      1.738172  
     428A      1.740533   429A      1.745900   430A      1.747705  
     431A      1.757164   432A      1.761958   433A      1.769094  
     434A      1.774896   435A      1.778972   436A      1.788166  
     437A      1.793875   438A      1.797104   439A      1.800991  
     440A      1.811734   441A      1.819030   442A      1.828873  
     443A      1.832354   444A      1.838210   445A      1.843491  
     446A      1.849052   447A      1.857606   448A      1.860905  
     449A      1.867241   450A      1.873245   451A      1.878736  
     452A      1.883146   453A      1.890985   454A      1.894897  
     455A      1.902620   456A      1.905351   457A      1.910087  
     458A      1.925474   459A      1.932145   460A      1.935835  
     461A      1.939776   462A      1.957421   463A      1.959569  
     464A      1.967281   465A      1.977303   466A      1.980110  
     467A      1.984213   468A      1.993200   469A      2.000874  
     470A      2.003818   471A      2.007466   472A      2.012048  
     473A      2.019101   474A      2.025746   475A      2.037792  
     476A      2.047938   477A      2.053640   478A      2.055035  
     479A      2.055730   480A      2.063490   481A      2.069636  
     482A      2.076711   483A      2.083238   484A      2.088974  
     485A      2.096461   486A      2.106371   487A      2.112190  
     488A      2.117885   489A      2.124556   490A      2.132633  
     491A      2.140335   492A      2.149909   493A      2.156706  
     494A      2.165167   495A      2.169678   496A      2.175773  
     497A      2.185830   498A      2.189987   499A      2.194832  
     500A      2.208104   501A      2.215347   502A      2.221134  
     503A      2.227069   504A      2.228974   505A      2.237442  
     506A      2.246944   507A      2.255947   508A      2.261962  
     509A      2.270870   510A      2.277462   511A      2.286184  
     512A      2.297581   513A      2.300257   514A      2.316376  
     515A      2.318636   516A      2.329053   517A      2.333577  
     518A      2.341984   519A      2.346646   520A      2.359228  
     521A      2.365424   522A      2.370286   523A      2.373888  
     524A      2.388698   525A      2.400674   526A      2.405986  
     527A      2.416698   528A      2.421760   529A      2.437274  
     530A      2.448580   531A      2.456836   532A      2.466335  
     533A      2.478531   534A      2.485368   535A      2.497812  
     536A      2.500628   537A      2.512959   538A      2.522609  
     539A      2.530238   540A      2.539547   541A      2.553788  
     542A      2.565770   543A      2.575007   544A      2.586686  
     545A      2.593090   546A      2.604979   547A      2.621099  
     548A      2.635693   549A      2.645907   550A      2.654406  
     551A      2.662833   552A      2.670632   553A      2.693498  
     554A      2.699827   555A      2.710565   556A      2.735825  
     557A      2.744350   558A      2.766951   559A      2.782148  
     560A      2.797896   561A      2.798010   562A      2.816787  
     563A      2.823875   564A      2.838216   565A      2.846401  
     566A      2.869918   567A      2.874283   568A      2.879092  
     569A      2.900243   570A      2.922855   571A      2.943671  
     572A      2.946737   573A      2.993049   574A      3.002641  
     575A      3.016916   576A      3.065881   577A      3.070822  
     578A      3.094071   579A      3.100918   580A      3.118749  
     581A      3.147886   582A      3.160984   583A      3.182986  
     584A      3.192627   585A      3.216985   586A      3.225321  
     587A      3.243838   588A      3.257160   589A      3.269430  
     590A      3.280282   591A      3.289568   592A      3.305861  
     593A      3.323093   594A      3.343678   595A      3.349896  
     596A      3.364341   597A      3.371408   598A      3.383203  
     599A      3.395845   600A      3.396913   601A      3.416206  
     602A      3.418571   603A      3.427408   604A      3.438186  
     605A      3.448668   606A      3.456593   607A      3.461103  
     608A      3.468994   609A      3.482515   610A      3.489447  
     611A      3.503047   612A      3.505313   613A      3.511491  
     614A      3.514869   615A      3.526726   616A      3.531856  
     617A      3.543319   618A      3.543720   619A      3.559048  
     620A      3.561828   621A      3.573319   622A      3.580309  
     623A      3.588884   624A      3.596396   625A      3.597885  
     626A      3.613159   627A      3.617708   628A      3.631322  
     629A      3.633235   630A      3.638099   631A      3.648323  
     632A      3.657664   633A      3.665917   634A      3.667592  
     635A      3.679299   636A      3.681650   637A      3.692628  
     638A      3.697840   639A      3.708994   640A      3.721628  
     641A      3.728975   642A      3.735063   643A      3.741256  
     644A      3.761312   645A      3.764317   646A      3.770802  
     647A      3.782315   648A      3.793685   649A      3.800540  
     650A      3.817643   651A      3.822514   652A      3.825218  
     653A      3.834348   654A      3.842760   655A      3.847271  
     656A      3.852695   657A      3.864460   658A      3.871101  
     659A      3.885656   660A      3.887302   661A      3.893942  
     662A      3.900661   663A      3.908162   664A      3.917986  
     665A      3.928367   666A      3.932890   667A      3.940297  
     668A      3.949608   669A      3.951966   670A      3.954877  
     671A      3.959514   672A      3.972801   673A      3.974371  
     674A      3.975095   675A      3.980238   676A      3.986358  
     677A      4.002152   678A      4.010817   679A      4.017331  
     680A      4.022754   681A      4.029702   682A      4.033148  
     683A      4.041772   684A      4.050320   685A      4.054942  
     686A      4.070788   687A      4.073251   688A      4.083837  
     689A      4.090345   690A      4.110776   691A      4.113350  
     692A      4.123929   693A      4.133623   694A      4.139337  
     695A      4.153335   696A      4.158228   697A      4.165295  
     698A      4.171488   699A      4.181677   700A      4.187722  
     701A      4.194672   702A      4.205950   703A      4.211758  
     704A      4.216266   705A      4.226168   706A      4.234639  
     707A      4.240240   708A      4.250409   709A      4.253707  
     710A      4.271190   711A      4.276041   712A      4.285044  
     713A      4.291507   714A      4.300551   715A      4.308048  
     716A      4.310544   717A      4.315306   718A      4.325080  
     719A      4.340936   720A      4.343954   721A      4.354815  
     722A      4.361022   723A      4.374766   724A      4.378666  
     725A      4.382327   726A      4.394854   727A      4.397385  
     728A      4.403246   729A      4.411819   730A      4.419048  
     731A      4.427467   732A      4.433528   733A      4.438174  
     734A      4.450276   735A      4.457747   736A      4.469787  
     737A      4.473317   738A      4.486836   739A      4.495204  
     740A      4.497743   741A      4.526066   742A      4.530527  
     743A      4.533977   744A      4.546326   745A      4.554129  
     746A      4.558614   747A      4.563640   748A      4.577365  
     749A      4.587001   750A      4.589664   751A      4.602704  
     752A      4.620590   753A      4.635679   754A      4.656692  
     755A      4.673108   756A      4.680037   757A      4.693656  
     758A      4.704002   759A      4.724372   760A      4.734057  
     761A      4.738768   762A      4.744420   763A      4.762012  
     764A      4.777004   765A      4.782000   766A      4.790153  
     767A      4.807964   768A      4.812391   769A      4.826024  
     770A      4.839573   771A      4.842082   772A      4.865746  
     773A      4.874261   774A      4.897781   775A      4.906865  
     776A      4.925733   777A      4.933587   778A      4.944895  
     779A      4.947178   780A      4.953450   781A      4.960871  
     782A      4.964072   783A      4.975700   784A      4.988887  
     785A      4.993884   786A      5.017369   787A      5.028194  
     788A      5.031720   789A      5.035261   790A      5.043060  
     791A      5.059084   792A      5.075707   793A      5.089690  
     794A      5.098480   795A      5.102750   796A      5.117634  
     797A      5.124650   798A      5.131303   799A      5.132887  
     800A      5.140630   801A      5.151002   802A      5.160322  
     803A      5.171259   804A      5.183356   805A      5.189144  
     806A      5.195963   807A      5.203504   808A      5.211225  
     809A      5.224293   810A      5.228385   811A      5.231986  
     812A      5.257943   813A      5.261219   814A      5.270019  
     815A      5.281674   816A      5.305370   817A      5.315842  
     818A      5.323949   819A      5.332392   820A      5.344367  
     821A      5.356749   822A      5.371478   823A      5.388183  
     824A      5.395427   825A      5.400717   826A      5.405329  
     827A      5.430808   828A      5.437241   829A      5.456420  
     830A      5.482509   831A      5.496873   832A      5.516473  
     833A      5.533717   834A      5.553829   835A      5.576394  
     836A      5.596458   837A      5.610032   838A      5.613193  
     839A      5.633492   840A      5.646065   841A      5.654977  
     842A      5.677138   843A      5.693644   844A      5.710779  
     845A      5.736955   846A      5.746426   847A      5.759483  
     848A      5.768093   849A      5.781126   850A      5.824361  
     851A      5.836636   852A      5.855336   853A      5.860802  
     854A      5.878526   855A      5.895013   856A      5.907028  
     857A      5.916434   858A      5.931025   859A      5.965671  
     860A      5.969391   861A      5.998128   862A      6.048201  
     863A      6.077313   864A      6.108090   865A      6.121125  
     866A      6.163816   867A      6.187942   868A      6.213853  
     869A      6.237389   870A      6.241133   871A      6.258540  
     872A      6.272555   873A      6.284501   874A      6.303066  
     875A      6.313907   876A      6.325458   877A      6.351610  
     878A      6.381054   879A      6.397716   880A      6.443595  
     881A      6.466823   882A      6.478119   883A      6.543067  
     884A      6.577783   885A      6.610056   886A      6.663167  
     887A      6.724046   888A      6.743343   889A      6.767986  
     890A      6.794472   891A      6.842427   892A      6.856944  
     893A      6.880006   894A      6.925596   895A      6.941094  
     896A      6.993353   897A      7.017460   898A      7.031412  
     899A      7.071766   900A      7.085005   901A      7.169639  
     902A      7.218397   903A      7.234301   904A      7.385767  
     905A      7.401924   906A      7.548665   907A     16.004012  
     908A     16.161340   909A     16.255208   910A     16.769228  
     911A     17.780608   912A     18.588680   913A     19.085644  
     914A     19.276429   915A     19.614437   916A     19.670405  
     917A     20.038367   918A     20.127267   919A     20.567790  
     920A     22.686582  

    Final Occupation by Irrep:
              A 
    DOCC [    49 ]

  @DF-RHF Final Energy:  -570.48382131592587

   => Energetics <=

    Nuclear Repulsion Energy =            819.7087674998020930
    One-Electron Energy =               -2399.4063252413930059
    Two-Electron Energy =                1009.2137364256651608
    Total Energy =                       -570.4838213159258657

Computation Completed

*** tstop() called on c445-114.stampede2.tacc.utexas.edu at Sun Mar 21 06:21:18 2021
Module time:
	user time   =    1630.98 seconds =      27.18 minutes
	system time =      73.51 seconds =       1.23 minutes
	total time  =         79 seconds =       1.32 minutes
Total time:
	user time   =    1630.98 seconds =      27.18 minutes
	system time =      73.51 seconds =       1.23 minutes
	total time  =         79 seconds =       1.32 minutes
   => Loading Basis Set <=

    Name: (AUG-CC-PVTZ AUX)
    Role: RIFIT
    Keyword: DF_BASIS_MP2
    atoms 1-2   entry N          line   206 file /home1/07844/xy3866/miniconda3/envs/p4env/share/psi4/basis/aug-cc-pvtz-ri.gbs 
    atoms 3-14  entry C          line   148 file /home1/07844/xy3866/miniconda3/envs/p4env/share/psi4/basis/aug-cc-pvtz-ri.gbs 
    atoms 15-26 entry H          line    30 file /home1/07844/xy3866/miniconda3/envs/p4env/share/psi4/basis/aug-cc-pvtz-ri.gbs 


*** tstart() called on c445-114.stampede2.tacc.utexas.edu
*** at Sun Mar 21 06:21:19 2021


  //>>>>>>>>>>>>>>>>>>>>>>>>>>>>>>>>>>>//
  //               DFMP2               //
  //<<<<<<<<<<<<<<<<<<<<<<<<<<<<<<<<<<<//

	 --------------------------------------------------------
	                          DF-MP2                         
	      2nd-Order Density-Fitted Moller-Plesset Theory     
	              RMP2 Wavefunction,  32 Threads             
	                                                         
	        Rob Parrish, Justin Turney, Andy Simmonett,      
	           Ed Hohenstein, and C. David Sherrill          
	 --------------------------------------------------------

   => Auxiliary Basis Set <=

  Basis Set: (AUG-CC-PVTZ AUX)
    Blend: AUG-CC-PVTZ-RI
    Number of shells: 560
    Number of basis functions: 2036
    Number of Cartesian functions: 2564
    Spherical Harmonics?: true
    Max angular momentum: 4

	 --------------------------------------------------------
	                 NBF =   920, NAUX =  2036
	 --------------------------------------------------------
	   CLASS    FOCC     OCC    AOCC    AVIR     VIR    FVIR
	   PAIRS       0      49      49     871     871       0
	 --------------------------------------------------------

  DFHelper Memory: AOs need 11.792 GiB; user supplied 22.352 GiB. Using in-core AOs.


         ------------------------------------------------------------
                                     CPHF                           
                                  Rob Parrish                       
         ------------------------------------------------------------

  ==> Geometry <==

    Molecular point group: c1
    Full point group: C1

    Geometry (in Angstrom), charge = 0, multiplicity = 1:

       Center              X                  Y                   Z               Mass       
    ------------   -----------------  -----------------  -----------------  -----------------
         N            0.054759488856     0.960060563972     0.299543520891    14.003074004430
         N            2.365711488856     0.962578563972     0.217964520891    14.003074004430
         C           -1.212165511144     0.349104563972     0.133610520891    12.000000000000
         C            1.247409488856     0.240457863972     0.075962820891    12.000000000000
         C            0.127150488856     2.418689563972     0.330335520891    12.000000000000
         C           -1.599918511144    -0.692872436028     0.989436520891    12.000000000000
         C           -2.102807511144     0.801911563972    -0.849658479109    12.000000000000
         C            1.236661488856    -1.117110436028    -0.274985479109    12.000000000000
         C           -2.853331511144    -1.286566436028     0.846044520891    12.000000000000
         C           -3.366018511144     0.220247563972    -0.970357479109    12.000000000000
         C           -3.743155511144    -0.829310436028    -0.130185479109    12.000000000000
         C            2.459685488856    -1.745851436028    -0.455246479109    12.000000000000
         C            3.535801488856     0.323621563972     0.037732520891    12.000000000000
         C            3.645050488856    -1.022751436028    -0.287979479109    12.000000000000
         H            0.878362488856     2.729177563972     1.056673520891     1.007825032230
         H           -0.852862511144     2.793267563972     0.629262520891     1.007825032230
         H            0.403464488856     2.843006563972    -0.643176479109     1.007825032230
         H           -0.915891511144    -1.015492436028     1.770834520891     1.007825032230
         H           -1.799329511144     1.601404563972    -1.521384479109     1.007825032230
         H            0.310609488856    -1.659687436028    -0.426930479109     1.007825032230
         H           -3.145479511144    -2.092805436028     1.514937520891     1.007825032230
         H           -4.051984511144     0.580288563972    -1.733638479109     1.007825032230
         H           -4.724846511144    -1.284938436028    -0.231576479109     1.007825032230
         H            2.487298488856    -2.796977436028    -0.734053479109     1.007825032230
         H            4.424581488856     0.941197563972     0.161395520891     1.007825032230
         H            4.618229488856    -1.485164436028    -0.421033479109     1.007825032230

  Nuclear repulsion =  819.708767499802093
  Reference energy  = -570.483821315925866

  ==> Basis Set <==

  Basis Set: AUG-CC-PVTZ
    Blend: AUG-CC-PVTZ
    Number of shells: 304
    Number of basis functions: 920
    Number of Cartesian functions: 1070
    Spherical Harmonics?: true
    Max angular momentum: 3

  ==> CGRSolver (by Rob Parrish) <==

   Number of roots    =         1
   Preconditioning    =    JACOBI
   Convergence cutoff =     1E-06
   Maximum iterations =       100

  ==> CPHFRHamiltonian (by Rob Parrish) <== 

  ==> MemDFJK: Density-Fitted J/K Matrices <==

    J tasked:                   Yes
    K tasked:                   Yes
    wK tasked:                   No
    OpenMP threads:              32
    Memory [MiB]:             22888
    Algorithm:                 Core
    Schwarz Cutoff:           1E-12
    Mask sparsity (%):      10.0555
    Fitting Condition:        1E-10

   => Auxiliary Basis Set <=

  Basis Set: (AUG-CC-PVTZ AUX)
    Blend: AUG-CC-PVTZ-JKFIT
    Number of shells: 588
    Number of basis functions: 2008
    Number of Cartesian functions: 2494
    Spherical Harmonics?: true
    Max angular momentum: 4

  ==> CPHF Iterations <==

  => Iterations <=

             Iter  Converged  Remaining    Residual
  CGR           1          0          1   9.827E-02
  CGR           2          0          1   3.747E-02
  CGR           3          0          1   2.185E-02
  CGR           4          0          1   8.096E-03
  CGR           5          0          1   3.280E-03
  CGR           6          0          1   1.476E-03
  CGR           7          0          1   4.379E-04
  CGR           8          0          1   1.252E-04
  CGR           9          0          1   5.047E-05
  CGR          10          0          1   2.225E-05
  CGR          11          0          1   1.204E-05
  CGR          12          0          1   5.082E-06
  CGR          13          0          1   2.136E-06
  CGR          14          1          0   6.432E-07

    CGRSolver converged.

	-----------------------------------------------------------
	 ==================> DF-MP2 Energies <==================== 
	-----------------------------------------------------------
	 Reference Energy          =    -570.4838213159258657 [Eh]
	 Singles Energy            =      -0.0000000000000000 [Eh]
	 Same-Spin Energy          =      -0.6370435360573657 [Eh]
	 Opposite-Spin Energy      =      -1.9737960640544969 [Eh]
	 Correlation Energy        =      -2.6108396001118628 [Eh]
	 Total Energy              =    -573.0946609160376966 [Eh]
	-----------------------------------------------------------
	 ================> DF-SCS-MP2 Energies <================== 
	-----------------------------------------------------------
	 SCS Same-Spin Scale       =       0.3333333333333333 [-]
	 SCS Opposite-Spin Scale   =       1.2000000000000000 [-]
	 SCS Same-Spin Energy      =      -0.2123478453524552 [Eh]
	 SCS Opposite-Spin Energy  =      -2.3685552768653961 [Eh]
	 SCS Correlation Energy    =      -2.5809031222178516 [Eh]
	 SCS Total Energy          =    -573.0647244381436849 [Eh]
	-----------------------------------------------------------



Properties will be evaluated at  -0.000000,   0.000000,   0.000000 [a0]

Properties computed using the MP2 density matrix

  Nuclear Dipole Moment: [e a0]
     X:    -2.2268      Y:     1.0756      Z:    -0.5440

  Electronic Dipole Moment: [e a0]
     X:     1.8376      Y:    -1.4600      Z:     0.3609

  Dipole Moment: [e a0]
     X:    -0.3892      Y:    -0.3844      Z:    -0.1831     Total:     0.5768

  Dipole Moment: [D]
     X:    -0.9892      Y:    -0.9770      Z:    -0.4654     Total:     1.4662


*** tstop() called on c445-114.stampede2.tacc.utexas.edu at Sun Mar 21 06:29:36 2021
Module time:
	user time   =    5541.40 seconds =      92.36 minutes
	system time =     125.26 seconds =       2.09 minutes
	total time  =        497 seconds =       8.28 minutes
Total time:
	user time   =    7173.68 seconds =     119.56 minutes
	system time =     198.79 seconds =       3.31 minutes
	total time  =        577 seconds =       9.62 minutes

    Psi4 stopped on: Sunday, 21 March 2021 06:29AM
    Psi4 wall time for execution: 0:09:38.86

*** Psi4 exiting successfully. Buy a developer a beer!
