opt=Tight                                                               
Freq      RMP2-FC                                                     6-31G(d)            
Number of atoms                            I               15
Info1-9                                    I   N=           9
          24          24        1002           0           0         100
           6           2           1
Charge                                     I                1
Multiplicity                               I                1
Number of electrons                        I               50
Number of alpha electrons                  I               25
Number of beta electrons                   I               25
Number of basis functions                  I              121
Number of independent functions            I              121
Number of point charges in /Mol/           I                0
Number of translation vectors              I                0
Atomic numbers                             I   N=          15
           7           6           6           6           6           6
           6           1           1           1           1           1
           1           1           1
Nuclear charges                            R   N=          15
  7.00000000E+00  6.00000000E+00  6.00000000E+00  6.00000000E+00  6.00000000E+00
  6.00000000E+00  6.00000000E+00  1.00000000E+00  1.00000000E+00  1.00000000E+00
  1.00000000E+00  1.00000000E+00  1.00000000E+00  1.00000000E+00  1.00000000E+00
Current cartesian coordinates              R   N=          45
  4.36775353E+00  2.21598088E-07  1.18435602E-02  1.57720805E+00  2.21473084E-07
 -2.18735740E-02  3.23256937E-01  2.30928871E+00 -6.21754189E-03  3.23257357E-01
 -2.30928858E+00 -6.22144225E-03 -2.31503178E+00  2.28896395E+00  2.14952385E-03
 -2.31503132E+00 -2.28896431E+00  2.14553453E-03 -3.63058199E+00 -2.92558621E-07
  9.26860775E-03  1.36107566E+00  4.08172024E+00 -1.33383316E-02  1.36107652E+00
 -4.08171986E+00 -1.33452313E-02  5.10178641E+00 -1.56035804E+00 -8.85456371E-01
  5.10178616E+00  1.56036682E+00 -8.85442014E-01  5.07553260E+00 -7.81673445E-06
  1.82295789E+00 -3.33535701E+00  4.06957870E+00  2.62881070E-03 -3.33535626E+00
 -4.06957923E+00  2.62161652E-03 -5.68328228E+00 -4.93425617E-07  1.09620614E-02
Force Field                                I                0
Int Atom Types                             I   N=          15
           0           0           0           0           0           0
           0           0           0           0           0           0
           0           0           0
MM charges                                 R   N=          15
  0.00000000E+00  0.00000000E+00  0.00000000E+00  0.00000000E+00  0.00000000E+00
  0.00000000E+00  0.00000000E+00  0.00000000E+00  0.00000000E+00  0.00000000E+00
  0.00000000E+00  0.00000000E+00  0.00000000E+00  0.00000000E+00  0.00000000E+00
Integer atomic weights                     I   N=          15
          14          12          12          12          12          12
          12           1           1           1           1           1
           1           1           1
Real atomic weights                        R   N=          15
  1.40030740E+01  1.20000000E+01  1.20000000E+01  1.20000000E+01  1.20000000E+01
  1.20000000E+01  1.20000000E+01  1.00782504E+00  1.00782504E+00  1.00782504E+00
  1.00782504E+00  1.00782504E+00  1.00782504E+00  1.00782504E+00  1.00782504E+00
Atom fragment info                         I   N=          15
           0           0           0           0           0           0
           0           0           0           0           0           0
           0           0           0
Atom residue num                           I   N=          15
           0           0           0           0           0           0
           0           0           0           0           0           0
           0           0           0
Nuclear spins                              I   N=          15
           2           0           0           0           0           0
           0           1           1           1           1           1
           1           1           1
Nuclear ZEff                               R   N=          15
 -4.55000000E+00 -3.60000000E+00 -3.60000000E+00 -3.60000000E+00 -3.60000000E+00
 -3.60000000E+00 -3.60000000E+00 -1.00000000E+00 -1.00000000E+00 -1.00000000E+00
 -1.00000000E+00 -1.00000000E+00 -1.00000000E+00 -1.00000000E+00 -1.00000000E+00
Nuclear QMom                               R   N=          15
  2.04400000E+00  0.00000000E+00  0.00000000E+00  0.00000000E+00  0.00000000E+00
  0.00000000E+00  0.00000000E+00  0.00000000E+00  0.00000000E+00  0.00000000E+00
  0.00000000E+00  0.00000000E+00  0.00000000E+00  0.00000000E+00  0.00000000E+00
Nuclear GFac                               R   N=          15
  4.03761000E-01  0.00000000E+00  0.00000000E+00  0.00000000E+00  0.00000000E+00
  0.00000000E+00  0.00000000E+00  2.79284600E+00  2.79284600E+00  2.79284600E+00
  2.79284600E+00  2.79284600E+00  2.79284600E+00  2.79284600E+00  2.79284600E+00
MicOpt                                     I   N=          15
          -1          -1          -1          -1          -1          -1
          -1          -1          -1          -1          -1          -1
          -1          -1          -1
Number of contracted shells                I               44
Number of primitive shells                 I              109
Pure/Cartesian d shells                    I                1
Pure/Cartesian f shells                    I                0
Highest angular momentum                   I                2
Largest degree of contraction              I                6
Shell types                                I   N=          44
           0          -1          -1           2           0          -1
          -1           2           0          -1          -1           2
           0          -1          -1           2           0          -1
          -1           2           0          -1          -1           2
           0          -1          -1           2           0           0
           0           0           0           0           0           0
           0           0           0           0           0           0
           0           0
Number of primitives per shell             I   N=          44
           6           3           1           1           6           3
           1           1           6           3           1           1
           6           3           1           1           6           3
           1           1           6           3           1           1
           6           3           1           1           3           1
           3           1           3           1           3           1
           3           1           3           1           3           1
           3           1
Shell to atom map                          I   N=          44
           1           1           1           1           2           2
           2           2           3           3           3           3
           4           4           4           4           5           5
           5           5           6           6           6           6
           7           7           7           7           8           8
           9           9          10          10          11          11
          12          12          13          13          14          14
          15          15
Primitive exponents                        R   N=         109
  4.17351146E+03  6.27457911E+02  1.42902093E+02  4.02343293E+01  1.28202129E+01
  4.39043701E+00  1.16263619E+01  2.71627981E+00  7.72218397E-01  2.12031498E-01
  8.00000000E-01  3.04752488E+03  4.57369518E+02  1.03948685E+02  2.92101553E+01
  9.28666296E+00  3.16392696E+00  7.86827235E+00  1.88128854E+00  5.44249258E-01
  1.68714478E-01  8.00000000E-01  3.04752488E+03  4.57369518E+02  1.03948685E+02
  2.92101553E+01  9.28666296E+00  3.16392696E+00  7.86827235E+00  1.88128854E+00
  5.44249258E-01  1.68714478E-01  8.00000000E-01  3.04752488E+03  4.57369518E+02
  1.03948685E+02  2.92101553E+01  9.28666296E+00  3.16392696E+00  7.86827235E+00
  1.88128854E+00  5.44249258E-01  1.68714478E-01  8.00000000E-01  3.04752488E+03
  4.57369518E+02  1.03948685E+02  2.92101553E+01  9.28666296E+00  3.16392696E+00
  7.86827235E+00  1.88128854E+00  5.44249258E-01  1.68714478E-01  8.00000000E-01
  3.04752488E+03  4.57369518E+02  1.03948685E+02  2.92101553E+01  9.28666296E+00
  3.16392696E+00  7.86827235E+00  1.88128854E+00  5.44249258E-01  1.68714478E-01
  8.00000000E-01  3.04752488E+03  4.57369518E+02  1.03948685E+02  2.92101553E+01
  9.28666296E+00  3.16392696E+00  7.86827235E+00  1.88128854E+00  5.44249258E-01
  1.68714478E-01  8.00000000E-01  1.87311370E+01  2.82539436E+00  6.40121692E-01
  1.61277759E-01  1.87311370E+01  2.82539436E+00  6.40121692E-01  1.61277759E-01
  1.87311370E+01  2.82539436E+00  6.40121692E-01  1.61277759E-01  1.87311370E+01
  2.82539436E+00  6.40121692E-01  1.61277759E-01  1.87311370E+01  2.82539436E+00
  6.40121692E-01  1.61277759E-01  1.87311370E+01  2.82539436E+00  6.40121692E-01
  1.61277759E-01  1.87311370E+01  2.82539436E+00  6.40121692E-01  1.61277759E-01
  1.87311370E+01  2.82539436E+00  6.40121692E-01  1.61277759E-01
Contraction coefficients                   R   N=         109
  1.83477216E-03  1.39946270E-02  6.85865518E-02  2.32240873E-01  4.69069948E-01
  3.60455199E-01 -1.14961182E-01 -1.69117479E-01  1.14585195E+00  1.00000000E+00
  1.00000000E+00  1.83473713E-03  1.40373228E-02  6.88426223E-02  2.32184443E-01
  4.67941348E-01  3.62311985E-01 -1.19332420E-01 -1.60854152E-01  1.14345644E+00
  1.00000000E+00  1.00000000E+00  1.83473713E-03  1.40373228E-02  6.88426223E-02
  2.32184443E-01  4.67941348E-01  3.62311985E-01 -1.19332420E-01 -1.60854152E-01
  1.14345644E+00  1.00000000E+00  1.00000000E+00  1.83473713E-03  1.40373228E-02
  6.88426223E-02  2.32184443E-01  4.67941348E-01  3.62311985E-01 -1.19332420E-01
 -1.60854152E-01  1.14345644E+00  1.00000000E+00  1.00000000E+00  1.83473713E-03
  1.40373228E-02  6.88426223E-02  2.32184443E-01  4.67941348E-01  3.62311985E-01
 -1.19332420E-01 -1.60854152E-01  1.14345644E+00  1.00000000E+00  1.00000000E+00
  1.83473713E-03  1.40373228E-02  6.88426223E-02  2.32184443E-01  4.67941348E-01
  3.62311985E-01 -1.19332420E-01 -1.60854152E-01  1.14345644E+00  1.00000000E+00
  1.00000000E+00  1.83473713E-03  1.40373228E-02  6.88426223E-02  2.32184443E-01
  4.67941348E-01  3.62311985E-01 -1.19332420E-01 -1.60854152E-01  1.14345644E+00
  1.00000000E+00  1.00000000E+00  3.34946043E-02  2.34726953E-01  8.13757326E-01
  1.00000000E+00  3.34946043E-02  2.34726953E-01  8.13757326E-01  1.00000000E+00
  3.34946043E-02  2.34726953E-01  8.13757326E-01  1.00000000E+00  3.34946043E-02
  2.34726953E-01  8.13757326E-01  1.00000000E+00  3.34946043E-02  2.34726953E-01
  8.13757326E-01  1.00000000E+00  3.34946043E-02  2.34726953E-01  8.13757326E-01
  1.00000000E+00  3.34946043E-02  2.34726953E-01  8.13757326E-01  1.00000000E+00
  3.34946043E-02  2.34726953E-01  8.13757326E-01  1.00000000E+00
P(S=P) Contraction coefficients            R   N=         109
  0.00000000E+00  0.00000000E+00  0.00000000E+00  0.00000000E+00  0.00000000E+00
  0.00000000E+00  6.75797439E-02  3.23907296E-01  7.40895140E-01  1.00000000E+00
  0.00000000E+00  0.00000000E+00  0.00000000E+00  0.00000000E+00  0.00000000E+00
  0.00000000E+00  0.00000000E+00  6.89990666E-02  3.16423961E-01  7.44308291E-01
  1.00000000E+00  0.00000000E+00  0.00000000E+00  0.00000000E+00  0.00000000E+00
  0.00000000E+00  0.00000000E+00  0.00000000E+00  6.89990666E-02  3.16423961E-01
  7.44308291E-01  1.00000000E+00  0.00000000E+00  0.00000000E+00  0.00000000E+00
  0.00000000E+00  0.00000000E+00  0.00000000E+00  0.00000000E+00  6.89990666E-02
  3.16423961E-01  7.44308291E-01  1.00000000E+00  0.00000000E+00  0.00000000E+00
  0.00000000E+00  0.00000000E+00  0.00000000E+00  0.00000000E+00  0.00000000E+00
  6.89990666E-02  3.16423961E-01  7.44308291E-01  1.00000000E+00  0.00000000E+00
  0.00000000E+00  0.00000000E+00  0.00000000E+00  0.00000000E+00  0.00000000E+00
  0.00000000E+00  6.89990666E-02  3.16423961E-01  7.44308291E-01  1.00000000E+00
  0.00000000E+00  0.00000000E+00  0.00000000E+00  0.00000000E+00  0.00000000E+00
  0.00000000E+00  0.00000000E+00  6.89990666E-02  3.16423961E-01  7.44308291E-01
  1.00000000E+00  0.00000000E+00  0.00000000E+00  0.00000000E+00  0.00000000E+00
  0.00000000E+00  0.00000000E+00  0.00000000E+00  0.00000000E+00  0.00000000E+00
  0.00000000E+00  0.00000000E+00  0.00000000E+00  0.00000000E+00  0.00000000E+00
  0.00000000E+00  0.00000000E+00  0.00000000E+00  0.00000000E+00  0.00000000E+00
  0.00000000E+00  0.00000000E+00  0.00000000E+00  0.00000000E+00  0.00000000E+00
  0.00000000E+00  0.00000000E+00  0.00000000E+00  0.00000000E+00  0.00000000E+00
  0.00000000E+00  0.00000000E+00  0.00000000E+00  0.00000000E+00
Coordinates of each shell                  R   N=         132
  4.36775353E+00  2.64697796E-23  1.18435602E-02  4.36775353E+00  2.64697796E-23
  1.18435602E-02  4.36775353E+00  2.64697796E-23  1.18435602E-02  4.36775353E+00
  2.64697796E-23  1.18435602E-02  1.57720805E+00  1.41453393E-07 -2.18735740E-02
  1.57720805E+00  1.41453393E-07 -2.18735740E-02  1.57720805E+00  1.41453393E-07
 -2.18735740E-02  1.57720805E+00  1.41453393E-07 -2.18735740E-02  3.23257054E-01
  2.30928869E+00 -6.21754189E-03  3.23257054E-01  2.30928869E+00 -6.21754189E-03
  3.23257054E-01  2.30928869E+00 -6.21754189E-03  3.23257054E-01  2.30928869E+00
 -6.21754189E-03  3.23257240E-01 -2.30928860E+00 -6.22144225E-03  3.23257240E-01
 -2.30928860E+00 -6.22144225E-03  3.23257240E-01 -2.30928860E+00 -6.22144225E-03
  3.23257240E-01 -2.30928860E+00 -6.22144225E-03 -2.31503166E+00  2.28896406E+00
  2.14952385E-03 -2.31503166E+00  2.28896406E+00  2.14952385E-03 -2.31503166E+00
  2.28896406E+00  2.14952385E-03 -2.31503166E+00  2.28896406E+00  2.14952385E-03
 -2.31503144E+00 -2.28896420E+00  2.14553453E-03 -2.31503144E+00 -2.28896420E+00
  2.14553453E-03 -2.31503144E+00 -2.28896420E+00  2.14553453E-03 -2.31503144E+00
 -2.28896420E+00  2.14553453E-03 -3.63058199E+00 -1.08360950E-07  9.26860775E-03
 -3.63058199E+00 -1.08360950E-07  9.26860775E-03 -3.63058199E+00 -1.08360950E-07
  9.26860775E-03 -3.63058199E+00 -1.08360950E-07  9.26860775E-03  1.36107586E+00
  4.08172017E+00 -1.33383316E-02  1.36107586E+00  4.08172017E+00 -1.33383316E-02
  1.36107631E+00 -4.08171993E+00 -1.33452313E-02  1.36107631E+00 -4.08171993E+00
 -1.33452313E-02  5.10178633E+00 -1.56035830E+00 -8.85456371E-01  5.10178633E+00
 -1.56035830E+00 -8.85456371E-01  5.10178624E+00  1.56036656E+00 -8.85442014E-01
  5.10178624E+00  1.56036656E+00 -8.85442014E-01  5.07553260E+00 -8.07424172E-06
  1.82295789E+00  5.07553260E+00 -8.07424172E-06  1.82295789E+00 -3.33535680E+00
  4.06957887E+00  2.62881070E-03 -3.33535680E+00  4.06957887E+00  2.62881070E-03
 -3.33535647E+00 -4.06957906E+00  2.62161652E-03 -3.33535647E+00 -4.06957906E+00
  2.62161652E-03 -5.68328228E+00 -2.05084145E-07  1.09620614E-02 -5.68328228E+00
 -2.05084145E-07  1.09620614E-02
Constraint Structure                       R   N=          45
  4.36775353E+00  2.64697796E-23  1.18435602E-02  1.57720805E+00  1.41453393E-07
 -2.18735740E-02  3.23257054E-01  2.30928869E+00 -6.21754189E-03  3.23257240E-01
 -2.30928860E+00 -6.22144225E-03 -2.31503166E+00  2.28896406E+00  2.14952385E-03
 -2.31503144E+00 -2.28896420E+00  2.14553453E-03 -3.63058199E+00 -1.08360950E-07
  9.26860775E-03  1.36107586E+00  4.08172017E+00 -1.33383316E-02  1.36107631E+00
 -4.08171993E+00 -1.33452313E-02  5.10178633E+00 -1.56035830E+00 -8.85456371E-01
  5.10178624E+00  1.56036656E+00 -8.85442014E-01  5.07553260E+00 -8.07424172E-06
  1.82295789E+00 -3.33535680E+00  4.06957887E+00  2.62881070E-03 -3.33535647E+00
 -4.06957906E+00  2.62161652E-03 -5.68328228E+00 -2.05084145E-07  1.09620614E-02
Num ILSW                                   I              100
ILSW                                       I   N=         100
           0           1           0           0           2           0
           0           0           0           0           0          -1
           0           0           0           0           0           0
           0           0           0           0           1           0
           1           0           0           0           0           0
           0           0      100000           0          -1           0
           0           0           0           0           0           0
           0           0           0           1           1           0
           0           0           1           0           0           0
           0           0           4          40           0           0
           0           0           0           0           0           0
           0           0           0           0           0           0
           0           0           0           0           0           0
           0           0           0           0           0           0
           0           0           0           0           0           0
           0           0           0           0           0           0
           0           0           0           0
Num RLSW                                   I               40
RLSW                                       R   N=          40
  1.00000000E+00  1.00000000E+00  1.00000000E+00  1.00000000E+00  1.00000000E+00
  0.00000000E+00  0.00000000E+00  1.00000000E+00  0.00000000E+00  0.00000000E+00
  0.00000000E+00  0.00000000E+00  1.00000000E+00  0.00000000E+00  0.00000000E+00
  0.00000000E+00  0.00000000E+00  1.00000000E+00  0.00000000E+00  0.00000000E+00
  0.00000000E+00  0.00000000E+00  1.00000000E+00  0.00000000E+00  0.00000000E+00
  0.00000000E+00  0.00000000E+00  1.00000000E+00  0.00000000E+00  0.00000000E+00
  0.00000000E+00  0.00000000E+00  0.00000000E+00  0.00000000E+00  0.00000000E+00
  0.00000000E+00  0.00000000E+00  0.00000000E+00  1.00000000E+00  1.00000000E+00
MxBond                                     I                4
NBond                                      I   N=          15
           4           3           3           3           3           3
           3           1           1           1           1           1
           1           1           1
IBond                                      I   N=          60
           2          10          11          12           1           3
           4           0           2           5           8           0
           2           6           9           0           3           7
          13           0           4           7          14           0
           5           6          15           0           3           0
           0           0           4           0           0           0
           1           0           0           0           1           0
           0           0           1           0           0           0
           5           0           0           0           6           0
           0           0           7           0           0           0
RBond                                      R   N=          60
  1.00000000E+00  1.00000000E+00  1.00000000E+00  1.00000000E+00  1.00000000E+00
  1.50000000E+00  1.50000000E+00  0.00000000E+00  1.50000000E+00  1.50000000E+00
  1.00000000E+00  0.00000000E+00  1.50000000E+00  1.50000000E+00  1.00000000E+00
  0.00000000E+00  1.50000000E+00  1.50000000E+00  1.00000000E+00  0.00000000E+00
  1.50000000E+00  1.50000000E+00  1.00000000E+00  0.00000000E+00  1.50000000E+00
  1.50000000E+00  1.00000000E+00  0.00000000E+00  1.00000000E+00  0.00000000E+00
  0.00000000E+00  0.00000000E+00  1.00000000E+00  0.00000000E+00  0.00000000E+00
  0.00000000E+00  1.00000000E+00  0.00000000E+00  0.00000000E+00  0.00000000E+00
  1.00000000E+00  0.00000000E+00  0.00000000E+00  0.00000000E+00  1.00000000E+00
  0.00000000E+00  0.00000000E+00  0.00000000E+00  1.00000000E+00  0.00000000E+00
  0.00000000E+00  0.00000000E+00  1.00000000E+00  0.00000000E+00  0.00000000E+00
  0.00000000E+00  1.00000000E+00  0.00000000E+00  0.00000000E+00  0.00000000E+00
Virial Ratio                               R      2.002754200280467E+00
SCF Energy                                 R     -2.861803947067474E+02
MP2 Energy                                 R     -2.870983277541010E+02
Total Energy                               R     -2.870983277541010E+02
Post-SCF wavefunction norm                 R      1.628057421262910E+00
RMS Force                                  R      7.388235086011937E-06
RMS Density                                R      7.124709663890169E-10
External E-field                           R   N=          35
  0.00000000E+00  0.00000000E+00  0.00000000E+00  0.00000000E+00  0.00000000E+00
  0.00000000E+00  0.00000000E+00  0.00000000E+00  0.00000000E+00  0.00000000E+00
  0.00000000E+00  0.00000000E+00  0.00000000E+00  0.00000000E+00  0.00000000E+00
  0.00000000E+00  0.00000000E+00  0.00000000E+00  0.00000000E+00  0.00000000E+00
  0.00000000E+00  0.00000000E+00  0.00000000E+00  0.00000000E+00  0.00000000E+00
  0.00000000E+00  0.00000000E+00  0.00000000E+00  0.00000000E+00  0.00000000E+00
  0.00000000E+00  0.00000000E+00  0.00000000E+00  0.00000000E+00  0.00000000E+00
IOpCl                                      I                0
IROHF                                      I                0
Alpha Orbital Energies                     R   N=         121
 -1.57242461E+01 -1.13215543E+01 -1.12709195E+01 -1.12708916E+01 -1.12609087E+01
 -1.12605838E+01 -1.12585208E+01 -1.34091145E+00 -1.17190824E+00 -1.04455912E+00
 -1.03511402E+00 -8.69023939E-01 -8.56041034E-01 -7.81138771E-01 -7.66787436E-01
 -7.47577062E-01 -6.90873688E-01 -6.40435389E-01 -6.27526475E-01 -6.12724527E-01
 -5.34624691E-01 -5.28957404E-01 -5.22701739E-01 -3.65856506E-01 -3.60136247E-01
  1.09928503E-01  1.14292447E-01  1.72774529E-01  2.20058008E-01  2.37070785E-01
  2.49623395E-01  2.94393114E-01  2.94468215E-01  3.29990787E-01  3.30109138E-01
  3.45311796E-01  3.73470654E-01  4.52705201E-01  4.57116782E-01  4.85168374E-01
  4.99028723E-01  6.16700301E-01  7.01695320E-01  7.21385212E-01  7.28248774E-01
  7.66300945E-01  7.73073320E-01  7.81056184E-01  7.97650261E-01  8.05028054E-01
  8.12924967E-01  8.19617102E-01  8.24514877E-01  8.76265679E-01  8.82837888E-01
  9.32948584E-01  9.73711739E-01  9.99422819E-01  1.04857670E+00  1.06796887E+00
  1.06834727E+00  1.07538261E+00  1.09789859E+00  1.10197854E+00  1.10759383E+00
  1.11464766E+00  1.16634947E+00  1.18088045E+00  1.18469457E+00  1.23489210E+00
  1.26551013E+00  1.32554382E+00  1.34694972E+00  1.39213541E+00  1.41794662E+00
  1.48020556E+00  1.58262330E+00  1.62906672E+00  1.66814933E+00  1.68243832E+00
  1.71634008E+00  1.74350479E+00  1.76169652E+00  1.78685518E+00  2.04981722E+00
  2.05008678E+00  2.10442879E+00  2.12182484E+00  2.12540063E+00  2.15216011E+00
  2.23784187E+00  2.26373626E+00  2.36060287E+00  2.36902863E+00  2.41060104E+00
  2.43333651E+00  2.46198696E+00  2.47139866E+00  2.56772382E+00  2.57415500E+00
  2.59725463E+00  2.69154180E+00  2.69301351E+00  2.71777068E+00  2.87818708E+00
  2.88156859E+00  2.97455520E+00  3.02637430E+00  3.03025743E+00  3.06218060E+00
  3.13834017E+00  3.17080330E+00  3.39647567E+00  3.75754033E+00  4.17255115E+00
  4.48051313E+00  4.51173402E+00  4.51455213E+00  4.72316362E+00  4.74537959E+00
  5.08012401E+00
Alpha MO coefficients                      R   N=       14641
  9.94950806E-01  2.53849870E-02  2.26193287E-05  1.20176429E-10 -8.59587907E-06
 -3.20597272E-03  8.45019574E-04 -9.97062018E-10  5.81010088E-05 -3.60804673E-03
 -3.42721634E-03 -3.43502188E-03  4.00459680E-11  2.46075280E-07  1.38502211E-11
  8.53867261E-06  1.92480329E-04  1.96404258E-04 -1.05010221E-10  3.77175027E-06
  5.60135472E-04  2.12701642E-03  2.81073931E-09 -8.67695537E-06  4.76414347E-05
 -3.34195762E-05 -6.78995348E-05 -7.01898470E-11  2.21102565E-06  3.67243839E-11
 -8.37798884E-06 -3.41307458E-05 -2.00549232E-05  7.66243322E-06 -3.06844842E-06
  5.84022388E-04 -4.17004920E-04 -5.43139232E-04  1.21730182E-05 -5.49973794E-05
  2.81357625E-05 -3.72605632E-05  3.31339602E-05  1.53392477E-06  5.73272568E-07
 -8.37799723E-06 -3.41308819E-05 -2.00549285E-05 -7.66242063E-06 -3.06845320E-06
  5.84024550E-04 -4.17002230E-04  5.43141353E-04  1.21738787E-05 -5.49973286E-05
  2.81358855E-05 -3.72605842E-05 -3.31338757E-05  1.53386761E-06 -5.73147389E-07
 -8.42857603E-06 -3.57678548E-05 -2.32252512E-05  1.65530464E-05  1.98992736E-06
 -2.68539101E-04 -1.01794201E-05 -3.21519342E-05 -9.66422979E-06  7.81568354E-06
 -5.44479023E-06 -2.71704817E-05  1.91615038E-06 -9.76916802E-07  8.66700271E-07
 -8.42858274E-06 -3.57678840E-05 -2.32252666E-05 -1.65530154E-05  1.98989472E-06
 -2.68538343E-04 -1.01780196E-05  3.21507670E-05 -9.66416700E-06  7.81570674E-06
 -5.44481961E-06 -2.71705039E-05 -1.91613750E-06 -9.76917531E-07 -8.66659367E-07
 -4.77273341E-06 -1.78446082E-05 -1.81628469E-05 -4.64275368E-12  5.33452182E-08
  7.63189220E-05  6.53022765E-05 -6.71276667E-10  4.81082836E-06 -8.09686525E-06
  1.59811518E-08 -1.54684948E-05 -1.90990465E-11  1.88899382E-07  1.63562461E-11
  2.35796183E-05  2.24025148E-04  2.35794415E-05  2.24025687E-04  3.66706381E-04
  3.06015220E-04  3.66706415E-04  3.06016079E-04  3.60580158E-04  2.48432072E-04
  7.22995704E-06  6.47899951E-05  7.22988761E-06  6.47898290E-05  1.10377329E-06
  3.17853903E-05 -1.24777908E-04  4.93465347E-04  3.16423342E-05 -7.15023607E-10
  5.26196425E-05 -1.90349195E-04  2.65094469E-04  4.28762221E-09 -2.44033379E-04
 -8.09335654E-04  7.55930621E-05  2.01319212E-04 -1.47560017E-11 -2.39395749E-05
 -2.17822360E-10  9.95558945E-01  2.74306372E-02  1.00320783E-03 -5.31444017E-11
  4.49222680E-05 -1.50369355E-02  3.07763995E-03 -4.61681296E-09 -5.69991448E-05
 -1.64769801E-03 -1.46925958E-03 -2.18752499E-03 -1.66843880E-10  2.16199345E-05
  6.97580817E-10  1.15498892E-02 -5.40002225E-05 -4.19909714E-05  1.37393392E-04
  2.99792308E-06  6.39798903E-03 -1.61262313E-04 -3.33022256E-03  9.15253851E-07
 -4.09660240E-04 -2.65747446E-04 -1.93862480E-04  8.46353367E-05  3.53547180E-06
 -2.95924508E-06  1.15498841E-02 -5.39999480E-05 -4.19910028E-05 -1.37393337E-04
  2.99766807E-06  6.39798318E-03 -1.61265610E-04  3.33021844E-03  9.20988522E-07
 -4.09660269E-04 -2.65747541E-04 -1.93862386E-04 -8.46355353E-05  3.53533774E-06
  2.95910491E-06  9.06340345E-05  1.97282877E-05  1.31482624E-06 -3.97252628E-06
  1.13782572E-06 -2.73160589E-03 -6.30869290E-04  1.53690868E-03 -5.43818915E-06
  1.37334920E-04  3.84827928E-05  2.89015939E-05 -3.59424385E-05 -1.10437715E-06
  1.43534959E-06  9.06339872E-05  1.97282023E-05  1.31488065E-06  3.97244302E-06
  1.13784489E-06 -2.73160563E-03 -6.30870122E-04 -1.53690668E-03 -5.44096090E-06
  1.37334915E-04  3.84828117E-05  2.89015584E-05  3.59424469E-05 -1.10431731E-06
 -1.43534320E-06 -2.03775769E-04 -2.02533080E-04 -2.16602059E-05  4.36891960E-11
 -6.39123463E-08  2.86767326E-03  1.61534901E-03  8.57831989E-10 -4.52277469E-06
 -4.65920548E-07  5.63858270E-06 -7.57089251E-05  2.96921473E-11 -9.37424246E-07
  7.57721187E-11 -1.36118691E-05  6.18288181E-04 -1.36116575E-05  6.18287090E-04
  5.02226468E-07  1.99665849E-05  5.02310476E-07  1.99615442E-05 -4.09360516E-05
  5.22673953E-04 -5.81586982E-05 -2.90174336E-04 -5.81585875E-05 -2.90173868E-04
  3.24809326E-05  3.94888595E-04  2.94336217E-09 -3.44775083E-08  8.33417898E-09
 -1.27639355E-05 -2.47529216E-10  7.49055554E-08 -6.46114691E-08 -6.59470832E-05
  1.54002046E-10  3.51394249E-08  1.57542719E-08 -1.08059512E-08 -4.25066939E-05
  1.25475085E-09 -2.83068715E-06 -4.48802015E-06 -1.98318204E-07  4.45385582E-08
 -2.38539660E-04 -9.29417233E-10  2.52256435E-06 -9.60808384E-07  2.09072531E-03
  7.09763096E-09 -1.31479874E-07 -2.00914447E-07 -4.36898309E-08  1.47192902E-04
 -1.06437087E-11 -3.60139942E-06  7.03034795E-01  1.96671491E-02 -2.73800730E-06
 -3.34197429E-04 -3.21358451E-06 -9.08313293E-03  4.60865179E-04  1.30449347E-03
  6.86525628E-06 -1.17326552E-03 -1.28595624E-03 -1.67316660E-03 -7.53813757E-05
 -2.85064176E-06 -2.50968993E-07 -7.02666837E-01 -1.96568595E-02  2.74448341E-06
 -3.34031828E-04  3.21034086E-06  9.07654662E-03 -4.60042158E-04  1.30291777E-03
 -6.85435516E-06  1.17269279E-03  1.28538068E-03  1.67230083E-03 -7.53187341E-05
  2.84788935E-06 -2.50666254E-07  4.04358154E-02  1.03791950E-03 -8.34314679E-05
  9.58325466E-06  3.16965506E-07  2.49586647E-03  1.15310371E-03 -4.06291833E-04
 -5.79475973E-06 -3.98157267E-04 -2.62877347E-04 -1.50786383E-04 -3.58525911E-05
  4.47906755E-07  6.77103949E-08 -4.04153229E-02 -1.03750521E-03  8.33710294E-05
  9.55779637E-06 -3.17073382E-07 -2.49284878E-03 -1.15198911E-03 -4.05217332E-04
  5.78903746E-06  3.97941300E-04  2.62733841E-04  1.50660554E-04 -3.58446692E-05
 -4.47963358E-07  6.83233826E-08  8.99103622E-07  2.88121040E-08 -6.07684139E-09
 -3.76604710E-05 -3.99411125E-10 -9.39926702E-07 -5.28288045E-07  2.46951346E-05
  3.73454036E-09  2.64010089E-08  1.44056544E-08  6.29307675E-09  6.28389342E-05
  2.80186596E-10 -2.33165644E-07 -1.31711898E-04  9.81925149E-04  1.31615038E-04
 -9.81597869E-04  1.94668528E-05  4.12553800E-06 -1.94687806E-05 -4.07394154E-06
 -3.38265405E-09  2.41600412E-08 -2.52766143E-05  1.41028549E-04  2.52916224E-05
 -1.40713320E-04 -1.53658107E-08 -8.70954053E-08  1.15539750E-05 -1.31074341E-04
  3.21112960E-05  3.29462347E-09 -8.71233472E-07  2.81197333E-04 -2.49514300E-04
  1.73681366E-08  7.03610223E-07  1.35356025E-04  6.08012110E-05 -4.03132648E-05
  1.11532717E-08  4.93310944E-06  8.02044618E-10 -1.71313304E-02 -7.57005257E-04
  1.70172773E-04  6.24114839E-08 -2.75659259E-06  9.63782048E-03 -3.67359557E-03
 -5.46958569E-07  2.01567548E-05 -5.02430700E-04 -7.67553554E-04 -1.66931066E-04
 -3.85376971E-08 -5.21783226E-07  3.63911265E-10  7.02661683E-01  1.96494310E-02