
    -----------------------------------------------------------------------
          Psi4: An Open-Source Ab Initio Electronic Structure Package
                               Psi4 1.4a3.dev225 

                         Git: Rev {master} 7105e37 


    D. G. A. Smith, L. A. Burns, A. C. Simmonett, R. M. Parrish,
    M. C. Schieber, R. Galvelis, P. Kraus, H. Kruse, R. Di Remigio,
    A. Alenaizan, A. M. James, S. Lehtola, J. P. Misiewicz, M. Scheurer,
    R. A. Shaw, J. B. Schriber, Y. Xie, Z. L. Glick, D. A. Sirianni,
    J. S. O'Brien, J. M. Waldrop, A. Kumar, E. G. Hohenstein,
    B. P. Pritchard, B. R. Brooks, H. F. Schaefer III, A. Yu. Sokolov,
    K. Patkowski, A. E. DePrince III, U. Bozkaya, R. A. King,
    F. A. Evangelista, J. M. Turney, T. D. Crawford, C. D. Sherrill,
    J. Chem. Phys. 152(18) 184108 (2020). https://doi.org/10.1063/5.0006002

                            Additional Code Authors
    E. T. Seidl, C. L. Janssen, E. F. Valeev, M. L. Leininger,
    J. F. Gonthier, R. M. Richard, H. R. McAlexander, M. Saitow, X. Wang,
    P. Verma, and M. H. Lechner

             Previous Authors, Complete List of Code Contributors,
                       and Citations for Specific Modules
    https://github.com/psi4/psi4/blob/master/codemeta.json
    https://github.com/psi4/psi4/graphs/contributors
    http://psicode.org/psi4manual/master/introduction.html#citing-psifour

    -----------------------------------------------------------------------


    Psi4 started on: Saturday, 27 February 2021 07:54PM

    Process ID: 225917
    Host:       c401-054.stampede2.tacc.utexas.edu
    PSIDATADIR: /home1/07844/xy3866/miniconda3/envs/p4env/share/psi4
    Memory:     500.0 MiB
    Threads:    32
    
  ==> Input File <==

--------------------------------------------------------------------------
#psi4
#
memory 32 gb

molecule  {
0 1
  N        0.9404650     1.6044440    -0.2603840
  N       -2.0452039    -0.6461890     0.0747952
  C        0.0733550     0.6450740     0.4388170
  C        0.8648870    -0.6349690     0.7149280
  C       -1.1572530     0.4065190    -0.4308380
  C        1.3403660    -1.3686840    -0.5373980
  H       -0.2919930     1.0197560     1.4097680
  H        0.2501680    -1.2934280     1.3390890
  H        1.7346290    -0.3675780     1.3302640
  H       -1.7030210     1.3537690    -0.5225160
  H       -0.8245660     0.1340620    -1.4434830
  H        1.9943120    -2.2039600    -0.2694910
  H        0.5025080    -1.7807990    -1.1082240
  H        1.8904320    -0.6904920    -1.1924240
  H        1.7396730     1.8267360     0.3337390
  H        0.4376740     2.4833400    -0.3885230
  H       -1.6829760    -1.5021330     0.0801800
  H       -2.9543020    -0.5584070    -0.2807090
units angstrom
no_reorient  #important for SAPT in psi4, default
symmetry c1  #important for SAPT in psi4, default
}

set PROPERTIES_ORIGIN ["COM"]
properties('MP2/aug-cc-pvtz', properties = ['dipole'])
--------------------------------------------------------------------------

  Memory set to  29.802 GiB by Python driver.
    SCF Algorithm Type (re)set to DF.

*** tstart() called on c401-054.stampede2.tacc.utexas.edu
*** at Sat Feb 27 19:54:36 2021

   => Loading Basis Set <=

    Name: AUG-CC-PVTZ
    Role: ORBITAL
    Keyword: BASIS
    atoms 1-2  entry N          line   285 file /home1/07844/xy3866/miniconda3/envs/p4env/share/psi4/basis/aug-cc-pvtz.gbs 
    atoms 3-6  entry C          line   239 file /home1/07844/xy3866/miniconda3/envs/p4env/share/psi4/basis/aug-cc-pvtz.gbs 
    atoms 7-18 entry H          line    40 file /home1/07844/xy3866/miniconda3/envs/p4env/share/psi4/basis/aug-cc-pvtz.gbs 


         ---------------------------------------------------------
                                   SCF
               by Justin Turney, Rob Parrish, Andy Simmonett
                          and Daniel G. A. Smith
                              RHF Reference
                       32 Threads,  30517 MiB Core
         ---------------------------------------------------------

  ==> Geometry <==

    Molecular point group: c1
    Full point group: C1

    Geometry (in Angstrom), charge = 0, multiplicity = 1:

       Center              X                  Y                   Z               Mass       
    ------------   -----------------  -----------------  -----------------  -----------------
         N            0.950821332872     1.599877545009    -0.248004781987    14.003074004430
         N           -2.034847567128    -0.650755454991     0.087174418013    14.003074004430
         C            0.083711332872     0.640507545009     0.451196218013    12.000000000000
         C            0.875243332872    -0.639535454991     0.727307218013    12.000000000000
         C           -1.146896667128     0.401952545009    -0.418458781987    12.000000000000
         C            1.350722332872    -1.373250454991    -0.525018781987    12.000000000000
         H           -0.281636667128     1.015189545009     1.422147218013     1.007825032230
         H            0.260524332872    -1.297994454991     1.351468218013     1.007825032230
         H            1.744985332872    -0.372144454991     1.342643218013     1.007825032230
         H           -1.692664667128     1.349202545009    -0.510136781987     1.007825032230
         H           -0.814209667128     0.129495545009    -1.431103781987     1.007825032230
         H            2.004668332872    -2.208526454991    -0.257111781987     1.007825032230
         H            0.512864332872    -1.785365454991    -1.095844781987     1.007825032230
         H            1.900788332872    -0.695058454991    -1.180044781987     1.007825032230
         H            1.750029332872     1.822169545009     0.346118218013     1.007825032230
         H            0.448030332872     2.478773545009    -0.376143781987     1.007825032230
         H           -1.672619667128    -1.506699454991     0.092559218013     1.007825032230
         H           -2.943945667128    -0.562973454991    -0.268329781987     1.007825032230

  Running in c1 symmetry.

  Rotational constants: A =      0.13223  B =      0.09702  C =      0.06774 [cm^-1]
  Rotational constants: A =   3964.22172  B =   2908.71121  C =   2030.82128 [MHz]
  Nuclear repulsion =  265.072104863439449

  Charge       = 0
  Multiplicity = 1
  Electrons    = 50
  Nalpha       = 25
  Nbeta        = 25

  ==> Algorithm <==

  SCF Algorithm Type is DF.
  DIIS enabled.
  MOM disabled.
  Fractional occupation disabled.
  Guess Type is SAD.
  Energy threshold   = 1.00e-10
  Density threshold  = 1.00e-10
  Integral threshold = 1.00e-12

  ==> Primary Basis <==

  Basis Set: AUG-CC-PVTZ
    Blend: AUG-CC-PVTZ
    Number of shells: 192
    Number of basis functions: 552
    Number of Cartesian functions: 630
    Spherical Harmonics?: true
    Max angular momentum: 3

   => Loading Basis Set <=

    Name: (AUG-CC-PVTZ AUX)
    Role: JKFIT
    Keyword: DF_BASIS_SCF
    atoms 1-2  entry N          line   224 file /home1/07844/xy3866/miniconda3/envs/p4env/share/psi4/basis/aug-cc-pvtz-jkfit.gbs 
    atoms 3-6  entry C          line   162 file /home1/07844/xy3866/miniconda3/envs/p4env/share/psi4/basis/aug-cc-pvtz-jkfit.gbs 
    atoms 7-18 entry H          line    70 file /home1/07844/xy3866/miniconda3/envs/p4env/share/psi4/basis/aug-cc-pvtz-jkfit.gbs 

  ==> Integral Setup <==

  DFHelper Memory: AOs need 2.717 GiB; user supplied 22.352 GiB. Using in-core AOs.

  ==> MemDFJK: Density-Fitted J/K Matrices <==

    J tasked:                   Yes
    K tasked:                   Yes
    wK tasked:                   No
    OpenMP threads:              32
    Memory [MiB]:             22888
    Algorithm:                 Core
    Schwarz Cutoff:           1E-12
    Mask sparsity (%):       3.6311
    Fitting Condition:        1E-10

   => Auxiliary Basis Set <=

  Basis Set: (AUG-CC-PVTZ AUX)
    Blend: AUG-CC-PVTZ-JKFIT
    Number of shells: 348
    Number of basis functions: 1176
    Number of Cartesian functions: 1446
    Spherical Harmonics?: true
    Max angular momentum: 4

  Minimum eigenvalue in the overlap matrix is 3.1440173222E-06.
  Reciprocal condition number of the overlap matrix is 1.4483319235E-07.
    Using symmetric orthogonalization.

  ==> Pre-Iterations <==

  SCF Guess: Superposition of Atomic Densities via on-the-fly atomic UHF (no occupation information).

   -------------------------
    Irrep   Nso     Nmo    
   -------------------------
     A        552     552 
   -------------------------
    Total     552     552
   -------------------------

  ==> Iterations <==

                           Total Energy        Delta E     RMS |[F,P]|

   @DF-RHF iter SAD:  -266.98564508917201   -2.66986e+02   0.00000e+00 
   @DF-RHF iter   1:  -267.11807325723856   -1.32428e-01   1.37099e-03 DIIS
   @DF-RHF iter   2:  -267.35995884744813   -2.41886e-01   7.39003e-04 DIIS
   @DF-RHF iter   3:  -267.43464295559227   -7.46841e-02   1.09297e-04 DIIS
   @DF-RHF iter   4:  -267.43809466905634   -3.45171e-03   2.40535e-05 DIIS
   @DF-RHF iter   5:  -267.43823243790553   -1.37769e-04   7.68195e-06 DIIS
   @DF-RHF iter   6:  -267.43824615226760   -1.37144e-05   1.92024e-06 DIIS
   @DF-RHF iter   7:  -267.43824720224899   -1.04998e-06   5.51273e-07 DIIS
   @DF-RHF iter   8:  -267.43824729531116   -9.30622e-08   1.69333e-07 DIIS
   @DF-RHF iter   9:  -267.43824730515030   -9.83914e-09   4.97632e-08 DIIS
   @DF-RHF iter  10:  -267.43824730626079   -1.11049e-09   1.30228e-08 DIIS
   @DF-RHF iter  11:  -267.43824730634270   -8.19114e-11   3.69728e-09 DIIS
   @DF-RHF iter  12:  -267.43824730634935   -6.65068e-12   1.40626e-09 DIIS
   @DF-RHF iter  13:  -267.43824730634964   -2.84217e-13   3.93686e-10 DIIS
   @DF-RHF iter  14:  -267.43824730634969   -5.68434e-14   1.14356e-10 DIIS
   @DF-RHF iter  15:  -267.43824730635021   -5.11591e-13   3.52449e-11 DIIS
  Energy and wave function converged.


  ==> Post-Iterations <==

    Orbital Energies [Eh]
    ---------------------

    Doubly Occupied:                                                      

       1A    -15.539116     2A    -15.520952     3A    -11.246547  
       4A    -11.242648     5A    -11.214841     6A    -11.204883  
       7A     -1.198793     8A     -1.164919     9A     -1.030017  
      10A     -0.943065    11A     -0.865098    12A     -0.753858  
      13A     -0.696854    14A     -0.661192    15A     -0.643444  
      16A     -0.601540    17A     -0.576853    18A     -0.551343  
      19A     -0.543273    20A     -0.516796    21A     -0.491676  
      22A     -0.469232    23A     -0.454703    24A     -0.391401  
      25A     -0.372331  

    Virtual:                                                              

      26A      0.029337    27A      0.034505    28A      0.036071  
      29A      0.040710    30A      0.053127    31A      0.054077  
      32A      0.057873    33A      0.060216    34A      0.065777  
      35A      0.077547    36A      0.080977    37A      0.088439  
      38A      0.113367    39A      0.119038    40A      0.122215  
      41A      0.124411    42A      0.127707    43A      0.129498  
      44A      0.135223    45A      0.137474    46A      0.147839  
      47A      0.151969    48A      0.158180    49A      0.162241  
      50A      0.166811    51A      0.171192    52A      0.177648  
      53A      0.186907    54A      0.190918    55A      0.198442  
      56A      0.206702    57A      0.215207    58A      0.226699  
      59A      0.238765    60A      0.257423    61A      0.258320  
      62A      0.267428    63A      0.277959    64A      0.282212  
      65A      0.290244    66A      0.292956    67A      0.296837  
      68A      0.307453    69A      0.315348    70A      0.322804  
      71A      0.329538    72A      0.332990    73A      0.338212  
      74A      0.342725    75A      0.348449    76A      0.356147  
      77A      0.359568    78A      0.362202    79A      0.373627  
      80A      0.379561    81A      0.384099    82A      0.389277  
      83A      0.392193    84A      0.395890    85A      0.403874  
      86A      0.404994    87A      0.409919    88A      0.412774  
      89A      0.421241    90A      0.431619    91A      0.433104  
      92A      0.437964    93A      0.445387    94A      0.449247  
      95A      0.462075    96A      0.463354    97A      0.469402  
      98A      0.471597    99A      0.474574   100A      0.483372  
     101A      0.486351   102A      0.491623   103A      0.496321  
     104A      0.500376   105A      0.503909   106A      0.511037  
     107A      0.517426   108A      0.527358   109A      0.532120  
     110A      0.535731   111A      0.546086   112A      0.549698  
     113A      0.554564   114A      0.561019   115A      0.562146  
     116A      0.568279   117A      0.576383   118A      0.589385  
     119A      0.600476   120A      0.606281   121A      0.608385  
     122A      0.614042   123A      0.616470   124A      0.625037  
     125A      0.641671   126A      0.644305   127A      0.648675  
     128A      0.656989   129A      0.668317   130A      0.674792  
     131A      0.679524   132A      0.685451   133A      0.702220  
     134A      0.716774   135A      0.723768   136A      0.732884  
     137A      0.738927   138A      0.747415   139A      0.760080  
     140A      0.772261   141A      0.778395   142A      0.790242  
     143A      0.795384   144A      0.803778   145A      0.808194  
     146A      0.824903   147A      0.834756   148A      0.842994  
     149A      0.846711   150A      0.865029   151A      0.877144  
     152A      0.879876   153A      0.880953   154A      0.893775  
     155A      0.905872   156A      0.909799   157A      0.921907  
     158A      0.923468   159A      0.927403   160A      0.933021  
     161A      0.943992   162A      0.953511   163A      0.959563  
     164A      0.963103   165A      0.978822   166A      0.984603  
     167A      0.990387   168A      0.998827   169A      1.007562  
     170A      1.019223   171A      1.024230   172A      1.037443  
     173A      1.040425   174A      1.044587   175A      1.052843  
     176A      1.060335   177A      1.071576   178A      1.076712  
     179A      1.081965   180A      1.092507   181A      1.095379  
     182A      1.100061   183A      1.112618   184A      1.121718  
     185A      1.122743   186A      1.132595   187A      1.146730  
     188A      1.149876   189A      1.156670   190A      1.167220  
     191A      1.170226   192A      1.182380   193A      1.191969  
     194A      1.197838   195A      1.209256   196A      1.211315  
     197A      1.217650   198A      1.228727   199A      1.238331  
     200A      1.243886   201A      1.250535   202A      1.253039  
     203A      1.265853   204A      1.277672   205A      1.278898  
     206A      1.290616   207A      1.305969   208A      1.310975  
     209A      1.316972   210A      1.321667   211A      1.332005  
     212A      1.338628   213A      1.349625   214A      1.354471  
     215A      1.358400   216A      1.374227   217A      1.378289  
     218A      1.389928   219A      1.404838   220A      1.409849  
     221A      1.412164   222A      1.427995   223A      1.441852  
     224A      1.446685   225A      1.463468   226A      1.471899  
     227A      1.475911   228A      1.485214   229A      1.503276  
     230A      1.519606   231A      1.531620   232A      1.536558  
     233A      1.551406   234A      1.553069   235A      1.555113  
     236A      1.574042   237A      1.579867   238A      1.593737  
     239A      1.596782   240A      1.606150   241A      1.620086  
     242A      1.629874   243A      1.640215   244A      1.644505  
     245A      1.660003   246A      1.661468   247A      1.673885  
     248A      1.682165   249A      1.695816   250A      1.706728  
     251A      1.720386   252A      1.722078   253A      1.726590  
     254A      1.734180   255A      1.753279   256A      1.759737  
     257A      1.767526   258A      1.770371   259A      1.784120  
     260A      1.801713   261A      1.822755   262A      1.827223  
     263A      1.830364   264A      1.834110   265A      1.844105  
     266A      1.854242   267A      1.860003   268A      1.865669  
     269A      1.889412   270A      1.895311   271A      1.896521  
     272A      1.916642   273A      1.947795   274A      1.953113  
     275A      1.965360   276A      1.974953   277A      1.978273  
     278A      1.989723   279A      1.999522   280A      2.004711  
     281A      2.014986   282A      2.027734   283A      2.036882  
     284A      2.056386   285A      2.057909   286A      2.073442  
     287A      2.087543   288A      2.097231   289A      2.110379  
     290A      2.113735   291A      2.137929   292A      2.153482  
     293A      2.159023   294A      2.173283   295A      2.185234  
     296A      2.194736   297A      2.217878   298A      2.222129  
     299A      2.242669   300A      2.249456   301A      2.263082  
     302A      2.289782   303A      2.299769   304A      2.301060  
     305A      2.320184   306A      2.328627   307A      2.333169  
     308A      2.340584   309A      2.359961   310A      2.367876  
     311A      2.391177   312A      2.406112   313A      2.423035  
     314A      2.427687   315A      2.444571   316A      2.453356  
     317A      2.469144   318A      2.481830   319A      2.484483  
     320A      2.503321   321A      2.523767   322A      2.530657  
     323A      2.544318   324A      2.564938   325A      2.581568  
     326A      2.597357   327A      2.615956   328A      2.618607  
     329A      2.623880   330A      2.638177   331A      2.673516  
     332A      2.685098   333A      2.694789   334A      2.717889  
     335A      2.733192   336A      2.761985   337A      2.771891  
     338A      2.790147   339A      2.835771   340A      2.849915  
     341A      2.858421   342A      2.916663   343A      2.960729  
     344A      3.021734   345A      3.040861   346A      3.115578  
     347A      3.195953   348A      3.222462   349A      3.329393  
     350A      3.378004   351A      3.416990   352A      3.465667  
     353A      3.494758   354A      3.518598   355A      3.556513  
     356A      3.568683   357A      3.581562   358A      3.621404  
     359A      3.638438   360A      3.647360   361A      3.658999  
     362A      3.673461   363A      3.698749   364A      3.728373  
     365A      3.737422   366A      3.762163   367A      3.769521  
     368A      3.779031   369A      3.784539   370A      3.793948  
     371A      3.824561   372A      3.844431   373A      3.852561  
     374A      3.874261   375A      3.882549   376A      3.898945  
     377A      3.917677   378A      3.928312   379A      3.943551  
     380A      3.958535   381A      3.968537   382A      3.988176  
     383A      4.006622   384A      4.017785   385A      4.025716  
     386A      4.037307   387A      4.041015   388A      4.056991  
     389A      4.065186   390A      4.071825   391A      4.078390  
     392A      4.084166   393A      4.119846   394A      4.133335  
     395A      4.140270   396A      4.150336   397A      4.164054  
     398A      4.175423   399A      4.194639   400A      4.206788  
     401A      4.219794   402A      4.230895   403A      4.251164  
     404A      4.258686   405A      4.278622   406A      4.294815  
     407A      4.297718   408A      4.314989   409A      4.333036  
     410A      4.350067   411A      4.354761   412A      4.366183  
     413A      4.367827   414A      4.396123   415A      4.419890  
     416A      4.430600   417A      4.446511   418A      4.460147  
     419A      4.474337   420A      4.487964   421A      4.518903  
     422A      4.535619   423A      4.551129   424A      4.563806  
     425A      4.581458   426A      4.587019   427A      4.596081  
     428A      4.628884   429A      4.641676   430A      4.651458  
     431A      4.661751   432A      4.681486   433A      4.693081  
     434A      4.708041   435A      4.720002   436A      4.731625  
     437A      4.753051   438A      4.757618   439A      4.776730  
     440A      4.786460   441A      4.796828   442A      4.815980  
     443A      4.830237   444A      4.864625   445A      4.867731  
     446A      4.889166   447A      4.906763   448A      4.910324  
     449A      4.938862   450A      4.958192   451A      4.972786  
     452A      5.001955   453A      5.021092   454A      5.026745  
     455A      5.035519   456A      5.055092   457A      5.066911  
     458A      5.089172   459A      5.092714   460A      5.120717  
     461A      5.147010   462A      5.152541   463A      5.158384  
     464A      5.166476   465A      5.173347   466A      5.186917  
     467A      5.198158   468A      5.229958   469A      5.242529  
     470A      5.256032   471A      5.268328   472A      5.297146  
     473A      5.315003   474A      5.327831   475A      5.335330  
     476A      5.355706   477A      5.370314   478A      5.378801  
     479A      5.408284   480A      5.419718   481A      5.431678  
     482A      5.447160   483A      5.464900   484A      5.479294  
     485A      5.496862   486A      5.500668   487A      5.514214  
     488A      5.524658   489A      5.552066   490A      5.580264  
     491A      5.583771   492A      5.618581   493A      5.669745  
     494A      5.670838   495A      5.690491   496A      5.709248  
     497A      5.716169   498A      5.737736   499A      5.759431  
     500A      5.766839   501A      5.805561   502A      5.815413  
     503A      5.846666   504A      5.872671   505A      5.893417  
     506A      5.947229   507A      5.960407   508A      5.972686  
     509A      5.982617   510A      6.016067   511A      6.040950  
     512A      6.077530   513A      6.085574   514A      6.092667  
     515A      6.157226   516A      6.185241   517A      6.198943  
     518A      6.248803   519A      6.270892   520A      6.278227  
     521A      6.291039   522A      6.302867   523A      6.331327  
     524A      6.374130   525A      6.401622   526A      6.423527  
     527A      6.464131   528A      6.489789   529A      6.567324  
     530A      6.611300   531A      6.624643   532A      6.770212  
     533A      6.823649   534A      6.864252   535A      6.890746  
     536A      6.906439   537A      6.954193   538A      7.017797  
     539A      7.033692   540A      7.112279   541A      7.159565  
     542A      7.317638   543A      7.328502   544A      7.442730  
     545A      7.900901   546A      7.937103   547A     17.753384  
     548A     18.001892   549A     18.252992   550A     18.582499  
     551A     19.358952   552A     20.142415  

    Final Occupation by Irrep:
              A 
    DOCC [    25 ]

  @DF-RHF Final Energy:  -267.43824730635021

   => Energetics <=

    Nuclear Repulsion Energy =            265.0721048634394492
    One-Electron Energy =                -887.2299532516153704
    Two-Electron Energy =                 354.7196010818257150
    Total Energy =                       -267.4382473063502061

Computation Completed

*** tstop() called on c401-054.stampede2.tacc.utexas.edu at Sat Feb 27 19:54:59 2021
Module time:
	user time   =     367.24 seconds =       6.12 minutes
	system time =      28.72 seconds =       0.48 minutes
	total time  =         23 seconds =       0.38 minutes
Total time:
	user time   =     367.24 seconds =       6.12 minutes
	system time =      28.72 seconds =       0.48 minutes
	total time  =         23 seconds =       0.38 minutes
   => Loading Basis Set <=

    Name: (AUG-CC-PVTZ AUX)
    Role: RIFIT
    Keyword: DF_BASIS_MP2
    atoms 1-2  entry N          line   206 file /home1/07844/xy3866/miniconda3/envs/p4env/share/psi4/basis/aug-cc-pvtz-ri.gbs 
    atoms 3-6  entry C          line   148 file /home1/07844/xy3866/miniconda3/envs/p4env/share/psi4/basis/aug-cc-pvtz-ri.gbs 
    atoms 7-18 entry H          line    30 file /home1/07844/xy3866/miniconda3/envs/p4env/share/psi4/basis/aug-cc-pvtz-ri.gbs 


*** tstart() called on c401-054.stampede2.tacc.utexas.edu
*** at Sat Feb 27 19:55:00 2021


  //>>>>>>>>>>>>>>>>>>>>>>>>>>>>>>>>>>>//
  //               DFMP2               //
  //<<<<<<<<<<<<<<<<<<<<<<<<<<<<<<<<<<<//

	 --------------------------------------------------------
	                          DF-MP2                         
	      2nd-Order Density-Fitted Moller-Plesset Theory     
	              RMP2 Wavefunction,  32 Threads             
	                                                         
	        Rob Parrish, Justin Turney, Andy Simmonett,      
	           Ed Hohenstein, and C. David Sherrill          
	 --------------------------------------------------------

   => Auxiliary Basis Set <=

  Basis Set: (AUG-CC-PVTZ AUX)
    Blend: AUG-CC-PVTZ-RI
    Number of shells: 336
    Number of basis functions: 1188
    Number of Cartesian functions: 1476
    Spherical Harmonics?: true
    Max angular momentum: 4

	 --------------------------------------------------------
	                 NBF =   552, NAUX =  1188
	 --------------------------------------------------------
	   CLASS    FOCC     OCC    AOCC    AVIR     VIR    FVIR
	   PAIRS       0      25      25     527     527       0
	 --------------------------------------------------------

  DFHelper Memory: AOs need 2.761 GiB; user supplied 22.352 GiB. Using in-core AOs.


         ------------------------------------------------------------
                                     CPHF                           
                                  Rob Parrish                       
         ------------------------------------------------------------

  ==> Geometry <==

    Molecular point group: c1
    Full point group: C1

    Geometry (in Angstrom), charge = 0, multiplicity = 1:

       Center              X                  Y                   Z               Mass       
    ------------   -----------------  -----------------  -----------------  -----------------
         N            0.950821332872     1.599877545009    -0.248004781987    14.003074004430
         N           -2.034847567128    -0.650755454991     0.087174418013    14.003074004430
         C            0.083711332872     0.640507545009     0.451196218013    12.000000000000
         C            0.875243332872    -0.639535454991     0.727307218013    12.000000000000
         C           -1.146896667128     0.401952545009    -0.418458781987    12.000000000000
         C            1.350722332872    -1.373250454991    -0.525018781987    12.000000000000
         H           -0.281636667128     1.015189545009     1.422147218013     1.007825032230
         H            0.260524332872    -1.297994454991     1.351468218013     1.007825032230
         H            1.744985332872    -0.372144454991     1.342643218013     1.007825032230
         H           -1.692664667128     1.349202545009    -0.510136781987     1.007825032230
         H           -0.814209667128     0.129495545009    -1.431103781987     1.007825032230
         H            2.004668332872    -2.208526454991    -0.257111781987     1.007825032230
         H            0.512864332872    -1.785365454991    -1.095844781987     1.007825032230
         H            1.900788332872    -0.695058454991    -1.180044781987     1.007825032230
         H            1.750029332872     1.822169545009     0.346118218013     1.007825032230
         H            0.448030332872     2.478773545009    -0.376143781987     1.007825032230
         H           -1.672619667128    -1.506699454991     0.092559218013     1.007825032230
         H           -2.943945667128    -0.562973454991    -0.268329781987     1.007825032230

  Nuclear repulsion =  265.072104863439449
  Reference energy  = -267.438247306350206

  ==> Basis Set <==

  Basis Set: AUG-CC-PVTZ
    Blend: AUG-CC-PVTZ
    Number of shells: 192
    Number of basis functions: 552
    Number of Cartesian functions: 630
    Spherical Harmonics?: true
    Max angular momentum: 3

  ==> CGRSolver (by Rob Parrish) <==

   Number of roots    =         1
   Preconditioning    =    JACOBI
   Convergence cutoff =     1E-06
   Maximum iterations =       100

  ==> CPHFRHamiltonian (by Rob Parrish) <== 

  ==> MemDFJK: Density-Fitted J/K Matrices <==

    J tasked:                   Yes
    K tasked:                   Yes
    wK tasked:                   No
    OpenMP threads:              32
    Memory [MiB]:             22888
    Algorithm:                 Core
    Schwarz Cutoff:           1E-12
    Mask sparsity (%):       1.9875
    Fitting Condition:        1E-10

   => Auxiliary Basis Set <=

  Basis Set: (AUG-CC-PVTZ AUX)
    Blend: AUG-CC-PVTZ-JKFIT
    Number of shells: 348
    Number of basis functions: 1176
    Number of Cartesian functions: 1446
    Spherical Harmonics?: true
    Max angular momentum: 4

  ==> CPHF Iterations <==

  => Iterations <=

             Iter  Converged  Remaining    Residual
  CGR           1          0          1   8.434E-02
  CGR           2          0          1   1.721E-02
  CGR           3          0          1   5.159E-03
  CGR           4          0          1   1.670E-03
  CGR           5          0          1   4.819E-04
  CGR           6          0          1   1.447E-04
  CGR           7          0          1   4.102E-05
  CGR           8          0          1   1.249E-05
  CGR           9          0          1   3.456E-06
  CGR          10          1          0   8.546E-07

    CGRSolver converged.

	-----------------------------------------------------------
	 ==================> DF-MP2 Energies <==================== 
	-----------------------------------------------------------
	 Reference Energy          =    -267.4382473063502061 [Eh]
	 Singles Energy            =      -0.0000000000000000 [Eh]
	 Same-Spin Energy          =      -0.2830533142760706 [Eh]
	 Opposite-Spin Energy      =      -0.9886524722499380 [Eh]
	 Correlation Energy        =      -1.2717057865260086 [Eh]
	 Total Energy              =    -268.7099530928762192 [Eh]
	-----------------------------------------------------------
	 ================> DF-SCS-MP2 Energies <================== 
	-----------------------------------------------------------
	 SCS Same-Spin Scale       =       0.3333333333333333 [-]
	 SCS Opposite-Spin Scale   =       1.2000000000000000 [-]
	 SCS Same-Spin Energy      =      -0.0943511047586902 [Eh]
	 SCS Opposite-Spin Energy  =      -1.1863829666999255 [Eh]
	 SCS Correlation Energy    =      -1.2807340714586157 [Eh]
	 SCS Total Energy          =    -268.7189813778088023 [Eh]
	-----------------------------------------------------------



Properties will be evaluated at   0.000000,  -0.000000,  -0.000000 [a0]

Properties computed using the MP2 density matrix

  Nuclear Dipole Moment: [e a0]
     X:     1.1439      Y:    -1.5345      Z:    -0.5281

  Electronic Dipole Moment: [e a0]
     X:    -1.2477      Y:     1.6952      Z:     0.6081

  Dipole Moment: [e a0]
     X:    -0.1038      Y:     0.1607      Z:     0.0800     Total:     0.2074

  Dipole Moment: [D]
     X:    -0.2639      Y:     0.4085      Z:     0.2034     Total:     0.5272


*** tstop() called on c401-054.stampede2.tacc.utexas.edu at Sat Feb 27 19:56:50 2021
Module time:
	user time   =     960.30 seconds =      16.00 minutes
	system time =      36.76 seconds =       0.61 minutes
	total time  =        110 seconds =       1.83 minutes
Total time:
	user time   =    1328.41 seconds =      22.14 minutes
	system time =      65.49 seconds =       1.09 minutes
	total time  =        134 seconds =       2.23 minutes

    Psi4 stopped on: Saturday, 27 February 2021 07:56PM
    Psi4 wall time for execution: 0:02:14.59

*** Psi4 exiting successfully. Buy a developer a beer!
