
    -----------------------------------------------------------------------
          Psi4: An Open-Source Ab Initio Electronic Structure Package
                               Psi4 1.4a3.dev225 

                         Git: Rev {master} 7105e37 


    D. G. A. Smith, L. A. Burns, A. C. Simmonett, R. M. Parrish,
    M. C. Schieber, R. Galvelis, P. Kraus, H. Kruse, R. Di Remigio,
    A. Alenaizan, A. M. James, S. Lehtola, J. P. Misiewicz, M. Scheurer,
    R. A. Shaw, J. B. Schriber, Y. Xie, Z. L. Glick, D. A. Sirianni,
    J. S. O'Brien, J. M. Waldrop, A. Kumar, E. G. Hohenstein,
    B. P. Pritchard, B. R. Brooks, H. F. Schaefer III, A. Yu. Sokolov,
    K. Patkowski, A. E. DePrince III, U. Bozkaya, R. A. King,
    F. A. Evangelista, J. M. Turney, T. D. Crawford, C. D. Sherrill,
    J. Chem. Phys. 152(18) 184108 (2020). https://doi.org/10.1063/5.0006002

                            Additional Code Authors
    E. T. Seidl, C. L. Janssen, E. F. Valeev, M. L. Leininger,
    J. F. Gonthier, R. M. Richard, H. R. McAlexander, M. Saitow, X. Wang,
    P. Verma, and M. H. Lechner

             Previous Authors, Complete List of Code Contributors,
                       and Citations for Specific Modules
    https://github.com/psi4/psi4/blob/master/codemeta.json
    https://github.com/psi4/psi4/graphs/contributors
    http://psicode.org/psi4manual/master/introduction.html#citing-psifour

    -----------------------------------------------------------------------


    Psi4 started on: Thursday, 01 April 2021 02:45AM

    Process ID: 79657
    Host:       c451-072.stampede2.tacc.utexas.edu
    PSIDATADIR: /home1/07844/xy3866/miniconda3/envs/p4env/share/psi4
    Memory:     500.0 MiB
    Threads:    8
    
  ==> Input File <==

--------------------------------------------------------------------------
#psi4
#
memory 32 gb

molecule  {
0 1
  N        0.9404650     1.6044440    -0.2603840
  N       -2.0577020    -0.5628020     0.2031370
  C        0.0733550     0.6450740     0.4388170
  C        0.8648870    -0.6349690     0.7149280
  C       -1.1733853     0.4033917    -0.4422385
  C        1.3403660    -1.3686840    -0.5373980
  H       -0.2919930     1.0197560     1.4097680
  H        0.2501680    -1.2934280     1.3390890
  H        1.7346290    -0.3675780     1.3302640
  H       -1.7030210     1.3537690    -0.5225160
  H       -0.8245660     0.1340620    -1.4434830
  H        1.9943120    -2.2039600    -0.2694910
  H        0.5025080    -1.7807990    -1.1082240
  H        1.8904320    -0.6904920    -1.1924240
  H        1.7396730     1.8267360     0.3337390
  H        0.4376740     2.4833400    -0.3885230
  H       -1.6829760    -1.5021330     0.0801800
  H       -2.9543020    -0.5584070    -0.2807090
units angstrom
no_reorient  #important for SAPT in psi4, default
symmetry c1  #important for SAPT in psi4, default
}

set PROPERTIES_ORIGIN ["COM"]
properties('MP2/aug-cc-pvtz', properties = ['dipole'])
--------------------------------------------------------------------------

  Memory set to  29.802 GiB by Python driver.
    SCF Algorithm Type (re)set to DF.

*** tstart() called on c451-072.stampede2.tacc.utexas.edu
*** at Thu Apr  1 02:46:04 2021

   => Loading Basis Set <=

    Name: AUG-CC-PVTZ
    Role: ORBITAL
    Keyword: BASIS
    atoms 1-2  entry N          line   285 file /home1/07844/xy3866/miniconda3/envs/p4env/share/psi4/basis/aug-cc-pvtz.gbs 
    atoms 3-6  entry C          line   239 file /home1/07844/xy3866/miniconda3/envs/p4env/share/psi4/basis/aug-cc-pvtz.gbs 
    atoms 7-18 entry H          line    40 file /home1/07844/xy3866/miniconda3/envs/p4env/share/psi4/basis/aug-cc-pvtz.gbs 


         ---------------------------------------------------------
                                   SCF
               by Justin Turney, Rob Parrish, Andy Simmonett
                          and Daniel G. A. Smith
                              RHF Reference
                        8 Threads,  30517 MiB Core
         ---------------------------------------------------------

  ==> Geometry <==

    Molecular point group: c1
    Full point group: C1

    Geometry (in Angstrom), charge = 0, multiplicity = 1:

       Center              X                  Y                   Z               Mass       
    ------------   -----------------  -----------------  -----------------  -----------------
         N            0.955005205934     1.587049552828    -0.266851238414    14.003074004430
         N           -2.043161794066    -0.580196447172     0.196669761586    14.003074004430
         C            0.087895205934     0.627679552828     0.432349761586    12.000000000000
         C            0.879427205934    -0.652363447172     0.708460761586    12.000000000000
         C           -1.158845094066     0.385997252828    -0.448705738414    12.000000000000
         C            1.354906205934    -1.386078447172    -0.543865238414    12.000000000000
         H           -0.277452794066     1.002361552828     1.403300761586     1.007825032230
         H            0.264708205934    -1.310822447172     1.332621761586     1.007825032230
         H            1.749169205934    -0.384972447172     1.323796761586     1.007825032230
         H           -1.688480794066     1.336374552828    -0.528983238414     1.007825032230
         H           -0.810025794066     0.116667552828    -1.449950238414     1.007825032230
         H            2.008852205934    -2.221354447172    -0.275958238414     1.007825032230
         H            0.517048205934    -1.798193447172    -1.114691238414     1.007825032230
         H            1.904972205934    -0.707886447172    -1.198891238414     1.007825032230
         H            1.754213205934     1.809341552828     0.327271761586     1.007825032230
         H            0.452214205934     2.465945552828    -0.394990238414     1.007825032230
         H           -1.668435794066    -1.519527447172     0.073712761586     1.007825032230
         H           -2.939761794066    -0.575801447172    -0.287176238414     1.007825032230

  Running in c1 symmetry.

  Rotational constants: A =      0.13280  B =      0.09621  C =      0.06782 [cm^-1]
  Rotational constants: A =   3981.21120  B =   2884.35665  C =   2033.10263 [MHz]
  Nuclear repulsion =  264.511568945301406

  Charge       = 0
  Multiplicity = 1
  Electrons    = 50
  Nalpha       = 25
  Nbeta        = 25

  ==> Algorithm <==

  SCF Algorithm Type is DF.
  DIIS enabled.
  MOM disabled.
  Fractional occupation disabled.
  Guess Type is SAD.
  Energy threshold   = 1.00e-10
  Density threshold  = 1.00e-10
  Integral threshold = 1.00e-12

  ==> Primary Basis <==

  Basis Set: AUG-CC-PVTZ
    Blend: AUG-CC-PVTZ
    Number of shells: 192
    Number of basis functions: 552
    Number of Cartesian functions: 630
    Spherical Harmonics?: true
    Max angular momentum: 3

   => Loading Basis Set <=

    Name: (AUG-CC-PVTZ AUX)
    Role: JKFIT
    Keyword: DF_BASIS_SCF
    atoms 1-2  entry N          line   224 file /home1/07844/xy3866/miniconda3/envs/p4env/share/psi4/basis/aug-cc-pvtz-jkfit.gbs 
    atoms 3-6  entry C          line   162 file /home1/07844/xy3866/miniconda3/envs/p4env/share/psi4/basis/aug-cc-pvtz-jkfit.gbs 
    atoms 7-18 entry H          line    70 file /home1/07844/xy3866/miniconda3/envs/p4env/share/psi4/basis/aug-cc-pvtz-jkfit.gbs 

  ==> Integral Setup <==

  DFHelper Memory: AOs need 2.662 GiB; user supplied 22.352 GiB. Using in-core AOs.

  ==> MemDFJK: Density-Fitted J/K Matrices <==

    J tasked:                   Yes
    K tasked:                   Yes
    wK tasked:                   No
    OpenMP threads:               8
    Memory [MiB]:             22888
    Algorithm:                 Core
    Schwarz Cutoff:           1E-12
    Mask sparsity (%):       3.6718
    Fitting Condition:        1E-10

   => Auxiliary Basis Set <=

  Basis Set: (AUG-CC-PVTZ AUX)
    Blend: AUG-CC-PVTZ-JKFIT
    Number of shells: 348
    Number of basis functions: 1176
    Number of Cartesian functions: 1446
    Spherical Harmonics?: true
    Max angular momentum: 4

  Minimum eigenvalue in the overlap matrix is 3.2478843404E-06.
  Reciprocal condition number of the overlap matrix is 1.4968843215E-07.
    Using symmetric orthogonalization.

  ==> Pre-Iterations <==

  SCF Guess: Superposition of Atomic Densities via on-the-fly atomic UHF (no occupation information).

   -------------------------
    Irrep   Nso     Nmo    
   -------------------------
     A        552     552 
   -------------------------
    Total     552     552
   -------------------------

  ==> Iterations <==

                           Total Energy        Delta E     RMS |[F,P]|

   @DF-RHF iter SAD:  -266.93944149646603   -2.66939e+02   0.00000e+00 
   @DF-RHF iter   1:  -267.12467230121081   -1.85231e-01   1.35706e-03 DIIS
   @DF-RHF iter   2:  -267.36536823213152   -2.40696e-01   7.40903e-04 DIIS
   @DF-RHF iter   3:  -267.44107332385408   -7.57051e-02   1.10358e-04 DIIS
   @DF-RHF iter   4:  -267.44462645825956   -3.55313e-03   2.44315e-05 DIIS
   @DF-RHF iter   5:  -267.44477250336769   -1.46045e-04   7.33866e-06 DIIS
   @DF-RHF iter   6:  -267.44478636237261   -1.38590e-05   1.78347e-06 DIIS
   @DF-RHF iter   7:  -267.44478736654673   -1.00417e-06   5.26996e-07 DIIS
   @DF-RHF iter   8:  -267.44478745356423   -8.70175e-08   1.78070e-07 DIIS
   @DF-RHF iter   9:  -267.44478746311478   -9.55055e-09   5.26102e-08 DIIS
   @DF-RHF iter  10:  -267.44478746424761   -1.13283e-09   1.27452e-08 DIIS
   @DF-RHF iter  11:  -267.44478746432293   -7.53175e-11   3.43985e-09 DIIS
   @DF-RHF iter  12:  -267.44478746432861   -5.68434e-12   1.21376e-09 DIIS
   @DF-RHF iter  13:  -267.44478746432964   -1.02318e-12   3.74940e-10 DIIS
   @DF-RHF iter  14:  -267.44478746433003   -3.97904e-13   1.15842e-10 DIIS
   @DF-RHF iter  15:  -267.44478746433037   -3.41061e-13   3.56054e-11 DIIS
  Energy and wave function converged.


  ==> Post-Iterations <==

    Orbital Energies [Eh]
    ---------------------

    Doubly Occupied:                                                      

       1A    -15.541921     2A    -15.537945     3A    -11.245760  
       4A    -11.241875     5A    -11.214101     6A    -11.205487  
       7A     -1.196490     8A     -1.160449     9A     -1.028831  
      10A     -0.935997    11A     -0.863554    12A     -0.749980  
      13A     -0.672289    14A     -0.661693    15A     -0.642373  
      16A     -0.589551    17A     -0.581763    18A     -0.553545  
      19A     -0.533365    20A     -0.512820    21A     -0.491651  
      22A     -0.467558    23A     -0.452158    24A     -0.394407  
      25A     -0.387725  

    Virtual:                                                              

      26A      0.029308    27A      0.034036    28A      0.036203  
      29A      0.040960    30A      0.053133    31A      0.054061  
      32A      0.057904    33A      0.060065    34A      0.065740  
      35A      0.077954    36A      0.081228    37A      0.088619  
      38A      0.113055    39A      0.118382    40A      0.120879  
      41A      0.124236    42A      0.128327    43A      0.129817  
      44A      0.134489    45A      0.137301    46A      0.147686  
      47A      0.151576    48A      0.157742    49A      0.162061  
      50A      0.166637    51A      0.171531    52A      0.178180  
      53A      0.186668    54A      0.190648    55A      0.198296  
      56A      0.207376    57A      0.215733    58A      0.226575  
      59A      0.237653    60A      0.253864    61A      0.255245  
      62A      0.267584    63A      0.275124    64A      0.279466  
      65A      0.288905    66A      0.292338    67A      0.300428  
      68A      0.307173    69A      0.315224    70A      0.323119  
      71A      0.330016    72A      0.330632    73A      0.335608  
      74A      0.342732    75A      0.348029    76A      0.353746  
      77A      0.357586    78A      0.361787    79A      0.370847  
      80A      0.378995    81A      0.385002    82A      0.389765  
      83A      0.391453    84A      0.396846    85A      0.403941  
      86A      0.404761    87A      0.409408    88A      0.412279  
      89A      0.420722    90A      0.432343    91A      0.433263  
      92A      0.438453    93A      0.445295    94A      0.446435  
      95A      0.462388    96A      0.464157    97A      0.470313  
      98A      0.474853    99A      0.475649   100A      0.477633  
     101A      0.486755   102A      0.492839   103A      0.496794  
     104A      0.498822   105A      0.501398   106A      0.508768  
     107A      0.514749   108A      0.525943   109A      0.528151  
     110A      0.534196   111A      0.544043   112A      0.549100  
     113A      0.555046   114A      0.560010   115A      0.562086  
     116A      0.568707   117A      0.572944   118A      0.589878  
     119A      0.593384   120A      0.600505   121A      0.606430  
     122A      0.609487   123A      0.619601   124A      0.625533  
     125A      0.641491   126A      0.644750   127A      0.649154  
     128A      0.651495   129A      0.663204   130A      0.674184  
     131A      0.679997   132A      0.685648   133A      0.699536  
     134A      0.713306   135A      0.725285   136A      0.729970  
     137A      0.739214   138A      0.751338   139A      0.764057  
     140A      0.771510   141A      0.778368   142A      0.791709  
     143A      0.795079   144A      0.801889   145A      0.809884  
     146A      0.826467   147A      0.833342   148A      0.838518  
     149A      0.850869   150A      0.862065   151A      0.872451  
     152A      0.880507   153A      0.886955   154A      0.893129  
     155A      0.898143   156A      0.908400   157A      0.919680  
     158A      0.924017   159A      0.927254   160A      0.933498  
     161A      0.943327   162A      0.954704   163A      0.958144  
     164A      0.963386   165A      0.976053   166A      0.982061  
     167A      0.987310   168A      0.999832   169A      1.007645  
     170A      1.012454   171A      1.024708   172A      1.032771  
     173A      1.036989   174A      1.044310   175A      1.052307  
     176A      1.056555   177A      1.068265   178A      1.074660  
     179A      1.075699   180A      1.086987   181A      1.094462  
     182A      1.098369   183A      1.108575   184A      1.118679  
     185A      1.126094   186A      1.129561   187A      1.136632  
     188A      1.147558   189A      1.155463   190A      1.164771  
     191A      1.169462   192A      1.181253   193A      1.191843  
     194A      1.196466   195A      1.202939   196A      1.213710  
     197A      1.218807   198A      1.225237   199A      1.231493  
     200A      1.240991   201A      1.245068   202A      1.255354  
     203A      1.263650   204A      1.268653   205A      1.279611  
     206A      1.289087   207A      1.294547   208A      1.304284  
     209A      1.310984   210A      1.318401   211A      1.329188  
     212A      1.330291   213A      1.346547   214A      1.351125  
     215A      1.356953   216A      1.375002   217A      1.378849  
     218A      1.380207   219A      1.396043   220A      1.401969  
     221A      1.414660   222A      1.426124   223A      1.438868  
     224A      1.445648   225A      1.464320   226A      1.475440  
     227A      1.478304   228A      1.483740   229A      1.508187  
     230A      1.513751   231A      1.522392   232A      1.542966  
     233A      1.548238   234A      1.554692   235A      1.556940  
     236A      1.577744   237A      1.583495   238A      1.590482  
     239A      1.594930   240A      1.601207   241A      1.617163  
     242A      1.630659   243A      1.634077   244A      1.646385  
     245A      1.652482   246A      1.661720   247A      1.674595  
     248A      1.681393   249A      1.692681   250A      1.700736  
     251A      1.720927   252A      1.724496   253A      1.729456  
     254A      1.734547   255A      1.753655   256A      1.755184  
     257A      1.767398   258A      1.770046   259A      1.785550  
     260A      1.801191   261A      1.816140   262A      1.822256  
     263A      1.824798   264A      1.832134   265A      1.838724  
     266A      1.854680   267A      1.861385   268A      1.865451  
     269A      1.891518   270A      1.893498   271A      1.903828  
     272A      1.916895   273A      1.940030   274A      1.951892  
     275A      1.968177   276A      1.974709   277A      1.982288  
     278A      2.001390   279A      2.004654   280A      2.007058  
     281A      2.013678   282A      2.028590   283A      2.035491  
     284A      2.046816   285A      2.055912   286A      2.069448  
     287A      2.084574   288A      2.097142   289A      2.104342  
     290A      2.111190   291A      2.134106   292A      2.145461  
     293A      2.155760   294A      2.164312   295A      2.173073  
     296A      2.182213   297A      2.198407   298A      2.201653  
     299A      2.231842   300A      2.251044   301A      2.255576  
     302A      2.285762   303A      2.288605   304A      2.311973  
     305A      2.318872   306A      2.327021   307A      2.335654  
     308A      2.336667   309A      2.345355   310A      2.365804  
     311A      2.366786   312A      2.386482   313A      2.411075  
     314A      2.427892   315A      2.433283   316A      2.454148  
     317A      2.462678   318A      2.472913   319A      2.485254  
     320A      2.493115   321A      2.514973   322A      2.519581  
     323A      2.537055   324A      2.545320   325A      2.563978  
     326A      2.579532   327A      2.601611   328A      2.615216  
     329A      2.620978   330A      2.629924   331A      2.662523  
     332A      2.683854   333A      2.687120   334A      2.706510  
     335A      2.712005   336A      2.744278   337A      2.769448  
     338A      2.806596   339A      2.811576   340A      2.841946  
     341A      2.875063   342A      2.880692   343A      2.953698  
     344A      3.020629   345A      3.044518   346A      3.103454  
     347A      3.180788   348A      3.215934   349A      3.319343  
     350A      3.372346   351A      3.415870   352A      3.464724  
     353A      3.492792   354A      3.521350   355A      3.554629  
     356A      3.566019   357A      3.579555   358A      3.628793  
     359A      3.639250   360A      3.648279   361A      3.656421  
     362A      3.663159   363A      3.691309   364A      3.716266  
     365A      3.732135   366A      3.760780   367A      3.763916  
     368A      3.774686   369A      3.786051   370A      3.795496  
     371A      3.819656   372A      3.840944   373A      3.853533  
     374A      3.880081   375A      3.892076   376A      3.900398  
     377A      3.911154   378A      3.926828   379A      3.938854  
     380A      3.949431   381A      3.966286   382A      3.986802  
     383A      4.003638   384A      4.010717   385A      4.018746  
     386A      4.025932   387A      4.039816   388A      4.045719  
     389A      4.060801   390A      4.062847   391A      4.075664  
     392A      4.089255   393A      4.117980   394A      4.127689  
     395A      4.140274   396A      4.145452   397A      4.166227  
     398A      4.168036   399A      4.182350   400A      4.199701  
     401A      4.220799   402A      4.237608   403A      4.241265  
     404A      4.248154   405A      4.270883   406A      4.279082  
     407A      4.288510   408A      4.303171   409A      4.321106  
     410A      4.326336   411A      4.352488   412A      4.353766  
     413A      4.374000   414A      4.386229   415A      4.412020  
     416A      4.424887   417A      4.438060   418A      4.442948  
     419A      4.454703   420A      4.477005   421A      4.484624  
     422A      4.525575   423A      4.533694   424A      4.543660  
     425A      4.565100   426A      4.582587   427A      4.583984  
     428A      4.616311   429A      4.635450   430A      4.646385  
     431A      4.659215   432A      4.664322   433A      4.680896  
     434A      4.686833   435A      4.714453   436A      4.727217  
     437A      4.742225   438A      4.758874   439A      4.768269  
     440A      4.782436   441A      4.787374   442A      4.822441  
     443A      4.825952   444A      4.838053   445A      4.871180  
     446A      4.873898   447A      4.894113   448A      4.903815  
     449A      4.926985   450A      4.939229   451A      4.964120  
     452A      4.977003   453A      4.996865   454A      5.004676  
     455A      5.010095   456A      5.044438   457A      5.058177  
     458A      5.074490   459A      5.093633   460A      5.108053  
     461A      5.113615   462A      5.138914   463A      5.146990  
     464A      5.150646   465A      5.159489   466A      5.173612  
     467A      5.185696   468A      5.196565   469A      5.203542  
     470A      5.248090   471A      5.263629   472A      5.273192  
     473A      5.290563   474A      5.300582   475A      5.319842  
     476A      5.347245   477A      5.361716   478A      5.384420  
     479A      5.391649   480A      5.400204   481A      5.413937  
     482A      5.424476   483A      5.431482   484A      5.452677  
     485A      5.475286   486A      5.480482   487A      5.495736  
     488A      5.508749   489A      5.552575   490A      5.564707  
     491A      5.579446   492A      5.616396   493A      5.641124  
     494A      5.672676   495A      5.682618   496A      5.690579  
     497A      5.704342   498A      5.726395   499A      5.740115  
     500A      5.766575   501A      5.821118   502A      5.823654  
     503A      5.862622   504A      5.867833   505A      5.889269  
     506A      5.919420   507A      5.945217   508A      5.987032  
     509A      6.014882   510A      6.022925   511A      6.048816  
     512A      6.079338   513A      6.084694   514A      6.105313  
     515A      6.113639   516A      6.133728   517A      6.165665  
     518A      6.199167   519A      6.240697   520A      6.255255  
     521A      6.269635   522A      6.280999   523A      6.308167  
     524A      6.335998   525A      6.351284   526A      6.408256  
     527A      6.425264   528A      6.433098   529A      6.463152  
     530A      6.556390   531A      6.603947   532A      6.624052  
     533A      6.766495   534A      6.824351   535A      6.866212  
     536A      6.896014   537A      6.911986   538A      6.965008  
     539A      7.004356   540A      7.046455   541A      7.112746  
     542A      7.171598   543A      7.290718   544A      7.362179  
     545A      7.891996   546A      7.904386   547A     17.363967  
     548A     17.914895   549A     17.993534   550A     18.500872  
     551A     18.830449   552A     19.454642  

    Final Occupation by Irrep:
              A 
    DOCC [    25 ]

  @DF-RHF Final Energy:  -267.44478746433037

   => Energetics <=

    Nuclear Repulsion Energy =            264.5115689453014056
    One-Electron Energy =                -886.1861351675654532
    Two-Electron Energy =                 354.2297787579336728
    Total Energy =                       -267.4447874643303749

Computation Completed

*** tstop() called on c451-072.stampede2.tacc.utexas.edu at Thu Apr  1 02:46:40 2021
Module time:
	user time   =     204.59 seconds =       3.41 minutes
	system time =       6.31 seconds =       0.11 minutes
	total time  =         36 seconds =       0.60 minutes
Total time:
	user time   =     204.59 seconds =       3.41 minutes
	system time =       6.31 seconds =       0.11 minutes
	total time  =         36 seconds =       0.60 minutes
   => Loading Basis Set <=

    Name: (AUG-CC-PVTZ AUX)
    Role: RIFIT
    Keyword: DF_BASIS_MP2
    atoms 1-2  entry N          line   206 file /home1/07844/xy3866/miniconda3/envs/p4env/share/psi4/basis/aug-cc-pvtz-ri.gbs 
    atoms 3-6  entry C          line   148 file /home1/07844/xy3866/miniconda3/envs/p4env/share/psi4/basis/aug-cc-pvtz-ri.gbs 
    atoms 7-18 entry H          line    30 file /home1/07844/xy3866/miniconda3/envs/p4env/share/psi4/basis/aug-cc-pvtz-ri.gbs 


*** tstart() called on c451-072.stampede2.tacc.utexas.edu
*** at Thu Apr  1 02:46:41 2021


  //>>>>>>>>>>>>>>>>>>>>>>>>>>>>>>>>>>>//
  //               DFMP2               //
  //<<<<<<<<<<<<<<<<<<<<<<<<<<<<<<<<<<<//

	 --------------------------------------------------------
	                          DF-MP2                         
	      2nd-Order Density-Fitted Moller-Plesset Theory     
	              RMP2 Wavefunction,   8 Threads             
	                                                         
	        Rob Parrish, Justin Turney, Andy Simmonett,      
	           Ed Hohenstein, and C. David Sherrill          
	 --------------------------------------------------------

   => Auxiliary Basis Set <=

  Basis Set: (AUG-CC-PVTZ AUX)
    Blend: AUG-CC-PVTZ-RI
    Number of shells: 336
    Number of basis functions: 1188
    Number of Cartesian functions: 1476
    Spherical Harmonics?: true
    Max angular momentum: 4

	 --------------------------------------------------------
	                 NBF =   552, NAUX =  1188
	 --------------------------------------------------------
	   CLASS    FOCC     OCC    AOCC    AVIR     VIR    FVIR
	   PAIRS       0      25      25     527     527       0
	 --------------------------------------------------------

  DFHelper Memory: AOs need 2.706 GiB; user supplied 22.352 GiB. Using in-core AOs.


         ------------------------------------------------------------
                                     CPHF                           
                                  Rob Parrish                       
         ------------------------------------------------------------

  ==> Geometry <==

    Molecular point group: c1
    Full point group: C1

    Geometry (in Angstrom), charge = 0, multiplicity = 1:

       Center              X                  Y                   Z               Mass       
    ------------   -----------------  -----------------  -----------------  -----------------
         N            0.955005205934     1.587049552828    -0.266851238414    14.003074004430
         N           -2.043161794066    -0.580196447172     0.196669761586    14.003074004430
         C            0.087895205934     0.627679552828     0.432349761586    12.000000000000
         C            0.879427205934    -0.652363447172     0.708460761586    12.000000000000
         C           -1.158845094066     0.385997252828    -0.448705738414    12.000000000000
         C            1.354906205934    -1.386078447172    -0.543865238414    12.000000000000
         H           -0.277452794066     1.002361552828     1.403300761586     1.007825032230
         H            0.264708205934    -1.310822447172     1.332621761586     1.007825032230
         H            1.749169205934    -0.384972447172     1.323796761586     1.007825032230
         H           -1.688480794066     1.336374552828    -0.528983238414     1.007825032230
         H           -0.810025794066     0.116667552828    -1.449950238414     1.007825032230
         H            2.008852205934    -2.221354447172    -0.275958238414     1.007825032230
         H            0.517048205934    -1.798193447172    -1.114691238414     1.007825032230
         H            1.904972205934    -0.707886447172    -1.198891238414     1.007825032230
         H            1.754213205934     1.809341552828     0.327271761586     1.007825032230
         H            0.452214205934     2.465945552828    -0.394990238414     1.007825032230
         H           -1.668435794066    -1.519527447172     0.073712761586     1.007825032230
         H           -2.939761794066    -0.575801447172    -0.287176238414     1.007825032230

  Nuclear repulsion =  264.511568945301406
  Reference energy  = -267.444787464330375

  ==> Basis Set <==

  Basis Set: AUG-CC-PVTZ
    Blend: AUG-CC-PVTZ
    Number of shells: 192
    Number of basis functions: 552
    Number of Cartesian functions: 630
    Spherical Harmonics?: true
    Max angular momentum: 3

  ==> CGRSolver (by Rob Parrish) <==

   Number of roots    =         1
   Preconditioning    =    JACOBI
   Convergence cutoff =     1E-06
   Maximum iterations =       100

  ==> CPHFRHamiltonian (by Rob Parrish) <== 

  ==> MemDFJK: Density-Fitted J/K Matrices <==

    J tasked:                   Yes
    K tasked:                   Yes
    wK tasked:                   No
    OpenMP threads:               8
    Memory [MiB]:             22888
    Algorithm:                 Core
    Schwarz Cutoff:           1E-12
    Mask sparsity (%):       1.9875
    Fitting Condition:        1E-10

   => Auxiliary Basis Set <=

  Basis Set: (AUG-CC-PVTZ AUX)
    Blend: AUG-CC-PVTZ-JKFIT
    Number of shells: 348
    Number of basis functions: 1176
    Number of Cartesian functions: 1446
    Spherical Harmonics?: true
    Max angular momentum: 4

  ==> CPHF Iterations <==

  => Iterations <=

             Iter  Converged  Remaining    Residual
  CGR           1          0          1   8.589E-02
  CGR           2          0          1   1.753E-02
  CGR           3          0          1   5.137E-03
  CGR           4          0          1   1.626E-03
  CGR           5          0          1   4.435E-04
  CGR           6          0          1   1.342E-04
  CGR           7          0          1   3.914E-05
  CGR           8          0          1   1.347E-05
  CGR           9          0          1   3.790E-06
  CGR          10          1          0   9.877E-07

    CGRSolver converged.

	-----------------------------------------------------------
	 ==================> DF-MP2 Energies <==================== 
	-----------------------------------------------------------
	 Reference Energy          =    -267.4447874643303749 [Eh]
	 Singles Energy            =      -0.0000000000000000 [Eh]
	 Same-Spin Energy          =      -0.2836417809103812 [Eh]
	 Opposite-Spin Energy      =      -0.9909227902645611 [Eh]
	 Correlation Energy        =      -1.2745645711749423 [Eh]
	 Total Energy              =    -268.7193520355053238 [Eh]
	-----------------------------------------------------------
	 ================> DF-SCS-MP2 Energies <================== 
	-----------------------------------------------------------
	 SCS Same-Spin Scale       =       0.3333333333333333 [-]
	 SCS Opposite-Spin Scale   =       1.2000000000000000 [-]
	 SCS Same-Spin Energy      =      -0.0945472603034604 [Eh]
	 SCS Opposite-Spin Energy  =      -1.1891073483174732 [Eh]
	 SCS Correlation Energy    =      -1.2836546086209337 [Eh]
	 SCS Total Energy          =    -268.7284420729512817 [Eh]
	-----------------------------------------------------------



Properties will be evaluated at  -0.000000,  -0.000000,   0.000000 [a0]

Properties computed using the MP2 density matrix

  Nuclear Dipole Moment: [e a0]
     X:     1.1910      Y:    -1.6790      Z:    -0.7403

  Electronic Dipole Moment: [e a0]
     X:    -1.2879      Y:     1.7751      Z:     0.6989

  Dipole Moment: [e a0]
     X:    -0.0970      Y:     0.0961      Z:    -0.0414     Total:     0.1427

  Dipole Moment: [D]
     X:    -0.2464      Y:     0.2443      Z:    -0.1053     Total:     0.3626


*** tstop() called on c451-072.stampede2.tacc.utexas.edu at Thu Apr  1 02:48:37 2021
Module time:
	user time   =     714.51 seconds =      11.91 minutes
	system time =      11.23 seconds =       0.19 minutes
	total time  =        116 seconds =       1.93 minutes
Total time:
	user time   =     919.95 seconds =      15.33 minutes
	system time =      17.55 seconds =       0.29 minutes
	total time  =        153 seconds =       2.55 minutes

    Psi4 stopped on: Thursday, 01 April 2021 02:48AM
    Psi4 wall time for execution: 0:02:34.40

*** Psi4 exiting successfully. Buy a developer a beer!
