
    -----------------------------------------------------------------------
          Psi4: An Open-Source Ab Initio Electronic Structure Package
                               Psi4 1.4a3.dev225 

                         Git: Rev {master} 7105e37 


    D. G. A. Smith, L. A. Burns, A. C. Simmonett, R. M. Parrish,
    M. C. Schieber, R. Galvelis, P. Kraus, H. Kruse, R. Di Remigio,
    A. Alenaizan, A. M. James, S. Lehtola, J. P. Misiewicz, M. Scheurer,
    R. A. Shaw, J. B. Schriber, Y. Xie, Z. L. Glick, D. A. Sirianni,
    J. S. O'Brien, J. M. Waldrop, A. Kumar, E. G. Hohenstein,
    B. P. Pritchard, B. R. Brooks, H. F. Schaefer III, A. Yu. Sokolov,
    K. Patkowski, A. E. DePrince III, U. Bozkaya, R. A. King,
    F. A. Evangelista, J. M. Turney, T. D. Crawford, C. D. Sherrill,
    J. Chem. Phys. 152(18) 184108 (2020). https://doi.org/10.1063/5.0006002

                            Additional Code Authors
    E. T. Seidl, C. L. Janssen, E. F. Valeev, M. L. Leininger,
    J. F. Gonthier, R. M. Richard, H. R. McAlexander, M. Saitow, X. Wang,
    P. Verma, and M. H. Lechner

             Previous Authors, Complete List of Code Contributors,
                       and Citations for Specific Modules
    https://github.com/psi4/psi4/blob/master/codemeta.json
    https://github.com/psi4/psi4/graphs/contributors
    http://psicode.org/psi4manual/master/introduction.html#citing-psifour

    -----------------------------------------------------------------------


    Psi4 started on: Friday, 19 March 2021 09:14PM

    Process ID: 253032
    Host:       c446-101.stampede2.tacc.utexas.edu
    PSIDATADIR: /home1/07844/xy3866/miniconda3/envs/p4env/share/psi4
    Memory:     500.0 MiB
    Threads:    32
    
  ==> Input File <==

--------------------------------------------------------------------------
#psi4
#
memory 32 gb

molecule  {
0 1
  N       -1.0175820    -0.3767630     0.0000260
  N        0.0381600    -1.2151070    -0.0000250
  C       -0.6759380     0.9397300     0.0000060
  C        0.7089440     0.9680670    -0.0000050
  C        1.0845239    -0.3344434    -0.0000079
  H       -1.4207460     1.7232830     0.0000220
  H        1.3402470     1.8449540    -0.0000100
  H       -1.9477390    -0.7754960     0.0000400
  H        2.0958970    -0.8015150    -0.0000160
units angstrom
no_reorient  #important for SAPT in psi4, default
symmetry c1  #important for SAPT in psi4, default
}

set PROPERTIES_ORIGIN ["COM"]
properties('MP2/aug-cc-pvtz', properties = ['dipole'])
--------------------------------------------------------------------------

  Memory set to  29.802 GiB by Python driver.
    SCF Algorithm Type (re)set to DF.

*** tstart() called on c446-101.stampede2.tacc.utexas.edu
*** at Fri Mar 19 21:14:50 2021

   => Loading Basis Set <=

    Name: AUG-CC-PVTZ
    Role: ORBITAL
    Keyword: BASIS
    atoms 1-2 entry N          line   285 file /home1/07844/xy3866/miniconda3/envs/p4env/share/psi4/basis/aug-cc-pvtz.gbs 
    atoms 3-5 entry C          line   239 file /home1/07844/xy3866/miniconda3/envs/p4env/share/psi4/basis/aug-cc-pvtz.gbs 
    atoms 6-9 entry H          line    40 file /home1/07844/xy3866/miniconda3/envs/p4env/share/psi4/basis/aug-cc-pvtz.gbs 


         ---------------------------------------------------------
                                   SCF
               by Justin Turney, Rob Parrish, Andy Simmonett
                          and Daniel G. A. Smith
                              RHF Reference
                       32 Threads,  30517 MiB Core
         ---------------------------------------------------------

  ==> Geometry <==

    Molecular point group: c1
    Full point group: C1

    Geometry (in Angstrom), charge = 0, multiplicity = 1:

       Center              X                  Y                   Z               Mass       
    ------------   -----------------  -----------------  -----------------  -----------------
         N           -1.014107861563    -0.356126970192     0.000026477902    14.003074004430
         N            0.041634138437    -1.194470970192    -0.000024522098    14.003074004430
         C           -0.672463861563     0.960366029808     0.000006477902    12.000000000000
         C            0.712418138437     0.988703029808    -0.000004522098    12.000000000000
         C            1.087998038437    -0.313807370192    -0.000007422098    12.000000000000
         H           -1.417271861563     1.743919029808     0.000022477902     1.007825032230
         H            1.343721138437     1.865590029808    -0.000009522098     1.007825032230
         H           -1.944264861563    -0.754859970192     0.000040477902     1.007825032230
         H            2.099371138437    -0.780878970192    -0.000015522098     1.007825032230

  Running in c1 symmetry.

  Rotational constants: A =      0.32525  B =      0.31271  C =      0.15943 [cm^-1]
  Rotational constants: A =   9750.64527  B =   9374.71699  C =   4779.49325 [MHz]
  Nuclear repulsion =  163.058650408362013

  Charge       = 0
  Multiplicity = 1
  Electrons    = 36
  Nalpha       = 18
  Nbeta        = 18

  ==> Algorithm <==

  SCF Algorithm Type is DF.
  DIIS enabled.
  MOM disabled.
  Fractional occupation disabled.
  Guess Type is SAD.
  Energy threshold   = 1.00e-10
  Density threshold  = 1.00e-10
  Integral threshold = 1.00e-12

  ==> Primary Basis <==

  Basis Set: AUG-CC-PVTZ
    Blend: AUG-CC-PVTZ
    Number of shells: 106
    Number of basis functions: 322
    Number of Cartesian functions: 375
    Spherical Harmonics?: true
    Max angular momentum: 3

   => Loading Basis Set <=

    Name: (AUG-CC-PVTZ AUX)
    Role: JKFIT
    Keyword: DF_BASIS_SCF
    atoms 1-2 entry N          line   224 file /home1/07844/xy3866/miniconda3/envs/p4env/share/psi4/basis/aug-cc-pvtz-jkfit.gbs 
    atoms 3-5 entry C          line   162 file /home1/07844/xy3866/miniconda3/envs/p4env/share/psi4/basis/aug-cc-pvtz-jkfit.gbs 
    atoms 6-9 entry H          line    70 file /home1/07844/xy3866/miniconda3/envs/p4env/share/psi4/basis/aug-cc-pvtz-jkfit.gbs 

  ==> Integral Setup <==

  DFHelper Memory: AOs need 0.589 GiB; user supplied 22.352 GiB. Using in-core AOs.

  ==> MemDFJK: Density-Fitted J/K Matrices <==

    J tasked:                   Yes
    K tasked:                   Yes
    wK tasked:                   No
    OpenMP threads:              32
    Memory [MiB]:             22888
    Algorithm:                 Core
    Schwarz Cutoff:           1E-12
    Mask sparsity (%):       0.7484
    Fitting Condition:        1E-10

   => Auxiliary Basis Set <=

  Basis Set: (AUG-CC-PVTZ AUX)
    Blend: AUG-CC-PVTZ-JKFIT
    Number of shells: 206
    Number of basis functions: 704
    Number of Cartesian functions: 875
    Spherical Harmonics?: true
    Max angular momentum: 4

  Minimum eigenvalue in the overlap matrix is 7.4991894758E-06.
  Reciprocal condition number of the overlap matrix is 5.3412023190E-07.
    Using symmetric orthogonalization.

  ==> Pre-Iterations <==

  SCF Guess: Superposition of Atomic Densities via on-the-fly atomic UHF (no occupation information).

   -------------------------
    Irrep   Nso     Nmo    
   -------------------------
     A        322     322 
   -------------------------
    Total     322     322
   -------------------------

  ==> Iterations <==

                           Total Energy        Delta E     RMS |[F,P]|

   @DF-RHF iter SAD:  -224.49645870641876   -2.24496e+02   0.00000e+00 
   @DF-RHF iter   1:  -224.73579776791621   -2.39339e-01   1.47991e-03 DIIS
   @DF-RHF iter   2:  -224.84059113306066   -1.04793e-01   7.30823e-04 DIIS
   @DF-RHF iter   3:  -224.86628889428030   -2.56978e-02   1.40206e-04 DIIS
   @DF-RHF iter   4:  -224.86769349889565   -1.40460e-03   5.45223e-05 DIIS
   @DF-RHF iter   5:  -224.86785361809740   -1.60119e-04   1.32022e-05 DIIS
   @DF-RHF iter   6:  -224.86787183434168   -1.82162e-05   4.91055e-06 DIIS
   @DF-RHF iter   7:  -224.86787592925600   -4.09491e-06   2.19478e-06 DIIS
   @DF-RHF iter   8:  -224.86787689117565   -9.61920e-07   1.12164e-06 DIIS
   @DF-RHF iter   9:  -224.86787713150278   -2.40327e-07   3.31270e-07 DIIS
   @DF-RHF iter  10:  -224.86787714481025   -1.33075e-08   1.14855e-07 DIIS
   @DF-RHF iter  11:  -224.86787714596267   -1.15242e-09   2.29100e-08 DIIS
   @DF-RHF iter  12:  -224.86787714603230   -6.96332e-11   6.14801e-09 DIIS
   @DF-RHF iter  13:  -224.86787714603747   -5.17275e-12   1.96316e-09 DIIS
   @DF-RHF iter  14:  -224.86787714603790   -4.26326e-13   9.55962e-10 DIIS
   @DF-RHF iter  15:  -224.86787714603804   -1.42109e-13   3.63596e-10 DIIS
   @DF-RHF iter  16:  -224.86787714603832   -2.84217e-13   1.77003e-10 DIIS
   @DF-RHF iter  17:  -224.86787714603844   -1.13687e-13   7.89998e-11 DIIS
  Energy and wave function converged.


  ==> Post-Iterations <==

    Orbital Energies [Eh]
    ---------------------

    Doubly Occupied:                                                      

       1A    -15.646864     2A    -15.589250     3A    -11.282491  
       4A    -11.253791     5A    -11.222019     6A     -1.372516  
       7A     -1.088248     8A     -1.061602     9A     -0.830960  
      10A     -0.792331    11A     -0.744919    12A     -0.606786  
      13A     -0.606259    14A     -0.593354    15A     -0.554960  
      16A     -0.467232    17A     -0.370936    18A     -0.342612  

    Virtual:                                                              

      19A      0.024495    20A      0.035252    21A      0.039958  
      22A      0.052523    23A      0.084133    24A      0.085035  
      25A      0.103004    26A      0.106401    27A      0.110857  
      28A      0.114048    29A      0.115439    30A      0.128972  
      31A      0.138805    32A      0.144073    33A      0.147391  
      34A      0.155468    35A      0.164474    36A      0.169933  
      37A      0.197821    38A      0.198995    39A      0.209908  
      40A      0.228379    41A      0.228381    42A      0.247532  
      43A      0.261172    44A      0.269207    45A      0.285127  
      46A      0.288293    47A      0.307302    48A      0.314053  
      49A      0.320799    50A      0.327255    51A      0.330752  
      52A      0.334276    53A      0.343713    54A      0.358538  
      55A      0.373993    56A      0.380917    57A      0.391732  
      58A      0.396983    59A      0.405677    60A      0.414512  
      61A      0.426783    62A      0.454691    63A      0.456545  
      64A      0.460305    65A      0.478597    66A      0.479267  
      67A      0.480936    68A      0.491562    69A      0.492620  
      70A      0.503639    71A      0.523842    72A      0.538292  
      73A      0.543179    74A      0.573998    75A      0.606169  
      76A      0.612620    77A      0.613621    78A      0.621951  
      79A      0.630173    80A      0.643526    81A      0.646863  
      82A      0.647382    83A      0.675585    84A      0.687526  
      85A      0.701235    86A      0.704719    87A      0.717538  
      88A      0.741456    89A      0.749160    90A      0.774165  
      91A      0.794724    92A      0.796517    93A      0.811790  
      94A      0.825713    95A      0.846809    96A      0.860795  
      97A      0.880911    98A      0.888750    99A      0.893027  
     100A      0.920263   101A      0.930648   102A      0.943840  
     103A      0.958249   104A      0.960246   105A      0.970479  
     106A      0.983274   107A      0.986692   108A      0.987298  
     109A      1.005066   110A      1.027206   111A      1.030332  
     112A      1.045157   113A      1.046821   114A      1.073829  
     115A      1.094924   116A      1.106336   117A      1.112809  
     118A      1.118004   119A      1.143369   120A      1.150148  
     121A      1.156838   122A      1.157393   123A      1.187486  
     124A      1.199712   125A      1.215036   126A      1.217306  
     127A      1.231734   128A      1.249074   129A      1.250554  
     130A      1.279706   131A      1.289283   132A      1.301758  
     133A      1.307294   134A      1.327916   135A      1.341242  
     136A      1.363023   137A      1.380530   138A      1.421525  
     139A      1.450535   140A      1.463353   141A      1.464637  
     142A      1.476470   143A      1.488566   144A      1.510796  
     145A      1.517972   146A      1.538111   147A      1.583772  
     148A      1.602011   149A      1.615360   150A      1.636220  
     151A      1.665991   152A      1.689279   153A      1.705901  
     154A      1.724828   155A      1.724999   156A      1.763486  
     157A      1.768479   158A      1.777672   159A      1.788044  
     160A      1.829903   161A      1.854707   162A      1.905256  
     163A      1.924040   164A      1.930594   165A      1.947587  
     166A      1.953841   167A      1.972347   168A      1.984537  
     169A      1.999865   170A      2.002550   171A      2.034337  
     172A      2.041091   173A      2.078300   174A      2.084478  
     175A      2.110749   176A      2.123846   177A      2.129618  
     178A      2.141308   179A      2.215935   180A      2.219975  
     181A      2.279771   182A      2.293175   183A      2.312561  
     184A      2.314979   185A      2.324446   186A      2.381379  
     187A      2.433056   188A      2.445560   189A      2.472063  
     190A      2.484523   191A      2.503589   192A      2.550336  
     193A      2.580939   194A      2.601570   195A      2.622837  
     196A      2.630850   197A      2.720030   198A      2.801767  
     199A      2.836296   200A      2.877484   201A      2.890269  
     202A      2.945379   203A      2.967746   204A      3.003681  
     205A      3.071585   206A      3.181311   207A      3.205985  
     208A      3.226407   209A      3.268227   210A      3.272388  
     211A      3.313734   212A      3.345417   213A      3.378099  
     214A      3.382885   215A      3.439279   216A      3.450573  
     217A      3.503447   218A      3.544582   219A      3.545602  
     220A      3.564143   221A      3.598719   222A      3.661670  
     223A      3.699674   224A      3.733042   225A      3.739886  
     226A      3.740299   227A      3.746365   228A      3.785699  
     229A      3.820284   230A      3.821828   231A      3.838333  
     232A      3.885887   233A      3.897455   234A      3.929413  
     235A      3.961483   236A      3.995165   237A      4.036311  
     238A      4.036945   239A      4.079028   240A      4.085687  
     241A      4.111516   242A      4.119026   243A      4.161177  
     244A      4.202260   245A      4.216211   246A      4.246125  
     247A      4.269446   248A      4.284674   249A      4.324571  
     250A      4.326926   251A      4.363623   252A      4.404297  
     253A      4.423793   254A      4.445376   255A      4.455229  
     256A      4.506178   257A      4.510093   258A      4.578496  
     259A      4.665707   260A      4.682276   261A      4.688990  
     262A      4.696297   263A      4.795723   264A      4.817900  
     265A      4.850581   266A      4.853314   267A      4.929689  
     268A      4.945508   269A      4.955127   270A      4.961745  
     271A      5.003420   272A      5.021856   273A      5.067302  
     274A      5.086233   275A      5.086316   276A      5.114117  
     277A      5.189926   278A      5.192807   279A      5.262957  
     280A      5.272585   281A      5.311614   282A      5.318529  
     283A      5.366519   284A      5.370121   285A      5.462752  
     286A      5.497865   287A      5.576774   288A      5.600168  
     289A      5.614598   290A      5.672503   291A      5.710491  
     292A      5.745692   293A      5.749245   294A      5.783081  
     295A      5.835146   296A      5.846013   297A      5.881715  
     298A      5.961398   299A      5.988579   300A      6.068250  
     301A      6.140394   302A      6.156061   303A      6.230983  
     304A      6.260290   305A      6.286731   306A      6.360668  
     307A      6.512319   308A      6.587305   309A      6.641905  
     310A      6.687345   311A      6.776235   312A      6.876361  
     313A      6.990483   314A      7.160045   315A      7.364091  
     316A      7.661698   317A      7.816845   318A     15.236150  
     319A     16.785481   320A     17.243806   321A     17.793845  
     322A     18.600978  

    Final Occupation by Irrep:
              A 
    DOCC [    18 ]

  @DF-RHF Final Energy:  -224.86787714603844

   => Energetics <=

    Nuclear Repulsion Energy =            163.0586504083620127
    One-Electron Energy =                -626.9987955037504435
    Two-Electron Energy =                 239.0722679493499641
    Total Energy =                       -224.8678771460384382

Computation Completed

*** tstop() called on c446-101.stampede2.tacc.utexas.edu at Fri Mar 19 21:15:00 2021
Module time:
	user time   =     128.89 seconds =       2.15 minutes
	system time =      11.87 seconds =       0.20 minutes
	total time  =         10 seconds =       0.17 minutes
Total time:
	user time   =     128.89 seconds =       2.15 minutes
	system time =      11.87 seconds =       0.20 minutes
	total time  =         10 seconds =       0.17 minutes
   => Loading Basis Set <=

    Name: (AUG-CC-PVTZ AUX)
    Role: RIFIT
    Keyword: DF_BASIS_MP2
    atoms 1-2 entry N          line   206 file /home1/07844/xy3866/miniconda3/envs/p4env/share/psi4/basis/aug-cc-pvtz-ri.gbs 
    atoms 3-5 entry C          line   148 file /home1/07844/xy3866/miniconda3/envs/p4env/share/psi4/basis/aug-cc-pvtz-ri.gbs 
    atoms 6-9 entry H          line    30 file /home1/07844/xy3866/miniconda3/envs/p4env/share/psi4/basis/aug-cc-pvtz-ri.gbs 


*** tstart() called on c446-101.stampede2.tacc.utexas.edu
*** at Fri Mar 19 21:15:00 2021


  //>>>>>>>>>>>>>>>>>>>>>>>>>>>>>>>>>>>//
  //               DFMP2               //
  //<<<<<<<<<<<<<<<<<<<<<<<<<<<<<<<<<<<//

	 --------------------------------------------------------
	                          DF-MP2                         
	      2nd-Order Density-Fitted Moller-Plesset Theory     
	              RMP2 Wavefunction,  32 Threads             
	                                                         
	        Rob Parrish, Justin Turney, Andy Simmonett,      
	           Ed Hohenstein, and C. David Sherrill          
	 --------------------------------------------------------

   => Auxiliary Basis Set <=

  Basis Set: (AUG-CC-PVTZ AUX)
    Blend: AUG-CC-PVTZ-RI
    Number of shells: 196
    Number of basis functions: 714
    Number of Cartesian functions: 900
    Spherical Harmonics?: true
    Max angular momentum: 4

	 --------------------------------------------------------
	                 NBF =   322, NAUX =   714
	 --------------------------------------------------------
	   CLASS    FOCC     OCC    AOCC    AVIR     VIR    FVIR
	   PAIRS       0      18      18     304     304       0
	 --------------------------------------------------------

  DFHelper Memory: AOs need 0.591 GiB; user supplied 22.352 GiB. Using in-core AOs.


         ------------------------------------------------------------
                                     CPHF                           
                                  Rob Parrish                       
         ------------------------------------------------------------

  ==> Geometry <==

    Molecular point group: c1
    Full point group: C1

    Geometry (in Angstrom), charge = 0, multiplicity = 1:

       Center              X                  Y                   Z               Mass       
    ------------   -----------------  -----------------  -----------------  -----------------
         N           -1.014107861563    -0.356126970192     0.000026477902    14.003074004430
         N            0.041634138437    -1.194470970192    -0.000024522098    14.003074004430
         C           -0.672463861563     0.960366029808     0.000006477902    12.000000000000
         C            0.712418138437     0.988703029808    -0.000004522098    12.000000000000
         C            1.087998038437    -0.313807370192    -0.000007422098    12.000000000000
         H           -1.417271861563     1.743919029808     0.000022477902     1.007825032230
         H            1.343721138437     1.865590029808    -0.000009522098     1.007825032230
         H           -1.944264861563    -0.754859970192     0.000040477902     1.007825032230
         H            2.099371138437    -0.780878970192    -0.000015522098     1.007825032230

  Nuclear repulsion =  163.058650408362013
  Reference energy  = -224.867877146038438

  ==> Basis Set <==

  Basis Set: AUG-CC-PVTZ
    Blend: AUG-CC-PVTZ
    Number of shells: 106
    Number of basis functions: 322
    Number of Cartesian functions: 375
    Spherical Harmonics?: true
    Max angular momentum: 3

  ==> CGRSolver (by Rob Parrish) <==

   Number of roots    =         1
   Preconditioning    =    JACOBI
   Convergence cutoff =     1E-06
   Maximum iterations =       100

  ==> CPHFRHamiltonian (by Rob Parrish) <== 

  ==> MemDFJK: Density-Fitted J/K Matrices <==

    J tasked:                   Yes
    K tasked:                   Yes
    wK tasked:                   No
    OpenMP threads:              32
    Memory [MiB]:             22888
    Algorithm:                 Core
    Schwarz Cutoff:           1E-12
    Mask sparsity (%):       0.4552
    Fitting Condition:        1E-10

   => Auxiliary Basis Set <=

  Basis Set: (AUG-CC-PVTZ AUX)
    Blend: AUG-CC-PVTZ-JKFIT
    Number of shells: 206
    Number of basis functions: 704
    Number of Cartesian functions: 875
    Spherical Harmonics?: true
    Max angular momentum: 4

  ==> CPHF Iterations <==

  => Iterations <=

             Iter  Converged  Remaining    Residual
  CGR           1          0          1   9.743E-02
  CGR           2          0          1   3.887E-02
  CGR           3          0          1   2.212E-02
  CGR           4          0          1   7.951E-03
  CGR           5          0          1   2.077E-03
  CGR           6          0          1   7.246E-04
  CGR           7          0          1   3.410E-04
  CGR           8          0          1   1.288E-04
  CGR           9          0          1   5.584E-05
  CGR          10          0          1   1.760E-05
  CGR          11          0          1   4.078E-06
  CGR          12          0          1   1.573E-06
  CGR          13          1          0   4.528E-07

    CGRSolver converged.

	-----------------------------------------------------------
	 ==================> DF-MP2 Energies <==================== 
	-----------------------------------------------------------
	 Reference Energy          =    -224.8678771460384382 [Eh]
	 Singles Energy            =      -0.0000000000000000 [Eh]
	 Same-Spin Energy          =      -0.2468289159065223 [Eh]
	 Opposite-Spin Energy      =      -0.7475573983301063 [Eh]
	 Correlation Energy        =      -0.9943863142366285 [Eh]
	 Total Energy              =    -225.8622634602750736 [Eh]
	-----------------------------------------------------------
	 ================> DF-SCS-MP2 Energies <================== 
	-----------------------------------------------------------
	 SCS Same-Spin Scale       =       0.3333333333333333 [-]
	 SCS Opposite-Spin Scale   =       1.2000000000000000 [-]
	 SCS Same-Spin Energy      =      -0.0822763053021741 [Eh]
	 SCS Opposite-Spin Energy  =      -0.8970688779961274 [Eh]
	 SCS Correlation Energy    =      -0.9793451832983016 [Eh]
	 SCS Total Energy          =    -225.8472223293367449 [Eh]
	-----------------------------------------------------------



Properties will be evaluated at  -0.000000,   0.000000,  -0.000000 [a0]

Properties computed using the MP2 density matrix

  Nuclear Dipole Moment: [e a0]
     X:     0.0793      Y:     1.9486      Z:     0.0000

  Electronic Dipole Moment: [e a0]
     X:    -0.6933      Y:    -1.2440      Z:    -0.0000

  Dipole Moment: [e a0]
     X:    -0.6140      Y:     0.7046      Z:     0.0000     Total:     0.9346

  Dipole Moment: [D]
     X:    -1.5607      Y:     1.7910      Z:     0.0001     Total:     2.3756


*** tstop() called on c446-101.stampede2.tacc.utexas.edu at Fri Mar 19 21:15:43 2021
Module time:
	user time   =     269.98 seconds =       4.50 minutes
	system time =      12.30 seconds =       0.20 minutes
	total time  =         43 seconds =       0.72 minutes
Total time:
	user time   =     400.84 seconds =       6.68 minutes
	system time =      24.34 seconds =       0.41 minutes
	total time  =         53 seconds =       0.88 minutes

    Psi4 stopped on: Friday, 19 March 2021 09:15PM
    Psi4 wall time for execution: 0:00:53.27

*** Psi4 exiting successfully. Buy a developer a beer!
