
    -----------------------------------------------------------------------
          Psi4: An Open-Source Ab Initio Electronic Structure Package
                               Psi4 1.3.2 release

                         Git: Rev {HEAD} ecbda83 


    R. M. Parrish, L. A. Burns, D. G. A. Smith, A. C. Simmonett,
    A. E. DePrince III, E. G. Hohenstein, U. Bozkaya, A. Yu. Sokolov,
    R. Di Remigio, R. M. Richard, J. F. Gonthier, A. M. James,
    H. R. McAlexander, A. Kumar, M. Saitow, X. Wang, B. P. Pritchard,
    P. Verma, H. F. Schaefer III, K. Patkowski, R. A. King, E. F. Valeev,
    F. A. Evangelista, J. M. Turney, T. D. Crawford, and C. D. Sherrill,
    J. Chem. Theory Comput. 13(7) pp 3185--3197 (2017).
    (doi: 10.1021/acs.jctc.7b00174)


                         Additional Contributions by
    P. Kraus, H. Kruse, M. H. Lechner, M. C. Schieber, R. A. Shaw,
    A. Alenaizan, R. Galvelis, Z. L. Glick, S. Lehtola, and J. P. Misiewicz

    -----------------------------------------------------------------------


    Psi4 started on: Wednesday, 10 February 2021 11:36PM

    Process ID: 15812
    Host:       node144.bme.utexas.edu
    PSIDATADIR: /home/xy3866/psi4conda/share/psi4
    Memory:     500.0 MiB
    Threads:    8
    
  ==> Input File <==

--------------------------------------------------------------------------
#psi4
#
memory 32 gb

molecule  {
0 1
  S       -1.3336960    -0.3724180    -1.1448160
  O        1.3948110    -1.6888110     0.5141610
  N        0.9516030     0.5158590     0.1032830
  C       -0.4318110     0.2636330     0.1956970
  C        1.3527330     1.8066140    -0.4558870
  C        1.8123640    -0.5701240     0.2233340
  C       -1.2481770     0.5074040     1.2784860
  C       -2.6022980     0.1802550     1.0222870
  C        3.2848510    -0.2882260     0.0069730
  C       -2.7981330    -0.3054580    -0.2520070
  H        0.6391180     2.5565960    -0.1121450
  H        1.3549250     1.8004410    -1.5532040
  H        2.3443270     2.0847450    -0.0978400
  H       -0.8803878     0.9878535     2.1842000
  H       -3.4051180     0.2883830     1.7439780
  H        3.6654260     0.4295190     0.7396260
  H        3.4786200     0.1121010    -0.9922510
  H        3.8138040    -1.2333750     0.1250220
  H       -3.7244210    -0.6394710    -0.7024050
units angstrom
no_reorient  #important for SAPT in psi4, default
symmetry c1  #important for SAPT in psi4, default
}

set PROPERTIES_ORIGIN ["COM"]
properties('MP2/aug-cc-pvtz', properties = ['dipole'])
--------------------------------------------------------------------------

  Memory set to  29.802 GiB by Python driver.
    SCF Algorithm Type (re)set to DF.

*** tstart() called on node144.bme.utexas.edu
*** at Wed Feb 10 23:36:27 2021

   => Loading Basis Set <=

    Name: AUG-CC-PVTZ
    Role: ORBITAL
    Keyword: BASIS
    atoms 1     entry S          line   902 file /home/xy3866/psi4conda/share/psi4/basis/aug-cc-pvtz.gbs 
    atoms 2     entry O          line   327 file /home/xy3866/psi4conda/share/psi4/basis/aug-cc-pvtz.gbs 
    atoms 3     entry N          line   281 file /home/xy3866/psi4conda/share/psi4/basis/aug-cc-pvtz.gbs 
    atoms 4-10  entry C          line   235 file /home/xy3866/psi4conda/share/psi4/basis/aug-cc-pvtz.gbs 
    atoms 11-19 entry H          line    36 file /home/xy3866/psi4conda/share/psi4/basis/aug-cc-pvtz.gbs 


         ---------------------------------------------------------
                                   SCF
               by Justin Turney, Rob Parrish, Andy Simmonett
                          and Daniel G. A. Smith
                              RHF Reference
                        8 Threads,  30517 MiB Core
         ---------------------------------------------------------

  ==> Geometry <==

    Molecular point group: c1
    Full point group: C1

    Geometry (in Angstrom), charge = 0, multiplicity = 1:

       Center              X                  Y                   Z               Mass       
    ------------   -----------------  -----------------  -----------------  -----------------
         S           -1.287075166309    -0.332881194870    -1.136044906596    31.972071174400
         O            1.441431833691    -1.649274194870     0.522932093404    15.994914619570
         N            0.998223833691     0.555395805130     0.112054093404    14.003074004430
         C           -0.385190166309     0.303169805130     0.204468093404    12.000000000000
         C            1.399353833691     1.846150805130    -0.447115906596    12.000000000000
         C            1.858984833691    -0.530587194870     0.232105093404    12.000000000000
         C           -1.201556166309     0.546940805130     1.287257093404    12.000000000000
         C           -2.555677166309     0.219791805130     1.031058093404    12.000000000000
         C            3.331471833691    -0.248689194870     0.015744093404    12.000000000000
         C           -2.751512166309    -0.265921194870    -0.243235906596    12.000000000000
         H            0.685738833691     2.596132805130    -0.103373906596     1.007825032230
         H            1.401545833691     1.839977805130    -1.544432906596     1.007825032230
         H            2.390947833691     2.124281805130    -0.089068906596     1.007825032230
         H           -0.833766966309     1.027390305130     2.192971093404     1.007825032230
         H           -3.358497166309     0.327919805130     1.752749093404     1.007825032230
         H            3.712046833691     0.469055805130     0.748397093404     1.007825032230
         H            3.525240833691     0.151637805130    -0.983479906596     1.007825032230
         H            3.860424833691    -1.193838194870     0.133793093404     1.007825032230
         H           -3.677800166309    -0.599934194870    -0.693633906596     1.007825032230

  Running in c1 symmetry.

  Rotational constants: A =      0.07828  B =      0.02565  C =      0.02470 [cm^-1]
  Rotational constants: A =   2346.70013  B =    768.97680  C =    740.37258 [MHz]
  Nuclear repulsion =  606.388639429499563

  Charge       = 0
  Multiplicity = 1
  Electrons    = 82
  Nalpha       = 41
  Nbeta        = 41

  ==> Algorithm <==

  SCF Algorithm Type is DF.
  DIIS enabled.
  MOM disabled.
  Fractional occupation disabled.
  Guess Type is SAD.
  Energy threshold   = 1.00e-10
  Density threshold  = 1.00e-10
  Integral threshold = 0.00e+00

  ==> Primary Basis <==

  Basis Set: AUG-CC-PVTZ
    Blend: AUG-CC-PVTZ
    Number of shells: 223
    Number of basis function: 671
    Number of Cartesian functions: 779
    Spherical Harmonics?: true
    Max angular momentum: 3

   => Loading Basis Set <=

    Name: (AUG-CC-PVTZ AUX)
    Role: JKFIT
    Keyword: DF_BASIS_SCF
    atoms 1     entry S          line   730 file /home/xy3866/psi4conda/share/psi4/basis/aug-cc-pvtz-jkfit.gbs 
    atoms 2     entry O          line   286 file /home/xy3866/psi4conda/share/psi4/basis/aug-cc-pvtz-jkfit.gbs 
    atoms 3     entry N          line   224 file /home/xy3866/psi4conda/share/psi4/basis/aug-cc-pvtz-jkfit.gbs 
    atoms 4-10  entry C          line   162 file /home/xy3866/psi4conda/share/psi4/basis/aug-cc-pvtz-jkfit.gbs 
    atoms 11-19 entry H          line    70 file /home/xy3866/psi4conda/share/psi4/basis/aug-cc-pvtz-jkfit.gbs 

  ==> Pre-Iterations <==

   -------------------------------------------------------
    Irrep   Nso     Nmo     Nalpha   Nbeta   Ndocc  Nsocc
   -------------------------------------------------------
     A        671     671       0       0       0       0
   -------------------------------------------------------
    Total     671     671      41      41      41       0
   -------------------------------------------------------

  ==> Integral Setup <==

  DFHelper Memory: AOs need 4.855 GiB; user supplied 22.352 GiB. Using in-core AOs.

  ==> MemDFJK: Density-Fitted J/K Matrices <==

    J tasked:                   Yes
    K tasked:                   Yes
    wK tasked:                   No
    OpenMP threads:               8
    Memory [MiB]:             22888
    Algorithm:                 Disk
    Schwarz Cutoff:           1E-12
    Mask sparsity (%):       5.9342
    Fitting Condition:        1E-10

   => Auxiliary Basis Set <=

  Basis Set: (AUG-CC-PVTZ AUX)
    Blend: AUG-CC-PVTZ-JKFIT
    Number of shells: 438
    Number of basis function: 1496
    Number of Cartesian functions: 1854
    Spherical Harmonics?: true
    Max angular momentum: 4

  Minimum eigenvalue in the overlap matrix is 2.1803415954E-06.
  Using Symmetric Orthogonalization.

  SCF Guess: Superposition of Atomic Densities via on-the-fly atomic UHF.

  ==> Iterations <==

                           Total Energy        Delta E     RMS |[F,P]|

   @DF-RHF iter SAD:  -796.78377583977647   -7.96784e+02   0.00000e+00 
   @DF-RHF iter   1:  -796.95371547731349   -1.69940e-01   1.16275e-03 DIIS
   @DF-RHF iter   2:  -797.18844575231583   -2.34730e-01   7.27194e-04 DIIS
   @DF-RHF iter   3:  -797.28936253185623   -1.00917e-01   1.40438e-04 DIIS
   @DF-RHF iter   4:  -797.29570587981914   -6.34335e-03   6.07342e-05 DIIS
   @DF-RHF iter   5:  -797.29692393738253   -1.21806e-03   1.74203e-05 DIIS
   @DF-RHF iter   6:  -797.29709325369652   -1.69316e-04   8.80257e-06 DIIS
   @DF-RHF iter   7:  -797.29715234939658   -5.90957e-05   3.55992e-06 DIIS
   @DF-RHF iter   8:  -797.29716493654121   -1.25871e-05   1.35479e-06 DIIS
   @DF-RHF iter   9:  -797.29716647508053   -1.53854e-06   4.73398e-07 DIIS
   @DF-RHF iter  10:  -797.29716663748889   -1.62408e-07   1.28333e-07 DIIS
   @DF-RHF iter  11:  -797.29716664901912   -1.15302e-08   6.58854e-08 DIIS
   @DF-RHF iter  12:  -797.29716665059425   -1.57513e-09   2.11402e-08 DIIS
   @DF-RHF iter  13:  -797.29716665096157   -3.67322e-10   6.35285e-09 DIIS
   @DF-RHF iter  14:  -797.29716665098829   -2.67164e-11   2.58717e-09 DIIS
   @DF-RHF iter  15:  -797.29716665100159   -1.33014e-11   1.07532e-09 DIIS
   @DF-RHF iter  16:  -797.29716665099488    6.70752e-12   5.07033e-10 DIIS
   @DF-RHF iter  17:  -797.29716665099522   -3.41061e-13   1.96468e-10 DIIS
   @DF-RHF iter  18:  -797.29716665099716   -1.93268e-12   7.05601e-11 DIIS
  Energy and wave function converged.


  ==> Post-Iterations <==

    Orbital Energies [Eh]
    ---------------------

    Doubly Occupied:                                                      

       1A    -91.982802     2A    -20.522795     3A    -15.602333  
       4A    -11.358084     5A    -11.296563     6A    -11.278238  
       7A    -11.262946     8A    -11.242997     9A    -11.239364  
      10A    -11.238154    11A     -8.983171    12A     -6.664128  
      13A     -6.663654    14A     -6.662869    15A     -1.380190  
      16A     -1.263115    17A     -1.158913    18A     -1.021677  
      19A     -0.987450    20A     -0.982626    21A     -0.942303  
      22A     -0.813176    23A     -0.762429    24A     -0.714283  
      25A     -0.687682    26A     -0.680188    27A     -0.648152  
      28A     -0.624781    29A     -0.591170    30A     -0.579629  
      31A     -0.565722    32A     -0.564211    33A     -0.555274  
      34A     -0.546633    35A     -0.515156    36A     -0.504476  
      37A     -0.477938    38A     -0.427165    39A     -0.387016  
      40A     -0.345711    41A     -0.320709  

    Virtual:                                                              

      42A      0.023983    43A      0.030531    44A      0.035139  
      45A      0.038858    46A      0.044416    47A      0.049044  
      48A      0.053974    49A      0.060358    50A      0.070874  
      51A      0.081391    52A      0.086365    53A      0.090680  
      54A      0.101178    55A      0.104408    56A      0.110776  
      57A      0.110899    58A      0.115717    59A      0.118133  
      60A      0.123550    61A      0.126512    62A      0.128689  
      63A      0.132440    64A      0.134539    65A      0.136577  
      66A      0.143967    67A      0.148361    68A      0.150010  
      69A      0.152933    70A      0.158116    71A      0.158905  
      72A      0.163399    73A      0.171775    74A      0.178079  
      75A      0.183663    76A      0.186714    77A      0.188346  
      78A      0.196009    79A      0.204813    80A      0.207240  
      81A      0.218090    82A      0.220882    83A      0.225210  
      84A      0.230173    85A      0.237867    86A      0.251106  
      87A      0.259581    88A      0.265005    89A      0.268426  
      90A      0.270828    91A      0.272900    92A      0.280110  
      93A      0.287159    94A      0.293410    95A      0.294913  
      96A      0.304347    97A      0.309254    98A      0.312049  
      99A      0.314942   100A      0.322132   101A      0.324509  
     102A      0.328414   103A      0.330247   104A      0.336324  
     105A      0.343814   106A      0.348804   107A      0.348913  
     108A      0.355000   109A      0.357319   110A      0.361875  
     111A      0.368824   112A      0.370606   113A      0.373532  
     114A      0.380496   115A      0.387654   116A      0.397601  
     117A      0.403167   118A      0.407451   119A      0.410806  
     120A      0.413421   121A      0.422283   122A      0.424714  
     123A      0.427938   124A      0.428137   125A      0.434550  
     126A      0.441396   127A      0.446344   128A      0.452378  
     129A      0.455437   130A      0.456455   131A      0.461662  
     132A      0.468083   133A      0.471359   134A      0.477051  
     135A      0.479148   136A      0.488013   137A      0.493362  
     138A      0.495837   139A      0.497385   140A      0.499482  
     141A      0.509612   142A      0.512040   143A      0.516096  
     144A      0.518043   145A      0.522005   146A      0.529322  
     147A      0.534627   148A      0.544292   149A      0.548842  
     150A      0.551616   151A      0.554962   152A      0.559765  
     153A      0.565629   154A      0.568869   155A      0.576850  
     156A      0.580868   157A      0.588128   158A      0.592169  
     159A      0.597629   160A      0.601825   161A      0.608244  
     162A      0.613720   163A      0.623697   164A      0.627237  
     165A      0.635326   166A      0.642322   167A      0.649406  
     168A      0.655765   169A      0.664173   170A      0.671965  
     171A      0.674763   172A      0.685314   173A      0.694026  
     174A      0.699557   175A      0.710420   176A      0.711916  
     177A      0.720305   178A      0.721732   179A      0.742066  
     180A      0.746836   181A      0.748514   182A      0.758072  
     183A      0.767719   184A      0.776239   185A      0.780731  
     186A      0.784765   187A      0.789767   188A      0.804578  
     189A      0.810134   190A      0.817879   191A      0.824825  
     192A      0.832881   193A      0.837759   194A      0.841216  
     195A      0.848909   196A      0.852788   197A      0.862239  
     198A      0.864229   199A      0.876008   200A      0.882268  
     201A      0.885092   202A      0.891708   203A      0.894002  
     204A      0.903373   205A      0.911859   206A      0.912812  
     207A      0.915681   208A      0.923205   209A      0.925954  
     210A      0.930685   211A      0.933610   212A      0.941710  
     213A      0.948751   214A      0.952883   215A      0.962433  
     216A      0.966392   217A      0.974384   218A      0.979630  
     219A      0.984763   220A      0.993265   221A      0.999595  
     222A      1.007354   223A      1.010475   224A      1.014098  
     225A      1.019334   226A      1.026494   227A      1.035610  
     228A      1.038018   229A      1.049269   230A      1.056151  
     231A      1.058950   232A      1.062585   233A      1.070180  
     234A      1.072389   235A      1.083871   236A      1.089592  
     237A      1.096516   238A      1.099766   239A      1.104160  
     240A      1.107017   241A      1.111010   242A      1.117634  
     243A      1.124117   244A      1.133224   245A      1.140193  
     246A      1.142571   247A      1.152563   248A      1.157321  
     249A      1.158954   250A      1.166644   251A      1.169338  
     252A      1.178824   253A      1.187236   254A      1.191742  
     255A      1.197526   256A      1.198300   257A      1.206731  
     258A      1.209675   259A      1.215639   260A      1.219727  
     261A      1.230859   262A      1.233685   263A      1.235278  
     264A      1.245141   265A      1.248125   266A      1.258807  
     267A      1.266396   268A      1.274600   269A      1.284528  
     270A      1.298237   271A      1.303186   272A      1.307743  
     273A      1.320487   274A      1.329463   275A      1.330188  
     276A      1.346616   277A      1.350236   278A      1.358539  
     279A      1.367333   280A      1.370976   281A      1.384063  
     282A      1.387458   283A      1.401929   284A      1.409626  
     285A      1.422969   286A      1.424751   287A      1.430214  
     288A      1.437081   289A      1.444931   290A      1.460105  
     291A      1.468152   292A      1.474821   293A      1.479735  
     294A      1.491367   295A      1.495304   296A      1.497531  
     297A      1.519232   298A      1.525719   299A      1.537045  
     300A      1.540004   301A      1.541260   302A      1.553696  
     303A      1.561525   304A      1.569530   305A      1.573177  
     306A      1.581902   307A      1.597684   308A      1.605564  
     309A      1.616136   310A      1.621168   311A      1.627554  
     312A      1.639233   313A      1.641963   314A      1.647946  
     315A      1.659577   316A      1.667248   317A      1.675738  
     318A      1.676446   319A      1.689754   320A      1.703681  
     321A      1.711220   322A      1.727011   323A      1.731142  
     324A      1.734545   325A      1.749362   326A      1.757893  
     327A      1.760627   328A      1.766973   329A      1.779434  
     330A      1.790692   331A      1.801862   332A      1.806939  
     333A      1.812215   334A      1.826222   335A      1.834434  
     336A      1.838536   337A      1.846033   338A      1.863574  
     339A      1.872906   340A      1.873593   341A      1.874508  
     342A      1.900857   343A      1.905369   344A      1.911500  
     345A      1.918648   346A      1.928454   347A      1.931191  
     348A      1.937053   349A      1.944807   350A      1.960121  
     351A      1.968142   352A      1.971062   353A      1.978502  
     354A      1.996569   355A      2.003534   356A      2.013067  
     357A      2.022589   358A      2.031649   359A      2.039513  
     360A      2.044872   361A      2.050390   362A      2.067953  
     363A      2.074109   364A      2.086356   365A      2.110296  
     366A      2.121852   367A      2.130170   368A      2.139885  
     369A      2.143082   370A      2.161606   371A      2.173019  
     372A      2.180930   373A      2.188271   374A      2.206893  
     375A      2.214709   376A      2.233219   377A      2.243638  
     378A      2.250227   379A      2.256454   380A      2.267621  
     381A      2.278907   382A      2.284948   383A      2.293534  
     384A      2.313801   385A      2.328038   386A      2.332472  
     387A      2.345801   388A      2.362715   389A      2.370397  
     390A      2.381639   391A      2.394147   392A      2.401866  
     393A      2.416032   394A      2.424307   395A      2.434197  
     396A      2.446468   397A      2.458731   398A      2.465660  
     399A      2.475345   400A      2.494165   401A      2.511390  
     402A      2.520324   403A      2.540521   404A      2.545858  
     405A      2.561364   406A      2.571122   407A      2.585245  
     408A      2.603806   409A      2.618185   410A      2.635534  
     411A      2.663301   412A      2.678726   413A      2.690293  
     414A      2.702409   415A      2.712762   416A      2.719878  
     417A      2.757557   418A      2.780187   419A      2.784425  
     420A      2.802267   421A      2.820783   422A      2.839527  
     423A      2.849565   424A      2.867836   425A      2.878019  
     426A      2.899488   427A      2.944970   428A      2.949287  
     429A      2.965659   430A      3.016080   431A      3.026233  
     432A      3.044960   433A      3.060084   434A      3.084466  
     435A      3.090927   436A      3.099417   437A      3.111950  
     438A      3.128872   439A      3.168766   440A      3.177734  
     441A      3.199663   442A      3.237740   443A      3.276391  
     444A      3.285391   445A      3.325809   446A      3.329392  
     447A      3.341862   448A      3.357255   449A      3.380839  
     450A      3.388620   451A      3.401687   452A      3.408472  
     453A      3.429010   454A      3.448492   455A      3.465798  
     456A      3.478309   457A      3.492851   458A      3.508515  
     459A      3.516769   460A      3.529866   461A      3.545090  
     462A      3.562823   463A      3.563308   464A      3.570153  
     465A      3.587562   466A      3.596366   467A      3.600755  
     468A      3.621418   469A      3.627687   470A      3.641032  
     471A      3.645032   472A      3.657001   473A      3.681861  
     474A      3.686430   475A      3.692912   476A      3.710424  
     477A      3.721821   478A      3.728905   479A      3.746774  
     480A      3.759644   481A      3.778697   482A      3.800258  
     483A      3.814902   484A      3.819314   485A      3.831662  
     486A      3.843552   487A      3.849539   488A      3.856884  
     489A      3.863520   490A      3.871676   491A      3.888414  
     492A      3.900781   493A      3.904576   494A      3.915774  
     495A      3.919222   496A      3.927800   497A      3.939013  
     498A      3.947028   499A      3.958914   500A      3.960880  
     501A      3.978351   502A      3.987607   503A      3.988968  
     504A      4.003482   505A      4.021702   506A      4.029788  
     507A      4.045394   508A      4.053073   509A      4.062339  
     510A      4.078697   511A      4.088822   512A      4.097756  
     513A      4.107721   514A      4.127955   515A      4.134144  
     516A      4.140006   517A      4.150570   518A      4.176464  
     519A      4.195041   520A      4.202748   521A      4.214313  
     522A      4.228994   523A      4.236966   524A      4.246309  
     525A      4.264446   526A      4.276605   527A      4.282853  
     528A      4.296868   529A      4.313655   530A      4.323494  
     531A      4.341731   532A      4.347605   533A      4.352646  
     534A      4.357290   535A      4.378837   536A      4.394159  
     537A      4.403833   538A      4.420864   539A      4.434567  
     540A      4.436052   541A      4.443713   542A      4.459894  
     543A      4.489379   544A      4.510050   545A      4.511716  
     546A      4.522903   547A      4.534757   548A      4.568192  
     549A      4.584512   550A      4.596354   551A      4.615495  
     552A      4.636520   553A      4.669735   554A      4.679082  
     555A      4.694386   556A      4.701229   557A      4.720502  
     558A      4.731252   559A      4.754000   560A      4.796495  
     561A      4.799364   562A      4.805874   563A      4.812722  
     564A      4.821834   565A      4.845245   566A      4.859913  
     567A      4.866849   568A      4.878761   569A      4.912409  
     570A      4.938084   571A      4.939925   572A      4.965410  
     573A      4.973252   574A      4.983245   575A      4.998620  
     576A      5.002823   577A      5.021759   578A      5.071347  
     579A      5.086003   580A      5.096445   581A      5.109875  
     582A      5.116141   583A      5.128488   584A      5.133827  
     585A      5.152798   586A      5.165938   587A      5.174651  
     588A      5.189348   589A      5.208581   590A      5.236871  
     591A      5.250980   592A      5.263397   593A      5.286231  
     594A      5.301276   595A      5.322281   596A      5.370456  
     597A      5.372262   598A      5.404868   599A      5.409528  
     600A      5.440495   601A      5.453966   602A      5.475707  
     603A      5.490457   604A      5.526658   605A      5.545710  
     606A      5.594010   607A      5.608497   608A      5.644534  
     609A      5.659895   610A      5.669597   611A      5.686496  
     612A      5.709732   613A      5.711856   614A      5.751975  
     615A      5.768952   616A      5.807565   617A      5.823242  
     618A      5.861781   619A      5.875245   620A      5.903022  
     621A      5.945838   622A      6.036548   623A      6.067224  
     624A      6.090201   625A      6.108929   626A      6.152156  
     627A      6.165207   628A      6.175154   629A      6.223304  
     630A      6.236492   631A      6.258529   632A      6.272675  
     633A      6.333822   634A      6.353466   635A      6.408435  
     636A      6.489349   637A      6.518280   638A      6.617899  
     639A      6.690352   640A      6.726861   641A      6.739500  
     642A      6.779214   643A      6.783104   644A      6.801100  
     645A      6.821504   646A      6.861335   647A      6.923873  
     648A      6.942110   649A      6.970132   650A      6.991605  
     651A      7.079088   652A      7.226567   653A      7.252989  
     654A      7.273891   655A      7.461847   656A      7.495307  
     657A      7.659232   658A      7.699082   659A      7.751698  
     660A      7.931464   661A      8.059904   662A      8.908175  
     663A     15.681044   664A     16.241000   665A     16.775345  
     666A     17.180538   667A     17.779099   668A     18.254875  
     669A     18.970018   670A     20.135724   671A     21.869837  

    Final Occupation by Irrep:
              A 
    DOCC [    41 ]

  @DF-RHF Final Energy:  -797.29716665099716

   => Energetics <=

    Nuclear Repulsion Energy =            606.3886394294995625
    One-Electron Energy =               -2297.2798631729206136
    Two-Electron Energy =                 893.5940570924238955
    Total Energy =                       -797.2971666509971556

Computation Completed

*** tstop() called on node144.bme.utexas.edu at Wed Feb 10 23:37:57 2021
Module time:
	user time   =     381.26 seconds =       6.35 minutes
	system time =      51.29 seconds =       0.85 minutes
	total time  =         90 seconds =       1.50 minutes
Total time:
	user time   =     381.26 seconds =       6.35 minutes
	system time =      51.29 seconds =       0.85 minutes
	total time  =         90 seconds =       1.50 minutes
   => Loading Basis Set <=

    Name: (AUG-CC-PVTZ AUX)
    Role: RIFIT
    Keyword: DF_BASIS_MP2
    atoms 1     entry S          line   666 file /home/xy3866/psi4conda/share/psi4/basis/aug-cc-pvtz-ri.gbs 
    atoms 2     entry O          line   264 file /home/xy3866/psi4conda/share/psi4/basis/aug-cc-pvtz-ri.gbs 
    atoms 3     entry N          line   206 file /home/xy3866/psi4conda/share/psi4/basis/aug-cc-pvtz-ri.gbs 
    atoms 4-10  entry C          line   148 file /home/xy3866/psi4conda/share/psi4/basis/aug-cc-pvtz-ri.gbs 
    atoms 11-19 entry H          line    30 file /home/xy3866/psi4conda/share/psi4/basis/aug-cc-pvtz-ri.gbs 


*** tstart() called on node144.bme.utexas.edu
*** at Wed Feb 10 23:37:57 2021


  //>>>>>>>>>>>>>>>>>>>>>>>>>>>>>>>>>>>//
  //               DFMP2               //
  //<<<<<<<<<<<<<<<<<<<<<<<<<<<<<<<<<<<//

	 --------------------------------------------------------
	                          DF-MP2                         
	      2nd-Order Density-Fitted Moller-Plesset Theory     
	              RMP2 Wavefunction,   8 Threads             
	                                                         
	        Rob Parrish, Justin Turney, Andy Simmonett,      
	           Ed Hohenstein, and C. David Sherrill          
	 --------------------------------------------------------

   => Auxiliary Basis Set <=

  Basis Set: (AUG-CC-PVTZ AUX)
    Blend: AUG-CC-PVTZ-RI
    Number of shells: 415
    Number of basis function: 1515
    Number of Cartesian functions: 1910
    Spherical Harmonics?: true
    Max angular momentum: 4

	 --------------------------------------------------------
	                 NBF =   671, NAUX =  1515
	 --------------------------------------------------------
	   CLASS    FOCC     OCC    AOCC    AVIR     VIR    FVIR
	   PAIRS       0      41      41     630     630       0
	 --------------------------------------------------------

  DFHelper Memory: AOs need 4.855 GiB; user supplied 22.352 GiB. Using in-core AOs.


         ------------------------------------------------------------
                                     CPHF                           
                                  Rob Parrish                       
         ------------------------------------------------------------

  ==> Geometry <==

    Molecular point group: c1
    Full point group: C1

    Geometry (in Angstrom), charge = 0, multiplicity = 1:

       Center              X                  Y                   Z               Mass       
    ------------   -----------------  -----------------  -----------------  -----------------
         S           -1.287075166309    -0.332881194870    -1.136044906596    31.972071174400
         O            1.441431833691    -1.649274194870     0.522932093404    15.994914619570
         N            0.998223833691     0.555395805130     0.112054093404    14.003074004430
         C           -0.385190166309     0.303169805130     0.204468093404    12.000000000000
         C            1.399353833691     1.846150805130    -0.447115906596    12.000000000000
         C            1.858984833691    -0.530587194870     0.232105093404    12.000000000000
         C           -1.201556166309     0.546940805130     1.287257093404    12.000000000000
         C           -2.555677166309     0.219791805130     1.031058093404    12.000000000000
         C            3.331471833691    -0.248689194870     0.015744093404    12.000000000000
         C           -2.751512166309    -0.265921194870    -0.243235906596    12.000000000000
         H            0.685738833691     2.596132805130    -0.103373906596     1.007825032230
         H            1.401545833691     1.839977805130    -1.544432906596     1.007825032230
         H            2.390947833691     2.124281805130    -0.089068906596     1.007825032230
         H           -0.833766966309     1.027390305130     2.192971093404     1.007825032230
         H           -3.358497166309     0.327919805130     1.752749093404     1.007825032230
         H            3.712046833691     0.469055805130     0.748397093404     1.007825032230
         H            3.525240833691     0.151637805130    -0.983479906596     1.007825032230
         H            3.860424833691    -1.193838194870     0.133793093404     1.007825032230
         H           -3.677800166309    -0.599934194870    -0.693633906596     1.007825032230

  Nuclear repulsion =  606.388639429499563
  Reference energy  = -797.297166650997156

  ==> Basis Set <==

  Basis Set: AUG-CC-PVTZ
    Blend: AUG-CC-PVTZ
    Number of shells: 223
    Number of basis function: 671
    Number of Cartesian functions: 779
    Spherical Harmonics?: true
    Max angular momentum: 3

  ==> CGRSolver (by Rob Parrish) <==

   Number of roots    =         1
   Preconditioning    =    JACOBI
   Convergence cutoff =     1E-06
   Maximum iterations =       100

  ==> CPHFRHamiltonian (by Rob Parrish) <== 

  ==> MemDFJK: Density-Fitted J/K Matrices <==

    J tasked:                   Yes
    K tasked:                   Yes
    wK tasked:                   No
    OpenMP threads:               8
    Memory [MiB]:             22888
    Algorithm:                 Disk
    Schwarz Cutoff:           1E-12
    Mask sparsity (%):       5.9342
    Fitting Condition:        1E-10

   => Auxiliary Basis Set <=

  Basis Set: (AUG-CC-PVTZ AUX)
    Blend: AUG-CC-PVTZ-JKFIT
    Number of shells: 438
    Number of basis function: 1496
    Number of Cartesian functions: 1854
    Spherical Harmonics?: true
    Max angular momentum: 4

  ==> CPHF Iterations <==

  => Iterations <=

             Iter  Converged  Remaining    Residual
  CGR           1          0          1   1.302E-01
  CGR           2          0          1   4.300E-02
  CGR           3          0          1   2.244E-02
  CGR           4          0          1   7.799E-03
  CGR           5          0          1   3.157E-03
  CGR           6          0          1   1.230E-03
  CGR           7          0          1   4.494E-04
  CGR           8          0          1   1.432E-04
  CGR           9          0          1   4.722E-05
  CGR          10          0          1   1.961E-05
  CGR          11          0          1   1.000E-05
  CGR          12          0          1   4.200E-06
  CGR          13          0          1   1.507E-06
  CGR          14          1          0   4.177E-07

    CGRSolver converged.

	-----------------------------------------------------------
	 ==================> DF-MP2 Energies <==================== 
	-----------------------------------------------------------
	 Reference Energy          =    -797.2971666509971556 [Eh]
	 Singles Energy            =      -0.0000000000000000 [Eh]
	 Same-Spin Energy          =      -0.4867254095739861 [Eh]
	 Opposite-Spin Energy      =      -1.5058264992132391 [Eh]
	 Correlation Energy        =      -1.9925519087872252 [Eh]
	 Total Energy              =    -799.2897185597844327 [Eh]
	-----------------------------------------------------------
	 ================> DF-SCS-MP2 Energies <================== 
	-----------------------------------------------------------
	 SCS Same-Spin Scale       =       0.3333333333333333 [-]
	 SCS Opposite-Spin Scale   =       1.2000000000000000 [-]
	 SCS Same-Spin Energy      =      -0.1622418031913287 [Eh]
	 SCS Opposite-Spin Energy  =      -1.8069917990558868 [Eh]
	 SCS Correlation Energy    =      -1.9692336022472154 [Eh]
	 SCS Total Energy          =    -799.2664002532443419 [Eh]
	-----------------------------------------------------------



Properties will be evaluated at   0.000000,   0.000000,   0.000000 [a0]

Properties computed using the MP2 density matrix

  Nuclear Dipole Moment: [e a0]
     X:     7.1941      Y:     6.3027      Z:     1.2977

  Electronic Dipole Moment: [e a0]
     X:    -6.9319      Y:    -4.9044      Z:    -1.5676

  Dipole Moment: [e a0]
     X:     0.2622      Y:     1.3982      Z:    -0.2699     Total:     1.4480

  Dipole Moment: [D]
     X:     0.6664      Y:     3.5540      Z:    -0.6860     Total:     3.6804


*** tstop() called on node144.bme.utexas.edu at Wed Feb 10 23:41:17 2021
Module time:
	user time   =    1185.73 seconds =      19.76 minutes
	system time =      56.38 seconds =       0.94 minutes
	total time  =        200 seconds =       3.33 minutes
Total time:
	user time   =    1567.17 seconds =      26.12 minutes
	system time =     107.67 seconds =       1.79 minutes
	total time  =        290 seconds =       4.83 minutes

    Psi4 stopped on: Wednesday, 10 February 2021 11:41PM
    Psi4 wall time for execution: 0:04:50.93

*** Psi4 exiting successfully. Buy a developer a beer!
