009_Pyridine Gaussian SP Calculation on node35.bme.utexas.edu           
Freq      RMP2-FC                                                     6-31G(d)            
Number of atoms                            I               11
Info1-9                                    I   N=           9
          22          21        1002           0           0         100
           6           2           1
Charge                                     I                0
Multiplicity                               I                1
Number of electrons                        I               42
Number of alpha electrons                  I               21
Number of beta electrons                   I               21
Number of basis functions                  I              100
Number of independent functions            I              100
Number of point charges in /Mol/           I                0
Number of translation vectors              I                0
Atomic numbers                             I   N=          11
           7           6           1           6           1           6
           1           6           1           6           1
Nuclear charges                            R   N=          11
  7.00000000E+00  6.00000000E+00  1.00000000E+00  6.00000000E+00  1.00000000E+00
  6.00000000E+00  1.00000000E+00  6.00000000E+00  1.00000000E+00  6.00000000E+00
  1.00000000E+00
Current cartesian coordinates              R   N=          33
 -1.50575583E-06 -2.69594723E+00  5.98883210E-06 -2.16450802E+00 -1.36248989E+00
 -1.00223994E-05 -3.89649601E+00 -2.47277076E+00  4.90510626E-05 -2.26318952E+00
  1.27318173E+00 -5.73233018E-06 -4.07576498E+00  2.23751278E+00  2.99294135E-05
  1.55939458E-06  2.62277476E+00 -3.68902014E-06  2.48009858E-06  4.67723530E+00
  2.71572060E-05  2.26319102E+00  1.27317924E+00 -4.07648172E-06  4.07576778E+00
  2.23750790E+00  4.02912576E-05  2.16450631E+00 -1.36249242E+00 -1.73478363E-05
  3.89649315E+00 -2.47277510E+00  5.68576421E-05
Force Field                                I                0
Int Atom Types                             I   N=          11
           0           0           0           0           0           0
           0           0           0           0           0
MM charges                                 R   N=          11
  0.00000000E+00  0.00000000E+00  0.00000000E+00  0.00000000E+00  0.00000000E+00
  0.00000000E+00  0.00000000E+00  0.00000000E+00  0.00000000E+00  0.00000000E+00
  0.00000000E+00
Integer atomic weights                     I   N=          11
          14          12           1          12           1          12
           1          12           1          12           1
Real atomic weights                        R   N=          11
  1.40030740E+01  1.20000000E+01  1.00782504E+00  1.20000000E+01  1.00782504E+00
  1.20000000E+01  1.00782504E+00  1.20000000E+01  1.00782504E+00  1.20000000E+01
  1.00782504E+00
Atom fragment info                         I   N=          11
           0           0           0           0           0           0
           0           0           0           0           0
Atom residue num                           I   N=          11
           0           0           0           0           0           0
           0           0           0           0           0
Nuclear spins                              I   N=          11
           2           0           1           0           1           0
           1           0           1           0           1
Nuclear ZEff                               R   N=          11
 -4.55000000E+00 -3.60000000E+00 -1.00000000E+00 -3.60000000E+00 -1.00000000E+00
 -3.60000000E+00 -1.00000000E+00 -3.60000000E+00 -1.00000000E+00 -3.60000000E+00
 -1.00000000E+00
Nuclear QMom                               R   N=          11
  2.04400000E+00  0.00000000E+00  0.00000000E+00  0.00000000E+00  0.00000000E+00
  0.00000000E+00  0.00000000E+00  0.00000000E+00  0.00000000E+00  0.00000000E+00
  0.00000000E+00
Nuclear GFac                               R   N=          11
  4.03761000E-01  0.00000000E+00  2.79284600E+00  0.00000000E+00  2.79284600E+00
  0.00000000E+00  2.79284600E+00  0.00000000E+00  2.79284600E+00  0.00000000E+00
  2.79284600E+00
MicOpt                                     I   N=          11
          -1          -1          -1          -1          -1          -1
          -1          -1          -1          -1          -1
Number of contracted shells                I               34
Number of primitive shells                 I               86
Pure/Cartesian d shells                    I                1
Pure/Cartesian f shells                    I                0
Highest angular momentum                   I                2
Largest degree of contraction              I                6
Shell types                                I   N=          34
           0          -1          -1           2           0          -1
          -1           2           0           0           0          -1
          -1           2           0           0           0          -1
          -1           2           0           0           0          -1
          -1           2           0           0           0          -1
          -1           2           0           0
Number of primitives per shell             I   N=          34
           6           3           1           1           6           3
           1           1           3           1           6           3
           1           1           3           1           6           3
           1           1           3           1           6           3
           1           1           3           1           6           3
           1           1           3           1
Shell to atom map                          I   N=          34
           1           1           1           1           2           2
           2           2           3           3           4           4
           4           4           5           5           6           6
           6           6           7           7           8           8
           8           8           9           9          10          10
          10          10          11          11
Primitive exponents                        R   N=          86
  4.17351146E+03  6.27457911E+02  1.42902093E+02  4.02343293E+01  1.28202129E+01
  4.39043701E+00  1.16263619E+01  2.71627981E+00  7.72218397E-01  2.12031498E-01
  8.00000000E-01  3.04752488E+03  4.57369518E+02  1.03948685E+02  2.92101553E+01
  9.28666296E+00  3.16392696E+00  7.86827235E+00  1.88128854E+00  5.44249258E-01
  1.68714478E-01  8.00000000E-01  1.87311370E+01  2.82539436E+00  6.40121692E-01
  1.61277759E-01  3.04752488E+03  4.57369518E+02  1.03948685E+02  2.92101553E+01
  9.28666296E+00  3.16392696E+00  7.86827235E+00  1.88128854E+00  5.44249258E-01
  1.68714478E-01  8.00000000E-01  1.87311370E+01  2.82539436E+00  6.40121692E-01
  1.61277759E-01  3.04752488E+03  4.57369518E+02  1.03948685E+02  2.92101553E+01
  9.28666296E+00  3.16392696E+00  7.86827235E+00  1.88128854E+00  5.44249258E-01
  1.68714478E-01  8.00000000E-01  1.87311370E+01  2.82539436E+00  6.40121692E-01
  1.61277759E-01  3.04752488E+03  4.57369518E+02  1.03948685E+02  2.92101553E+01
  9.28666296E+00  3.16392696E+00  7.86827235E+00  1.88128854E+00  5.44249258E-01
  1.68714478E-01  8.00000000E-01  1.87311370E+01  2.82539436E+00  6.40121692E-01
  1.61277759E-01  3.04752488E+03  4.57369518E+02  1.03948685E+02  2.92101553E+01
  9.28666296E+00  3.16392696E+00  7.86827235E+00  1.88128854E+00  5.44249258E-01
  1.68714478E-01  8.00000000E-01  1.87311370E+01  2.82539436E+00  6.40121692E-01
  1.61277759E-01
Contraction coefficients                   R   N=          86
  1.83477216E-03  1.39946270E-02  6.85865518E-02  2.32240873E-01  4.69069948E-01
  3.60455199E-01 -1.14961182E-01 -1.69117479E-01  1.14585195E+00  1.00000000E+00
  1.00000000E+00  1.83473713E-03  1.40373228E-02  6.88426223E-02  2.32184443E-01
  4.67941348E-01  3.62311985E-01 -1.19332420E-01 -1.60854152E-01  1.14345644E+00
  1.00000000E+00  1.00000000E+00  3.34946043E-02  2.34726953E-01  8.13757326E-01
  1.00000000E+00  1.83473713E-03  1.40373228E-02  6.88426223E-02  2.32184443E-01
  4.67941348E-01  3.62311985E-01 -1.19332420E-01 -1.60854152E-01  1.14345644E+00
  1.00000000E+00  1.00000000E+00  3.34946043E-02  2.34726953E-01  8.13757326E-01
  1.00000000E+00  1.83473713E-03  1.40373228E-02  6.88426223E-02  2.32184443E-01
  4.67941348E-01  3.62311985E-01 -1.19332420E-01 -1.60854152E-01  1.14345644E+00
  1.00000000E+00  1.00000000E+00  3.34946043E-02  2.34726953E-01  8.13757326E-01
  1.00000000E+00  1.83473713E-03  1.40373228E-02  6.88426223E-02  2.32184443E-01
  4.67941348E-01  3.62311985E-01 -1.19332420E-01 -1.60854152E-01  1.14345644E+00
  1.00000000E+00  1.00000000E+00  3.34946043E-02  2.34726953E-01  8.13757326E-01
  1.00000000E+00  1.83473713E-03  1.40373228E-02  6.88426223E-02  2.32184443E-01
  4.67941348E-01  3.62311985E-01 -1.19332420E-01 -1.60854152E-01  1.14345644E+00
  1.00000000E+00  1.00000000E+00  3.34946043E-02  2.34726953E-01  8.13757326E-01
  1.00000000E+00
P(S=P) Contraction coefficients            R   N=          86
  0.00000000E+00  0.00000000E+00  0.00000000E+00  0.00000000E+00  0.00000000E+00
  0.00000000E+00  6.75797439E-02  3.23907296E-01  7.40895140E-01  1.00000000E+00
  0.00000000E+00  0.00000000E+00  0.00000000E+00  0.00000000E+00  0.00000000E+00
  0.00000000E+00  0.00000000E+00  6.89990666E-02  3.16423961E-01  7.44308291E-01
  1.00000000E+00  0.00000000E+00  0.00000000E+00  0.00000000E+00  0.00000000E+00
  0.00000000E+00  0.00000000E+00  0.00000000E+00  0.00000000E+00  0.00000000E+00
  0.00000000E+00  0.00000000E+00  6.89990666E-02  3.16423961E-01  7.44308291E-01
  1.00000000E+00  0.00000000E+00  0.00000000E+00  0.00000000E+00  0.00000000E+00
  0.00000000E+00  0.00000000E+00  0.00000000E+00  0.00000000E+00  0.00000000E+00
  0.00000000E+00  0.00000000E+00  6.89990666E-02  3.16423961E-01  7.44308291E-01
  1.00000000E+00  0.00000000E+00  0.00000000E+00  0.00000000E+00  0.00000000E+00
  0.00000000E+00  0.00000000E+00  0.00000000E+00  0.00000000E+00  0.00000000E+00
  0.00000000E+00  0.00000000E+00  6.89990666E-02  3.16423961E-01  7.44308291E-01
  1.00000000E+00  0.00000000E+00  0.00000000E+00  0.00000000E+00  0.00000000E+00
  0.00000000E+00  0.00000000E+00  0.00000000E+00  0.00000000E+00  0.00000000E+00
  0.00000000E+00  0.00000000E+00  6.89990666E-02  3.16423961E-01  7.44308291E-01
  1.00000000E+00  0.00000000E+00  0.00000000E+00  0.00000000E+00  0.00000000E+00
  0.00000000E+00
Coordinates of each shell                  R   N=         102
 -1.50575583E-06 -2.69594723E+00  5.98883210E-06 -1.50575583E-06 -2.69594723E+00
  5.98883210E-06 -1.50575583E-06 -2.69594723E+00  5.98883210E-06 -1.50575583E-06
 -2.69594723E+00  5.98883210E-06 -2.16450802E+00 -1.36248989E+00 -1.00223994E-05
 -2.16450802E+00 -1.36248989E+00 -1.00223994E-05 -2.16450802E+00 -1.36248989E+00
 -1.00223994E-05 -2.16450802E+00 -1.36248989E+00 -1.00223994E-05 -3.89649601E+00
 -2.47277076E+00  4.90510626E-05 -3.89649601E+00 -2.47277076E+00  4.90510626E-05
 -2.26318952E+00  1.27318173E+00 -5.73233018E-06 -2.26318952E+00  1.27318173E+00
 -5.73233018E-06 -2.26318952E+00  1.27318173E+00 -5.73233018E-06 -2.26318952E+00
  1.27318173E+00 -5.73233018E-06 -4.07576498E+00  2.23751278E+00  2.99294135E-05
 -4.07576498E+00  2.23751278E+00  2.99294135E-05  1.55939458E-06  2.62277476E+00
 -3.68902014E-06  1.55939458E-06  2.62277476E+00 -3.68902014E-06  1.55939458E-06
  2.62277476E+00 -3.68902014E-06  1.55939458E-06  2.62277476E+00 -3.68902014E-06
  2.48009858E-06  4.67723530E+00  2.71572060E-05  2.48009858E-06  4.67723530E+00
  2.71572060E-05  2.26319102E+00  1.27317924E+00 -4.07648172E-06  2.26319102E+00
  1.27317924E+00 -4.07648172E-06  2.26319102E+00  1.27317924E+00 -4.07648172E-06
  2.26319102E+00  1.27317924E+00 -4.07648172E-06  4.07576778E+00  2.23750790E+00
  4.02912576E-05  4.07576778E+00  2.23750790E+00  4.02912576E-05  2.16450631E+00
 -1.36249242E+00 -1.73478363E-05  2.16450631E+00 -1.36249242E+00 -1.73478363E-05
  2.16450631E+00 -1.36249242E+00 -1.73478363E-05  2.16450631E+00 -1.36249242E+00
 -1.73478363E-05  3.89649315E+00 -2.47277510E+00  5.68576421E-05  3.89649315E+00
 -2.47277510E+00  5.68576421E-05
Constraint Structure                       R   N=          33
 -1.50575583E-06 -2.69594723E+00  5.98883210E-06 -2.16450802E+00 -1.36248989E+00
 -1.00223994E-05 -3.89649601E+00 -2.47277076E+00  4.90510626E-05 -2.26318952E+00
  1.27318173E+00 -5.73233018E-06 -4.07576498E+00  2.23751278E+00  2.99294135E-05
  1.55939458E-06  2.62277476E+00 -3.68902014E-06  2.48009858E-06  4.67723530E+00
  2.71572060E-05  2.26319102E+00  1.27317924E+00 -4.07648172E-06  4.07576778E+00
  2.23750790E+00  4.02912576E-05  2.16450631E+00 -1.36249242E+00 -1.73478363E-05
  3.89649315E+00 -2.47277510E+00  5.68576421E-05
Num ILSW                                   I              100
ILSW                                       I   N=         100
           0           1           0           0           2           0
           0           0           0           0           0          -1
           0           0           0           0           0           0
           0           0           0           0           1           0
           1           0           0           0           0           0
           0           0      100000           0          -1           0
           0           0           0           0           0           0
           0           0           0           1           1           0
           0           0           1           0           0           0
           0           0           4          40           0           0
           0           0           0           0           0           0
           0           0           0           0           0           0
           0           0           0           0           0           0
           0           0           0           0           0           0
           0           0           0           0           0           0
           0           0           0           0           0           0
           0           0           0           0
Num RLSW                                   I               40
RLSW                                       R   N=          40
  1.00000000E+00  1.00000000E+00  1.00000000E+00  1.00000000E+00  1.00000000E+00
  0.00000000E+00  0.00000000E+00  1.00000000E+00  0.00000000E+00  0.00000000E+00
  0.00000000E+00  0.00000000E+00  1.00000000E+00  0.00000000E+00  0.00000000E+00
  0.00000000E+00  0.00000000E+00  1.00000000E+00  0.00000000E+00  0.00000000E+00
  0.00000000E+00  0.00000000E+00  1.00000000E+00  0.00000000E+00  0.00000000E+00
  0.00000000E+00  0.00000000E+00  1.00000000E+00  0.00000000E+00  0.00000000E+00
  0.00000000E+00  0.00000000E+00  0.00000000E+00  0.00000000E+00  0.00000000E+00
  0.00000000E+00  0.00000000E+00  0.00000000E+00  1.00000000E+00  1.00000000E+00
MxBond                                     I                3
NBond                                      I   N=          11
           2           3           1           3           1           3
           1           3           1           3           1
IBond                                      I   N=          33
           2          10           0           1           3           4
           2           0           0           2           5           6
           4           0           0           4           7           8
           6           0           0           6           9          10
           8           0           0           1           8          11
          10           0           0
RBond                                      R   N=          33
  1.50000000E+00  1.50000000E+00  0.00000000E+00  1.50000000E+00  1.00000000E+00
  1.50000000E+00  1.00000000E+00  0.00000000E+00  0.00000000E+00  1.50000000E+00
  1.00000000E+00  1.50000000E+00  1.00000000E+00  0.00000000E+00  0.00000000E+00
  1.50000000E+00  1.00000000E+00  1.50000000E+00  1.00000000E+00  0.00000000E+00
  0.00000000E+00  1.50000000E+00  1.00000000E+00  1.50000000E+00  1.00000000E+00
  0.00000000E+00  0.00000000E+00  1.50000000E+00  1.50000000E+00  1.00000000E+00
  1.00000000E+00  0.00000000E+00  0.00000000E+00
Virial Ratio                               R      2.002494170300178E+00
SCF Energy                                 R     -2.466934391643241E+02
MP2 Energy                                 R     -2.474825325382625E+02
Total Energy                               R     -2.474825325382625E+02
Post-SCF wavefunction norm                 R      1.603843536718714E+00
RMS Force                                  R      2.123275835217279E-06
RMS Density                                R      2.330292174831884E-10
External E-field                           R   N=          35
  0.00000000E+00  0.00000000E+00  0.00000000E+00  0.00000000E+00  0.00000000E+00
  0.00000000E+00  0.00000000E+00  0.00000000E+00  0.00000000E+00  0.00000000E+00
  0.00000000E+00  0.00000000E+00  0.00000000E+00  0.00000000E+00  0.00000000E+00
  0.00000000E+00  0.00000000E+00  0.00000000E+00  0.00000000E+00  0.00000000E+00
  0.00000000E+00  0.00000000E+00  0.00000000E+00  0.00000000E+00  0.00000000E+00
  0.00000000E+00  0.00000000E+00  0.00000000E+00  0.00000000E+00  0.00000000E+00
  0.00000000E+00  0.00000000E+00  0.00000000E+00  0.00000000E+00  0.00000000E+00
IOpCl                                      I                0
IROHF                                      I                0
Alpha Orbital Energies                     R   N=         100
 -1.55682026E+01 -1.12747546E+01 -1.12747381E+01 -1.12607714E+01 -1.12430703E+01
 -1.12430251E+01 -1.24902491E+00 -1.08380501E+00 -1.02809450E+00 -8.53476510E-01
 -8.49475355E-01 -7.15166235E-01 -6.52853332E-01 -6.49756990E-01 -5.93441476E-01
 -5.71631857E-01 -5.33182975E-01 -5.14682134E-01 -4.13311145E-01 -3.76844118E-01
 -3.42599939E-01  1.21137903E-01  1.38323742E-01  2.35771540E-01  2.84995068E-01
  3.00893272E-01  3.20943396E-01  3.24313553E-01  3.51039397E-01  4.06687100E-01
  4.62957208E-01  4.96797312E-01  5.04047400E-01  6.39140003E-01  6.47462905E-01
  7.44211952E-01  7.54049655E-01  7.85113699E-01  8.01785293E-01  8.13709054E-01
  8.25552366E-01  8.29764490E-01  8.30867964E-01  8.96619250E-01  8.98160322E-01
  9.21747254E-01  9.35749500E-01  1.09007328E+00  1.09078713E+00  1.09144927E+00
  1.10587023E+00  1.12005274E+00  1.13139818E+00  1.17699932E+00  1.18429445E+00
  1.20801281E+00  1.28572863E+00  1.30714255E+00  1.35118852E+00  1.39894283E+00
  1.45205114E+00  1.50651527E+00  1.61673207E+00  1.64577716E+00  1.71984828E+00
  1.75564913E+00  1.75589260E+00  1.79308461E+00  1.80379815E+00  1.96395465E+00
  2.06995067E+00  2.10208453E+00  2.12518443E+00  2.23271386E+00  2.29369053E+00
  2.37298774E+00  2.44077998E+00  2.45267167E+00  2.48743350E+00  2.49577607E+00
  2.50912933E+00  2.61737052E+00  2.64330097E+00  2.70594432E+00  2.85210347E+00
  2.87292320E+00  2.98343855E+00  3.01220627E+00  3.03026891E+00  3.07291949E+00
  3.12266107E+00  3.13803100E+00  3.41536401E+00  3.74052177E+00  4.45470110E+00
  4.51982674E+00  4.54089279E+00  4.64773927E+00  4.73950769E+00  5.00627983E+00
Alpha MO coefficients                      R   N=       10000
  9.95239183E-01  2.48750291E-02  1.31024496E-09  1.98215736E-03 -4.38274455E-08
 -6.22319299E-03 -1.60076447E-09 -2.94114309E-03  5.27525939E-08 -2.59986876E-03
 -2.82937758E-03 -3.14753406E-03  3.89412648E-11 -3.56540865E-10 -1.64304981E-09
  1.32268897E-05  2.91749543E-04  7.00714394E-05 -4.08898866E-05  5.93703876E-10
  4.05446814E-03  2.12222211E-03  9.72662136E-04 -1.07476350E-08 -3.80763791E-04
 -1.85210532E-04 -8.07987550E-05  2.56348513E-04  1.64754518E-10  5.57085376E-09
  2.75458530E-05  4.67686261E-04  3.94832152E-05  1.77331493E-04 -8.93806187E-06
  4.99401071E-05 -3.19600022E-09 -3.31388136E-03 -1.89058777E-03  9.83155194E-04
  2.19503942E-08  2.67727977E-05  1.40238650E-05  4.33394306E-05  4.83725937E-05
  1.02721817E-09  4.65012271E-11 -6.49582697E-05 -5.18563356E-04 -3.33541214E-05
 -1.51228125E-04  1.80214074E-11  2.40360748E-05 -5.76442477E-10  3.14786906E-03
 -7.03290334E-10 -1.84843628E-03 -1.65140000E-08 -2.00092219E-05 -2.73168273E-05
 -6.68776065E-05 -1.08586690E-11 -2.75206141E-10 -1.91156276E-10  4.84022078E-05
  4.41824723E-04  3.94832208E-05  1.77331531E-04  8.93811834E-06  4.99400990E-05
 -3.22108326E-09 -3.31388158E-03  1.89058932E-03  9.83152595E-04  2.80150608E-08
  2.67726823E-05  1.40239683E-05  4.33394468E-05 -4.83726226E-05 -1.84545174E-09
  1.56219702E-10 -6.49582736E-05 -5.18563416E-04  1.32269197E-05  2.91749506E-04
 -7.00712495E-05 -4.08896863E-05  1.44384458E-09  4.05446818E-03 -2.12222121E-03
  9.72664425E-04 -5.81239717E-09 -3.80764478E-04 -1.85210061E-04 -8.07987026E-05
 -2.56348369E-04  7.93385787E-11  7.38619989E-09  2.75458890E-05  4.67686274E-04
 -5.99693791E-09  8.82196730E-09  8.36398893E-05 -2.68826545E-10  1.72287603E-10
 -3.18071547E-08 -1.33650725E-03 -2.34650888E-08  5.79872293E-09 -1.08138557E-08
 -4.36731012E-09  5.26730426E-09 -2.09174648E-04  9.27616870E-09  1.16570139E-09
 -7.03940001E-01 -1.94391068E-02 -4.14827517E-04 -8.76109324E-06 -2.47861674E-09
  8.00404358E-03  4.29849909E-04  2.66186843E-03 -1.71474006E-09  1.20319580E-03
  1.07383216E-03  1.64398031E-03  1.78784469E-04  6.09716394E-09  8.36028638E-09
  2.12764773E-04 -6.75432759E-04 -1.31312339E-02 -2.65227914E-04 -2.71065588E-06
 -8.33710780E-05 -2.25245451E-09 -3.58573221E-03  7.45125528E-05  2.20892712E-03
  6.40202048E-09  2.36871570E-04  3.31400343E-04  9.25550505E-05  5.84055348E-05
 -1.39842988E-09  1.30530346E-09  6.33324213E-05 -6.31627714E-05  1.16772770E-08
 -5.83214055E-09 -3.13494451E-05 -1.72609984E-10  3.38623969E-10  5.17410603E-08
  8.14523963E-04 -3.24081023E-08 -1.85025652E-10  2.17111773E-09  2.26705712E-09
 -1.33967642E-09 -9.98444305E-05  4.88647507E-10  4.70598371E-10  6.04714281E-10
  1.01337192E-08  1.31316262E-02  2.65242833E-04 -2.71054683E-06  8.33759703E-05
  3.86154098E-09  3.58571344E-03  7.45744626E-05 -2.20893293E-03 -1.28001144E-08
 -2.36878431E-04 -3.31413104E-04 -9.25563303E-05  5.84068609E-05 -1.25258790E-09
 -2.75565272E-09 -6.33370375E-05  6.31423270E-05  7.03961845E-01  1.94396933E-02
 -4.14840707E-04  8.75795779E-06  5.81339012E-09 -8.00418122E-03  4.29781851E-04
 -2.66186004E-03 -1.28148390E-08 -1.20322454E-03 -1.07386305E-03 -1.64403604E-03
  1.78792394E-04  8.90300167E-09 -1.02366723E-08 -2.12764953E-04  6.75494045E-04
 -3.79024168E-04  5.69458260E-04 -1.35334484E-09 -1.34567872E-05 -2.65746211E-09
 -1.98921703E-03  1.94423670E-08 -1.54353381E-03  6.64442063E-08 -6.90639423E-04
 -2.96828761E-04  3.37669047E-04  3.60865293E-09  3.07797184E-09  1.94362241E-08
  7.03908733E-01  1.88952638E-02  4.24775612E-04 -1.14998678E-04  9.28130536E-09
 -4.48582575E-03  2.06668563E-03  2.77592911E-04 -6.04772787E-08 -9.42497955E-04
 -9.79665341E-04 -1.79395731E-03 -2.43522491E-04 -3.24915796E-09 -4.71123437E-09
 -8.40345806E-06  1.96770882E-03  1.27374793E-02  4.77875630E-04 -5.32123722E-07
  1.59466913E-04 -3.35299260E-09 -5.62133452E-04 -2.06443126E-03 -2.00865018E-04
  3.97790689E-08 -2.26463879E-04 -4.02733331E-04 -4.10374277E-05 -4.53316885E-05
  2.14719742E-09 -3.92038670E-09 -1.46789934E-04 -6.52968190E-04  7.46312583E-04
 -3.73421138E-04  4.93340129E-10 -1.18137182E-05  9.86328335E-10  3.30903878E-03
 -1.32481293E-08 -2.04265173E-03 -2.98721606E-08  1.44240475E-04  1.39847890E-04
 -8.53599792E-05  1.54625608E-09 -1.69122439E-10  8.32211219E-10  3.82378744E-05
  6.49616954E-04  1.27370688E-02  4.77867518E-04  5.32384350E-07  1.59464291E-04
 -2.26353501E-09 -5.62245055E-04  2.06442940E-03 -2.00799522E-04  4.70886900E-08
 -2.26456427E-04 -4.02723297E-04 -4.10345595E-05  4.53296450E-05 -2.89368877E-09
 -6.84571546E-09 -1.46788011E-04 -6.52970293E-04  7.03886887E-01  1.88946607E-02
 -4.24762857E-04 -1.14998517E-04  1.50040980E-08 -4.48557698E-03 -2.06669950E-03
  2.77677060E-04 -7.35591679E-08 -9.42460043E-04 -9.79632600E-04 -1.79390636E-03
  2.43517100E-04  1.86917317E-09 -5.08382200E-09 -8.39680972E-06  1.96768792E-03
 -1.75864098E-05 -9.29674550E-05 -9.44997337E-12 -2.48675850E-05 -5.55094132E-10
  8.49383725E-04  1.32876766E-10  2.75940810E-04 -2.23929009E-09 -3.91056372E-05
 -4.29602404E-05 -5.65873056E-05  5.99500963E-13  2.04093804E-10 -4.30837530E-10
 -1.17128958E-03 -1.55198564E-04 -1.72808870E-05 -3.02938640E-05  1.34280329E-10
 -1.03679956E-03 -3.58025756E-04 -2.20718499E-04 -2.41049134E-09  4.01653619E-05
  1.00081479E-04 -1.70693679E-05  3.18622953E-05 -3.04415361E-10  2.34908615E-10
 -7.88782948E-06  4.31099128E-05  3.28938017E-02  7.12393565E-04 -1.69112044E-04
 -3.48379777E-05  5.23863386E-10  4.94461514E-03  2.29505202E-03  1.89259224E-04
 -1.30268239E-09 -4.66970276E-04 -4.38885758E-04 -2.06270876E-04 -1.31754414E-04
  1.48149513E-09 -1.56905903E-09 -2.94508651E-05  3.02141395E-04  9.94567086E-01
  2.75784491E-02 -1.88544967E-10 -2.41694796E-04  2.28685395E-11 -1.41455332E-02
  1.46156655E-09  2.43146834E-03 -5.69140095E-09 -1.49018049E-03 -1.73848338E-03
 -2.36922666E-03 -3.09368259E-10  5.19588010E-10  8.54748591E-09 -2.12141730E-04
  1.44236020E-03  3.28938253E-02  7.12394061E-04  1.69112089E-04 -3.48381973E-05
  7.07068005E-10  4.94461490E-03 -2.29505188E-03  1.89262073E-04 -4.08571839E-09
 -4.66970015E-04 -4.38886011E-04 -2.06270905E-04  1.31754350E-04 -1.79601177E-09
 -1.56244800E-09 -2.94508688E-05  3.02141467E-04 -1.17129004E-03 -1.55198610E-04
  1.72808443E-05 -3.02938914E-05  4.75415991E-10 -1.03679921E-03  3.58025258E-04
 -2.20718723E-04 -5.98194884E-09  4.01652919E-05  1.00081522E-04 -1.70693613E-05
 -3.18622452E-05  9.31391374E-10  5.44263755E-10 -7.88781483E-06  4.31100291E-05
  8.50102989E-09  2.16950548E-08  1.61343713E-05  2.41011782E-09 -5.03412373E-10
 -2.97770357E-07 -1.92296672E-04 -1.12390326E-07  1.73303919E-09  2.18641930E-08
  1.90017460E-08  1.34964650E-08  6.08311651E-05 -2.25722032E-09  3.92305499E-10
  1.34925931E-02  4.43325840E-04  1.23232157E-05  1.09403941E-04 -5.14220441E-10
 -3.24036078E-03 -4.52890336E-04 -1.13092201E-03 -3.24004384E-09  1.67584871E-04
  3.32392151E-04  2.66304683E-05 -4.60425969E-05 -1.80102668E-09 -1.23098596E-10
  2.80087727E-05 -3.92411259E-05 -7.03844855E-01 -1.97386242E-02 -2.08560502E-04
  7.94032844E-05  2.36697768E-09  9.06403397E-03  1.19122366E-03 -5.64484409E-04
  7.57449981E-09  1.32389215E-03  1.15861778E-03  1.68360430E-03 -8.48828985E-05
  4.83180962E-09 -2.61681818E-09  1.38897383E-04 -1.01974430E-03 -3.59221358E-06
 -1.24995617E-07 -1.78882777E-04  1.56734929E-08  8.41627149E-11  7.56581657E-07
  1.78937546E-03 -2.93917627E-07 -5.65533091E-10 -4.85794077E-08 -2.76498892E-08
 -6.41081657E-09  1.36493947E-04  2.17370717E-10 -4.00712513E-10 -1.13425259E-10
  3.67617482E-08  7.03951117E-01  1.97416082E-02 -2.08592082E-04 -7.94176824E-05
 -5.60739304E-09 -9.06598792E-03  1.19169271E-03  5.64711800E-04 -7.38471286E-10
 -1.32405838E-03 -1.15878118E-03 -1.68385049E-03 -8.49015685E-05  5.78649986E-09
  3.85877852E-09 -1.38927524E-04  1.01984434E-03 -1.34945583E-02 -4.43404632E-04
  1.23231484E-05 -1.09424291E-04 -7.05305689E-10  3.24124334E-03 -4.53149775E-04
  1.13123012E-03  7.14034732E-09 -1.67608326E-04 -3.32438498E-04 -2.66423524E-05
 -4.60508246E-05 -2.46561322E-09 -7.74817779E-10 -2.80079481E-05  3.93018040E-05
  1.12501119E-04  2.86959787E-04 -1.18982889E-09  3.20428157E-05 -3.08179170E-09
 -3.94177376E-03  1.36379245E-08 -1.48896114E-03  2.59709184E-08  2.88253084E-04
  2.52565302E-04  1.78774587E-04 -4.64122194E-09 -2.87007794E-10  4.29349455E-09
 -1.30265394E-02 -5.23253278E-04 -4.30788426E-07 -1.35226674E-04 -5.07553440E-10
  5.84327911E-03  1.72735243E-03  2.03690586E-03 -1.26810628E-09 -1.54543979E-04
 -3.06661228E-04 -7.85673504E-05  5.28312113E-05  3.89490687E-09  2.46509537E-09
  5.58636224E-06  4.02336036E-04  7.03228593E-01  1.97484180E-02  2.08274655E-04
 -9.67668879E-05 -5.55826435E-09 -1.29320993E-02 -3.09990272E-03  1.51415239E-03
  1.00353347E-08 -1.10024328E-03 -1.08146779E-03 -1.62969625E-03  1.24632100E-04
 -4.19591960E-09  2.84473762E-09 -1.99431328E-04  6.61995135E-04 -4.73207245E-02
 -1.64677598E-03  1.35924129E-08  2.05447696E-04  9.91242509E-10  1.00088779E-02
 -1.36906812E-07 -3.87652322E-03 -1.49543248E-08 -6.46293675E-04 -3.64257158E-04
 -8.56288563E-05 -1.01590002E-08 -6.00059470E-10 -5.07289749E-09 -1.58159389E-06
  4.86674077E-04  7.03122221E-01  1.97454348E-02 -2.08243267E-04 -9.67546498E-05
 -8.07739842E-09 -1.29307296E-02  3.09972488E-03  1.51406310E-03  2.04784848E-08
 -1.10004329E-03 -1.08129257E-03 -1.62944176E-03 -1.24619313E-04  5.34720201E-09
  3.61377086E-09 -1.99410359E-04  6.61840931E-04 -1.30244972E-02 -5.23186035E-04
  4.28756406E-07 -1.35210071E-04  2.67570949E-10  5.84278905E-03 -1.72728165E-03
  2.03673658E-03  4.80006323E-09 -1.54518732E-04 -3.06610979E-04 -7.85633390E-05
 -5.28244892E-05 -5.46721328E-09  1.67702540E-09  5.59058224E-06  4.02330042E-04
 -1.57202533E-01  3.20520394E-01  8.76642157E-08  1.07283159E-01 -1.22090381E-06
  3.43496721E-01  3.81220993E-08  6.23894404E-02 -9.41076172E-07  8.19276739E-03
  4.46077898E-03 -1.27607955E-02 -1.97516390E-10 -4.12541674E-08 -2.95964185E-07
 -9.65865148E-02  1.86260758E-01  9.69923373E-02 -2.22929578E-02  8.23435253E-07
  5.41814426E-02 -2.29003562E-02  4.73920910E-05  1.64769919E-07  1.52282680E-02
  2.22143847E-03 -1.06787447E-02 -9.54450016E-03  6.51313231E-09 -1.39965522E-07
  3.06488031E-02 -4.15943680E-03 -4.81710768E-02  8.85569052E-02  2.79393268E-02
 -3.41033457E-02  1.49009067E-07  7.80844184E-02  2.76005819E-02 -9.15820067E-03
 -1.64077028E-07  1.80064270E-03  6.55685240E-03 -4.76638556E-03 -6.60614960E-04
 -2.91197980E-08  2.44516311E-08  1.48306291E-02  7.02080918E-03 -3.85179908E-02
  7.57337180E-02 -1.76784309E-08 -3.38125172E-02  4.60991843E-08  2.50797783E-03