opt=Tight                                                               
Freq      RMP2-FC                                                     6-31G(d)            
Number of atoms                            I               11
Info1-9                                    I   N=           9
          20          20        1002           0           0         100
           6           2           1
Charge                                     I               -1
Multiplicity                               I                1
Number of electrons                        I               42
Number of alpha electrons                  I               21
Number of beta electrons                   I               21
Number of basis functions                  I               78
Number of independent functions            I               78
Number of point charges in /Mol/           I                0
Number of translation vectors              I                0
Atomic numbers                             I   N=          11
          16           6           6           6           1           1
           1           1           1           1           1
Nuclear charges                            R   N=          11
  1.60000000E+01  6.00000000E+00  6.00000000E+00  6.00000000E+00  1.00000000E+00
  1.00000000E+00  1.00000000E+00  1.00000000E+00  1.00000000E+00  1.00000000E+00
  1.00000000E+00
Current cartesian coordinates              R   N=          33
  1.65554389E+00  2.13214940E+00  7.93828256E-17 -9.91025198E-01 -1.13951838E-01
 -3.10192414E-17 -9.91025198E-01 -1.76953674E+00  2.36392797E+00 -9.91025198E-01
 -1.76953674E+00 -2.36392797E+00 -2.76114053E+00  9.70683764E-01 -6.81383119E-17
  7.44254911E-01 -2.89442659E+00  2.44501213E+00 -1.08125239E+00 -6.17745248E-01
  4.07758216E+00 -2.60755660E+00 -3.07128927E+00  2.36911620E+00  7.44254911E-01
 -2.89442659E+00 -2.44501213E+00 -1.08125239E+00 -6.17745248E-01 -4.07758216E+00
 -2.60755660E+00 -3.07128927E+00 -2.36911620E+00
Force Field                                I                0
Int Atom Types                             I   N=          11
           0           0           0           0           0           0
           0           0           0           0           0
MM charges                                 R   N=          11
  0.00000000E+00  0.00000000E+00  0.00000000E+00  0.00000000E+00  0.00000000E+00
  0.00000000E+00  0.00000000E+00  0.00000000E+00  0.00000000E+00  0.00000000E+00
  0.00000000E+00
Integer atomic weights                     I   N=          11
          32          12          12          12           1           1
           1           1           1           1           1
Real atomic weights                        R   N=          11
  3.19720718E+01  1.20000000E+01  1.20000000E+01  1.20000000E+01  1.00782504E+00
  1.00782504E+00  1.00782504E+00  1.00782504E+00  1.00782504E+00  1.00782504E+00
  1.00782504E+00
Atom fragment info                         I   N=          11
           0           0           0           0           0           0
           0           0           0           0           0
Atom residue num                           I   N=          11
           0           0           0           0           0           0
           0           0           0           0           0
Nuclear spins                              I   N=          11
           0           0           0           0           1           1
           1           1           1           1           1
Nuclear ZEff                               R   N=          11
 -1.36000000E+01 -3.60000000E+00 -3.60000000E+00 -3.60000000E+00 -1.00000000E+00
 -1.00000000E+00 -1.00000000E+00 -1.00000000E+00 -1.00000000E+00 -1.00000000E+00
 -1.00000000E+00
Nuclear QMom                               R   N=          11
  0.00000000E+00  0.00000000E+00  0.00000000E+00  0.00000000E+00  0.00000000E+00
  0.00000000E+00  0.00000000E+00  0.00000000E+00  0.00000000E+00  0.00000000E+00
  0.00000000E+00
Nuclear GFac                               R   N=          11
  0.00000000E+00  0.00000000E+00  0.00000000E+00  0.00000000E+00  2.79284600E+00
  2.79284600E+00  2.79284600E+00  2.79284600E+00  2.79284600E+00  2.79284600E+00
  2.79284600E+00
MicOpt                                     I   N=          11
          -1          -1          -1          -1          -1          -1
          -1          -1          -1          -1          -1
Number of contracted shells                I               31
Number of primitive shells                 I               78
Pure/Cartesian d shells                    I                1
Pure/Cartesian f shells                    I                0
Highest angular momentum                   I                2
Largest degree of contraction              I                6
Shell types                                I   N=          31
           0          -1          -1          -1           2           0
          -1          -1           2           0          -1          -1
           2           0          -1          -1           2           0
           0           0           0           0           0           0
           0           0           0           0           0           0
           0
Number of primitives per shell             I   N=          31
           6           6           3           1           1           6
           3           1           1           6           3           1
           1           6           3           1           1           3
           1           3           1           3           1           3
           1           3           1           3           1           3
           1
Shell to atom map                          I   N=          31
           1           1           1           1           1           2
           2           2           2           3           3           3
           3           4           4           4           4           5
           5           6           6           7           7           8
           8           9           9          10          10          11
          11
Primitive exponents                        R   N=          78
  2.19171000E+04  3.30149000E+03  7.54146000E+02  2.12711000E+02  6.79896000E+01
  2.30515000E+01  4.23735000E+02  1.00710000E+02  3.21599000E+01  1.18079000E+01
  4.63110000E+00  1.87025000E+00  2.61584000E+00  9.22167000E-01  3.41287000E-01
  1.17167000E-01  6.50000000E-01  3.04752488E+03  4.57369518E+02  1.03948685E+02
  2.92101553E+01  9.28666296E+00  3.16392696E+00  7.86827235E+00  1.88128854E+00
  5.44249258E-01  1.68714478E-01  8.00000000E-01  3.04752488E+03  4.57369518E+02
  1.03948685E+02  2.92101553E+01  9.28666296E+00  3.16392696E+00  7.86827235E+00
  1.88128854E+00  5.44249258E-01  1.68714478E-01  8.00000000E-01  3.04752488E+03
  4.57369518E+02  1.03948685E+02  2.92101553E+01  9.28666296E+00  3.16392696E+00
  7.86827235E+00  1.88128854E+00  5.44249258E-01  1.68714478E-01  8.00000000E-01
  1.87311370E+01  2.82539436E+00  6.40121692E-01  1.61277759E-01  1.87311370E+01
  2.82539436E+00  6.40121692E-01  1.61277759E-01  1.87311370E+01  2.82539436E+00
  6.40121692E-01  1.61277759E-01  1.87311370E+01  2.82539436E+00  6.40121692E-01
  1.61277759E-01  1.87311370E+01  2.82539436E+00  6.40121692E-01  1.61277759E-01
  1.87311370E+01  2.82539436E+00  6.40121692E-01  1.61277759E-01  1.87311370E+01
  2.82539436E+00  6.40121692E-01  1.61277759E-01
Contraction coefficients                   R   N=          78
  1.86924085E-03  1.42303065E-02  6.96962317E-02  2.38487108E-01  4.83307220E-01
  3.38074154E-01 -2.37677050E-03 -3.16930067E-02 -1.13317024E-01  5.60900118E-02
  5.92255124E-01  4.55006095E-01 -2.50373114E-01  6.69567631E-02  1.05450627E+00
  1.00000000E+00  1.00000000E+00  1.83473713E-03  1.40373228E-02  6.88426223E-02
  2.32184443E-01  4.67941348E-01  3.62311985E-01 -1.19332420E-01 -1.60854152E-01
  1.14345644E+00  1.00000000E+00  1.00000000E+00  1.83473713E-03  1.40373228E-02
  6.88426223E-02  2.32184443E-01  4.67941348E-01  3.62311985E-01 -1.19332420E-01
 -1.60854152E-01  1.14345644E+00  1.00000000E+00  1.00000000E+00  1.83473713E-03
  1.40373228E-02  6.88426223E-02  2.32184443E-01  4.67941348E-01  3.62311985E-01
 -1.19332420E-01 -1.60854152E-01  1.14345644E+00  1.00000000E+00  1.00000000E+00
  3.34946043E-02  2.34726953E-01  8.13757326E-01  1.00000000E+00  3.34946043E-02
  2.34726953E-01  8.13757326E-01  1.00000000E+00  3.34946043E-02  2.34726953E-01
  8.13757326E-01  1.00000000E+00  3.34946043E-02  2.34726953E-01  8.13757326E-01
  1.00000000E+00  3.34946043E-02  2.34726953E-01  8.13757326E-01  1.00000000E+00
  3.34946043E-02  2.34726953E-01  8.13757326E-01  1.00000000E+00  3.34946043E-02
  2.34726953E-01  8.13757326E-01  1.00000000E+00
P(S=P) Contraction coefficients            R   N=          78
  0.00000000E+00  0.00000000E+00  0.00000000E+00  0.00000000E+00  0.00000000E+00
  0.00000000E+00  4.06100998E-03  3.06812999E-02  1.30451999E-01  3.27204999E-01
  4.52850998E-01  2.56041999E-01 -1.45104895E-02  3.10262776E-01  7.54482456E-01
  1.00000000E+00  0.00000000E+00  0.00000000E+00  0.00000000E+00  0.00000000E+00
  0.00000000E+00  0.00000000E+00  0.00000000E+00  6.89990666E-02  3.16423961E-01
  7.44308291E-01  1.00000000E+00  0.00000000E+00  0.00000000E+00  0.00000000E+00
  0.00000000E+00  0.00000000E+00  0.00000000E+00  0.00000000E+00  6.89990666E-02
  3.16423961E-01  7.44308291E-01  1.00000000E+00  0.00000000E+00  0.00000000E+00
  0.00000000E+00  0.00000000E+00  0.00000000E+00  0.00000000E+00  0.00000000E+00
  6.89990666E-02  3.16423961E-01  7.44308291E-01  1.00000000E+00  0.00000000E+00
  0.00000000E+00  0.00000000E+00  0.00000000E+00  0.00000000E+00  0.00000000E+00
  0.00000000E+00  0.00000000E+00  0.00000000E+00  0.00000000E+00  0.00000000E+00
  0.00000000E+00  0.00000000E+00  0.00000000E+00  0.00000000E+00  0.00000000E+00
  0.00000000E+00  0.00000000E+00  0.00000000E+00  0.00000000E+00  0.00000000E+00
  0.00000000E+00  0.00000000E+00  0.00000000E+00  0.00000000E+00  0.00000000E+00
  0.00000000E+00  0.00000000E+00  0.00000000E+00
Coordinates of each shell                  R   N=          93
  1.65554389E+00  2.13214940E+00  5.29218838E-17  1.65554389E+00  2.13214940E+00
  5.29218838E-17  1.65554389E+00  2.13214940E+00  5.29218838E-17  1.65554389E+00
  2.13214940E+00  5.29218838E-17  1.65554389E+00  2.13214940E+00  5.29218838E-17
 -9.91025198E-01 -1.13951838E-01 -2.06794943E-17 -9.91025198E-01 -1.13951838E-01
 -2.06794943E-17 -9.91025198E-01 -1.13951838E-01 -2.06794943E-17 -9.91025198E-01
 -1.13951838E-01 -2.06794943E-17 -9.91025198E-01 -1.76953674E+00  2.36392797E+00
 -9.91025198E-01 -1.76953674E+00  2.36392797E+00 -9.91025198E-01 -1.76953674E+00
  2.36392797E+00 -9.91025198E-01 -1.76953674E+00  2.36392797E+00 -9.91025198E-01
 -1.76953674E+00 -2.36392797E+00 -9.91025198E-01 -1.76953674E+00 -2.36392797E+00
 -9.91025198E-01 -1.76953674E+00 -2.36392797E+00 -9.91025198E-01 -1.76953674E+00
 -2.36392797E+00 -2.76114053E+00  9.70683764E-01 -4.54255413E-17 -2.76114053E+00
  9.70683764E-01 -4.54255413E-17  7.44254911E-01 -2.89442659E+00  2.44501213E+00
  7.44254911E-01 -2.89442659E+00  2.44501213E+00 -1.08125239E+00 -6.17745248E-01
  4.07758216E+00 -1.08125239E+00 -6.17745248E-01  4.07758216E+00 -2.60755660E+00
 -3.07128927E+00  2.36911620E+00 -2.60755660E+00 -3.07128927E+00  2.36911620E+00
  7.44254911E-01 -2.89442659E+00 -2.44501213E+00  7.44254911E-01 -2.89442659E+00
 -2.44501213E+00 -1.08125239E+00 -6.17745248E-01 -4.07758216E+00 -1.08125239E+00
 -6.17745248E-01 -4.07758216E+00 -2.60755660E+00 -3.07128927E+00 -2.36911620E+00
 -2.60755660E+00 -3.07128927E+00 -2.36911620E+00
Constraint Structure                       R   N=          33
  1.65554389E+00  2.13214940E+00  5.29218838E-17 -9.91025198E-01 -1.13951838E-01
 -2.06794943E-17 -9.91025198E-01 -1.76953674E+00  2.36392797E+00 -9.91025198E-01
 -1.76953674E+00 -2.36392797E+00 -2.76114053E+00  9.70683764E-01 -4.54255413E-17
  7.44254911E-01 -2.89442659E+00  2.44501213E+00 -1.08125239E+00 -6.17745248E-01
  4.07758216E+00 -2.60755660E+00 -3.07128927E+00  2.36911620E+00  7.44254911E-01
 -2.89442659E+00 -2.44501213E+00 -1.08125239E+00 -6.17745248E-01 -4.07758216E+00
 -2.60755660E+00 -3.07128927E+00 -2.36911620E+00
Num ILSW                                   I              100
ILSW                                       I   N=         100
           0           1           0           0           2           0
           0           0           0           0           0          -1
           0           0           0           0           0           0
           0           0           0           0           1           0
           1           0           0           0           0           0
           0           0      100000           0          -1           0
           0           0           0           0           0           0
           0           0           0           1           1           0
           0           0           1           0           0           0
           0           0           4          40           0           0
           0           0           0           0           0           0
           0           0           0           0           0           0
           0           0           0           0           0           0
           0           0           0           0           0           0
           0           0           0           0           0           0
           0           0           0           0           0           0
           0           0           0           0
Num RLSW                                   I               40
RLSW                                       R   N=          40
  1.00000000E+00  1.00000000E+00  1.00000000E+00  1.00000000E+00  1.00000000E+00
  0.00000000E+00  0.00000000E+00  1.00000000E+00  0.00000000E+00  0.00000000E+00
  0.00000000E+00  0.00000000E+00  1.00000000E+00  0.00000000E+00  0.00000000E+00
  0.00000000E+00  0.00000000E+00  1.00000000E+00  0.00000000E+00  0.00000000E+00
  0.00000000E+00  0.00000000E+00  1.00000000E+00  0.00000000E+00  0.00000000E+00
  0.00000000E+00  0.00000000E+00  1.00000000E+00  0.00000000E+00  0.00000000E+00
  0.00000000E+00  0.00000000E+00  0.00000000E+00  0.00000000E+00  0.00000000E+00
  0.00000000E+00  0.00000000E+00  0.00000000E+00  1.00000000E+00  1.00000000E+00
MxBond                                     I                4
NBond                                      I   N=          11
           1           4           4           4           1           1
           1           1           1           1           1
IBond                                      I   N=          44
           2           0           0           0           1           3
           4           5           2           6           7           8
           2           9          10          11           2           0
           0           0           3           0           0           0
           3           0           0           0           3           0
           0           0           4           0           0           0
           4           0           0           0           4           0
           0           0
RBond                                      R   N=          44
  1.00000000E+00  0.00000000E+00  0.00000000E+00  0.00000000E+00  1.00000000E+00
  1.00000000E+00  1.00000000E+00  1.00000000E+00  1.00000000E+00  1.00000000E+00
  1.00000000E+00  1.00000000E+00  1.00000000E+00  1.00000000E+00  1.00000000E+00
  1.00000000E+00  1.00000000E+00  0.00000000E+00  0.00000000E+00  0.00000000E+00
  1.00000000E+00  0.00000000E+00  0.00000000E+00  0.00000000E+00  1.00000000E+00
  0.00000000E+00  0.00000000E+00  0.00000000E+00  1.00000000E+00  0.00000000E+00
  0.00000000E+00  0.00000000E+00  1.00000000E+00  0.00000000E+00  0.00000000E+00
  0.00000000E+00  1.00000000E+00  0.00000000E+00  0.00000000E+00  0.00000000E+00
  1.00000000E+00  0.00000000E+00  0.00000000E+00  0.00000000E+00
Virial Ratio                               R      2.000737052055926E+00
SCF Energy                                 R     -5.152955623570005E+02
MP2 Energy                                 R     -5.158133912084139E+02
Total Energy                               R     -5.158133912084139E+02
Post-SCF wavefunction norm                 R      1.541167788894204E+00
RMS Force                                  R      5.643410859717283E-06
RMS Density                                R      1.581926042408267E-09
External E-field                           R   N=          35
  0.00000000E+00  0.00000000E+00  0.00000000E+00  0.00000000E+00  0.00000000E+00
  0.00000000E+00  0.00000000E+00  0.00000000E+00  0.00000000E+00  0.00000000E+00
  0.00000000E+00  0.00000000E+00  0.00000000E+00  0.00000000E+00  0.00000000E+00
  0.00000000E+00  0.00000000E+00  0.00000000E+00  0.00000000E+00  0.00000000E+00
  0.00000000E+00  0.00000000E+00  0.00000000E+00  0.00000000E+00  0.00000000E+00
  0.00000000E+00  0.00000000E+00  0.00000000E+00  0.00000000E+00  0.00000000E+00
  0.00000000E+00  0.00000000E+00  0.00000000E+00  0.00000000E+00  0.00000000E+00
IOpCl                                      I                0
IROHF                                      I                0
Alpha Orbital Energies                     R   N=          78
 -9.18301149E+01 -1.12232049E+01 -1.11982659E+01 -1.11982440E+01 -8.83743764E+00
 -6.52120709E+00 -6.51850011E+00 -6.51849980E+00 -1.04763902E+00 -9.11277874E-01
 -8.41981837E-01 -7.18981555E-01 -5.96913725E-01 -5.60829319E-01 -5.41738351E-01
 -5.18738231E-01 -4.62336209E-01 -4.62010104E-01 -3.84681409E-01 -2.72979555E-01
 -2.72881835E-01  2.33279961E-01  2.70643119E-01  3.04035624E-01  3.14283673E-01
  3.21026793E-01  3.44236310E-01  3.58992405E-01  3.64427819E-01  4.03367807E-01
  4.32909842E-01  5.35860112E-01  6.24737666E-01  6.36067782E-01  6.39315795E-01
  7.34865574E-01  7.35566459E-01  7.88672527E-01  8.05026658E-01  8.87094011E-01
  9.87247260E-01  9.89488789E-01  1.00181863E+00  1.02591905E+00  1.15847361E+00
  1.16201958E+00  1.16719541E+00  1.17771901E+00  1.20168720E+00  1.20377780E+00
  1.22039605E+00  1.23622775E+00  1.26872661E+00  1.27658251E+00  1.32403719E+00
  1.34431280E+00  1.42292622E+00  1.68179666E+00  1.77982909E+00  1.82457051E+00
  1.86608244E+00  2.09118266E+00  2.22111448E+00  2.25147737E+00  2.33870197E+00
  2.38074283E+00  2.44544939E+00  2.58560073E+00  2.60960275E+00  2.62963892E+00
  2.75568439E+00  2.79436323E+00  2.92295874E+00  3.05975308E+00  4.43492149E+00
  4.60487094E+00  4.72021028E+00  4.92299919E+00
Alpha MO coefficients                      R   N=        6084
  9.96256966E-01  1.42502625E-02 -5.39315663E-05 -5.07954611E-05  0.00000000E+00
 -1.99436346E-02  1.15797091E-04  1.29116164E-04  0.00000000E+00  2.54748813E-03
 -1.32710855E-04 -1.42407080E-04  0.00000000E+00  6.88379319E-03  6.87686632E-03
  6.89913008E-03 -1.23525140E-05  0.00000000E+00  0.00000000E+00 -2.42792795E-05
 -5.28720306E-05  5.11251354E-05  5.68387947E-05  0.00000000E+00  6.65987474E-04
  9.78953785E-05 -1.45853949E-04  0.00000000E+00 -5.35443333E-05 -4.56309378E-05
 -1.19857154E-05 -1.76142888E-06  0.00000000E+00  0.00000000E+00  2.86694485E-07
  4.07179870E-05  6.63270799E-06 -9.01433502E-06  1.59804820E-05 -1.75639745E-04
 -1.44574767E-04 -1.70274124E-04  1.72693574E-04 -1.40992177E-05 -2.48764209E-05
 -2.69958585E-05 -2.75115992E-06  1.77910152E-05  1.67000866E-05  2.86694485E-07
  4.07179870E-05  6.63270799E-06 -9.01433502E-06 -1.59804820E-05 -1.75639745E-04
 -1.44574767E-04 -1.70274124E-04 -1.72693574E-04 -1.40992177E-05 -2.48764209E-05
 -2.69958585E-05 -2.75115992E-06 -1.77910152E-05 -1.67000866E-05 -1.46624876E-05
 -1.67369896E-04  3.90982405E-05 -7.52809551E-05  3.25209660E-05 -1.08659740E-04
 -1.89590411E-05 -7.30100585E-05  3.90982405E-05 -7.52809551E-05  3.25209660E-05
 -1.08659740E-04 -1.89590411E-05 -7.30100585E-05  5.17853588E-06 -5.54211401E-06
  5.67993628E-05  5.42481487E-05  0.00000000E+00  4.44527453E-04 -4.85830171E-04
 -4.50729903E-04  0.00000000E+00  1.91249294E-03 -8.82669424E-04 -8.71511671E-04
  0.00000000E+00 -6.86570227E-05  6.05960346E-07 -1.08885294E-04  6.13459403E-05
  0.00000000E+00  0.00000000E+00  9.95858148E-01  2.79021301E-02  1.27196001E-04
 -4.68634246E-05  0.00000000E+00 -1.70862911E-02 -1.07607032E-04  1.05722540E-03
  0.00000000E+00 -1.40036021E-03 -1.40787892E-03 -1.33446626E-03 -1.27053325E-04
  0.00000000E+00  0.00000000E+00  1.18029179E-02  3.73504930E-04  1.31093558E-05
  2.50172208E-05 -9.07242694E-05  4.24542159E-03  3.89238166E-06  1.05242791E-03
 -1.50964968E-03 -1.16951832E-04 -2.97715687E-04 -3.86748391E-04  9.10855983E-06
 -1.17676814E-05  2.13278539E-04  1.18029179E-02  3.73504930E-04  1.31093558E-05
  2.50172208E-05  9.07242694E-05  4.24542159E-03  3.89238166E-06  1.05242791E-03
  1.50964968E-03 -1.16951832E-04 -2.97715687E-04 -3.86748391E-04  9.10855983E-06
  1.17676814E-05 -2.13278539E-04  2.47833432E-04  2.51550465E-03 -1.52542586E-04
 -4.38307254E-05 -1.34069490E-04 -2.01602948E-04 -1.56519295E-04 -4.01603981E-05
 -1.52542586E-04 -4.38307254E-05 -1.34069490E-04 -2.01602948E-04 -1.56519295E-04
 -4.01603981E-05  0.00000000E+00  0.00000000E+00  0.00000000E+00  0.00000000E+00
  3.19227624E-06  0.00000000E+00  0.00000000E+00  0.00000000E+00 -5.01664901E-05
  0.00000000E+00  0.00000000E+00  0.00000000E+00  1.10395266E-05  0.00000000E+00
  0.00000000E+00  0.00000000E+00  0.00000000E+00  3.27076897E-05 -6.86364383E-05
  0.00000000E+00  0.00000000E+00  0.00000000E+00  0.00000000E+00  9.05508434E-05
  0.00000000E+00  0.00000000E+00  0.00000000E+00  2.19521068E-03  0.00000000E+00
  0.00000000E+00  0.00000000E+00  0.00000000E+00  4.97665584E-06  2.15269247E-04
  7.04149324E-01  2.02625773E-02 -8.98980603E-06 -9.72889275E-05 -8.49821278E-05
 -1.12704363E-02 -6.61483944E-05  1.22890702E-04  9.05087341E-04 -1.19112383E-03
 -1.22985587E-03 -1.28047048E-03 -2.35098296E-06 -1.64511773E-06  1.91234101E-05
 -7.04149324E-01 -2.02625773E-02  8.98980603E-06  9.72889275E-05 -8.49821278E-05
  1.12704363E-02  6.61483944E-05 -1.22890702E-04  9.05087341E-04  1.19112383E-03
  1.22985587E-03  1.28047048E-03  2.35098296E-06 -1.64511773E-06  1.91234101E-05
  0.00000000E+00  0.00000000E+00  1.59115047E-04  2.10088043E-03  8.15240688E-05
  1.41388183E-03  1.46861581E-04  2.06621088E-03 -1.59115047E-04 -2.10088043E-03
 -8.15240688E-05 -1.41388183E-03 -1.46861581E-04 -2.06621088E-03 -8.91139193E-07
 -4.77118007E-05 -1.05769254E-05 -1.20209419E-05  0.00000000E+00 -7.80724055E-05
  1.02514706E-04  1.27898321E-04  0.00000000E+00  3.11829165E-04 -1.32463964E-04
 -2.32527203E-04  0.00000000E+00 -1.41959334E-04 -8.51430978E-05 -5.34606638E-05
  2.63753211E-05  0.00000000E+00  0.00000000E+00 -1.71029515E-02 -2.52257038E-04
  8.43048252E-06 -3.25840302E-05  0.00000000E+00  4.54709419E-03 -1.40916364E-04
 -1.10612482E-03  0.00000000E+00 -1.11102833E-04 -3.45629193E-04 -4.56311759E-04
 -1.75065934E-05  0.00000000E+00  0.00000000E+00  7.03977133E-01  1.98420768E-02
 -5.45183827E-06 -2.46073372E-05  7.84386516E-05 -9.99381059E-03 -4.19631470E-05
 -4.08954087E-04  7.61802224E-05 -1.33628489E-03 -1.31867572E-03 -1.26938151E-03
  3.94946661E-06 -3.13402160E-06  3.30125133E-05  7.03977133E-01  1.98420768E-02
 -5.45183827E-06 -2.46073372E-05 -7.84386516E-05 -9.99381059E-03 -4.19631470E-05
 -4.08954087E-04 -7.61802224E-05 -1.33628489E-03 -1.31867572E-03 -1.26938151E-03
  3.94946661E-06  3.13402160E-06 -3.30125133E-05 -1.83629201E-04 -4.78001337E-05
  6.57994973E-05  1.62688449E-03  7.96467879E-05  1.96658195E-03  3.49172223E-05
  1.59670802E-03  6.57994973E-05  1.62688449E-03  7.96467879E-05  1.96658195E-03
  3.49172223E-05  1.59670802E-03 -2.81801694E-01  1.03031568E+00 -3.02227794E-03
 -2.45542938E-03  0.00000000E+00  2.38218416E-02 -1.07930450E-03 -1.06644630E-03
  0.00000000E+00 -5.93407361E-03  6.26453178E-04  6.90208853E-04  0.00000000E+00
 -1.03705899E-03 -1.10859293E-03 -1.46901838E-03  4.00772090E-04  0.00000000E+00
  0.00000000E+00  6.41806757E-06  9.71352519E-04  6.32363187E-05 -1.17859890E-05
  0.00000000E+00 -3.12169770E-03 -1.02440718E-03  4.35937156E-04  0.00000000E+00
 -1.40842251E-04 -5.63859453E-05  4.94378454E-05 -3.47800886E-04  0.00000000E+00
  0.00000000E+00 -3.49640232E-05 -2.72689323E-04 -1.00509055E-04 -4.16988233E-05
 -2.68003758E-05  1.28594965E-03  1.00220785E-03  8.90994528E-04 -6.63409617E-04
 -2.88540825E-05  1.43281285E-05  1.05940403E-05  2.45658099E-05 -8.83361266E-05
 -6.81252113E-05 -3.49640232E-05 -2.72689323E-04 -1.00509055E-04 -4.16988233E-05
  2.68003758E-05  1.28594965E-03  1.00220785E-03  8.90994528E-04  6.63409617E-04
 -2.88540825E-05  1.43281285E-05  1.05940403E-05  2.45658099E-05  8.83361266E-05
  6.81252113E-05 -6.15668410E-05  4.79481541E-04 -2.15745754E-04  3.84910928E-05
 -1.73372795E-04  1.95731994E-04  8.97270196E-05  4.39260679E-04 -2.15745754E-04
  3.84910928E-05 -1.73372795E-04  1.95731994E-04  8.97270196E-05  4.39260679E-04
 -1.32381498E-03  4.96716267E-03  7.64359697E-01  6.33735702E-01  0.00000000E+00
 -3.41959152E-03  1.83843841E-02  1.54587135E-02  0.00000000E+00 -6.06262747E-04
 -3.93935103E-03 -3.43341208E-03  0.00000000E+00  1.86770324E-04  3.99695564E-04
  1.17320838E-03 -9.53532254E-04  0.00000000E+00  0.00000000E+00 -7.67313338E-05
 -1.73078067E-03  9.47129057E-05  1.83540765E-04  0.00000000E+00  5.84633159E-03
  2.45696807E-03  4.75395161E-04  0.00000000E+00  3.35565448E-04  1.38810768E-04
 -1.78762943E-04  6.95766852E-04  0.00000000E+00  0.00000000E+00  4.11808539E-05
  3.58462104E-04  4.36387186E-06 -1.06101034E-04  1.01183877E-04 -2.05264032E-03
 -1.16676558E-03 -9.78708006E-04  7.64411007E-04 -9.24379550E-06 -1.07015433E-04
 -2.34983107E-05 -6.43154096E-05  1.68014233E-04  1.05634929E-04  4.11808539E-05
  3.58462104E-04  4.36387186E-06 -1.06101034E-04 -1.01183877E-04 -2.05264032E-03
 -1.16676558E-03 -9.78708006E-04 -7.64411007E-04 -9.24379550E-06 -1.07015433E-04
 -2.34983107E-05 -6.43154096E-05 -1.68014233E-04 -1.05634929E-04 -1.25217652E-04
 -7.15146002E-04  2.06403993E-04  7.86663213E-05  1.39263376E-04 -1.07570056E-04
 -8.69497577E-05 -2.12750903E-04  2.06403993E-04  7.86663213E-05  1.39263376E-04
 -1.07570056E-04 -8.69497577E-05 -2.12750903E-04  0.00000000E+00  0.00000000E+00
  0.00000000E+00  0.00000000E+00  9.93723048E-01  0.00000000E+00  0.00000000E+00
  0.00000000E+00  2.09333365E-02  0.00000000E+00  0.00000000E+00  0.00000000E+00
 -5.03167232E-03  0.00000000E+00  0.00000000E+00  0.00000000E+00  0.00000000E+00
 -3.45419430E-04 -2.52151255E-04  0.00000000E+00  0.00000000E+00  0.00000000E+00
  0.00000000E+00  1.29434503E-04  0.00000000E+00  0.00000000E+00  0.00000000E+00
 -1.92059673E-03  0.00000000E+00  0.00000000E+00  0.00000000E+00  0.00000000E+00
 -2.52216824E-04 -2.97567760E-06 -8.00337825E-06 -1.48261491E-04  5.05221744E-05
  2.41941328E-05 -1.81457898E-05  7.23540298E-04  6.55426431E-05  9.43363602E-04
 -6.88487166E-04  4.58374019E-06  1.55676912E-04  2.75147137E-05  5.45876107E-05
 -2.01856784E-05 -4.75567179E-05  8.00337825E-06  1.48261491E-04 -5.05221744E-05
 -2.41941328E-05 -1.81457898E-05 -7.23540298E-04 -6.55426431E-05 -9.43363602E-04
 -6.88487166E-04 -4.58374019E-06 -1.55676912E-04 -2.75147137E-05 -5.45876107E-05
 -2.01856784E-05 -4.75567179E-05  0.00000000E+00  0.00000000E+00 -6.66799779E-05
  4.93132924E-04 -2.22691245E-04  7.52184906E-04  1.73656622E-05  2.00471680E-04
  6.66799779E-05 -4.93132924E-04  2.22691245E-04 -7.52184906E-04 -1.73656622E-05
 -2.00471680E-04 -1.20262474E-06 -2.71122686E-05 -6.34307790E-01  7.64954178E-01
  0.00000000E+00 -1.31817986E-04 -1.31812146E-02  1.61880794E-02  0.00000000E+00
  3.96466002E-05  3.07810544E-03 -3.83037506E-03  0.00000000E+00  2.93778971E-04
 -4.21438243E-04 -1.79531392E-05 -9.49310924E-05  0.00000000E+00  0.00000000E+00
 -1.34871456E-05 -8.57296569E-05 -1.91637345E-04  5.86669800E-05  0.00000000E+00
  2.77548191E-04  1.41161791E-03 -8.88866824E-04  0.00000000E+00  1.18668039E-04
 -2.27960936E-04  6.79884193E-05  3.50161454E-07  0.00000000E+00  0.00000000E+00
  5.62482565E-06  8.09262739E-05 -9.40082550E-06  7.36186074E-06  3.24804326E-05
 -3.66699501E-04 -4.82133237E-04 -3.69523040E-04  3.35845062E-04 -7.36676413E-05
  2.82067100E-05 -4.40711844E-05 -3.66564443E-05  1.01214141E-04  3.02328709E-05
  5.62482565E-06  8.09262739E-05 -9.40082550E-06  7.36186074E-06 -3.24804326E-05
 -3.66699501E-04 -4.82133237E-04 -3.69523040E-04 -3.35845062E-04 -7.36676413E-05
  2.82067100E-05 -4.40711844E-05 -3.66564443E-05 -1.01214141E-04 -3.02328709E-05
  1.14807170E-04  1.50309535E-03  1.81092084E-04 -5.17650958E-04 -2.20580696E-05
  1.38371629E-04 -3.19668199E-05 -2.42183026E-04  1.81092084E-04 -5.17650958E-04
 -2.20580696E-05  1.38371629E-04 -3.19668199E-05 -2.42183026E-04  1.71852456E-02
 -8.08041719E-02  2.12129326E-02  1.99892882E-02  0.00000000E+00  1.43661373E-01
 -4.68171778E-02 -4.43654280E-02  0.00000000E+00  4.89479220E-02  1.99283554E-03
  1.94743193E-03  0.00000000E+00  9.84286968E-03  7.08810827E-03 -4.70218032E-03
  1.53820966E-02  0.00000000E+00  0.00000000E+00 -1.40869438E-01  2.62963263E-01
 -8.22365558E-04 -4.29143168E-02  0.00000000E+00  2.23900499E-01  1.11375377E-04
 -6.02992494E-03  0.00000000E+00  2.35049277E-03  5.93744034E-03  8.77397998E-03
 -4.05558150E-04  0.00000000E+00  0.00000000E+00 -1.03117636E-01  1.91492595E-01
  1.00694861E-03  2.91950541E-02 -5.13978056E-02  1.55966906E-01 -1.34589854E-03
  1.81534406E-03 -6.05707115E-03  2.10597132E-03  4.59446493E-03  8.69039584E-03
  2.89042542E-05 -1.03713108E-04 -4.79545526E-03 -1.03117636E-01  1.91492595E-01
  1.00694861E-03  2.91950541E-02  5.13978056E-02  1.55966906E-01 -1.34589854E-03
  1.81534406E-03  6.05707115E-03  2.10597132E-03  4.59446493E-03  8.69039584E-03
  2.89042542E-05  1.03713108E-04  4.79545526E-03  7.76669081E-02  1.29916169E-02
  5.76634116E-02  1.16052404E-02  5.41976896E-02  1.00564432E-02  5.69262051E-02
  1.05153300E-02  5.76634116E-02  1.16052404E-02  5.41976896E-02  1.00564432E-02