
    -----------------------------------------------------------------------
          Psi4: An Open-Source Ab Initio Electronic Structure Package
                               Psi4 1.3.2 release

                         Git: Rev {HEAD} ecbda83 


    R. M. Parrish, L. A. Burns, D. G. A. Smith, A. C. Simmonett,
    A. E. DePrince III, E. G. Hohenstein, U. Bozkaya, A. Yu. Sokolov,
    R. Di Remigio, R. M. Richard, J. F. Gonthier, A. M. James,
    H. R. McAlexander, A. Kumar, M. Saitow, X. Wang, B. P. Pritchard,
    P. Verma, H. F. Schaefer III, K. Patkowski, R. A. King, E. F. Valeev,
    F. A. Evangelista, J. M. Turney, T. D. Crawford, and C. D. Sherrill,
    J. Chem. Theory Comput. 13(7) pp 3185--3197 (2017).
    (doi: 10.1021/acs.jctc.7b00174)


                         Additional Contributions by
    P. Kraus, H. Kruse, M. H. Lechner, M. C. Schieber, R. A. Shaw,
    A. Alenaizan, R. Galvelis, Z. L. Glick, S. Lehtola, and J. P. Misiewicz

    -----------------------------------------------------------------------


    Psi4 started on: Wednesday, 04 November 2020 05:18PM

    Process ID: 87458
    Host:       node35.bme.utexas.edu
    PSIDATADIR: /home/xy3866/psi4conda/share/psi4
    Memory:     500.0 MiB
    Threads:    8
    
  ==> Input File <==

--------------------------------------------------------------------------
#psi4
#
memory 32 gb

molecule  {
0 1
  O       -1.2481010    -0.6526680     1.0325150
  O       -1.2449750     2.4828510    -0.6861630
  O       -3.2165300     1.5210990     0.7448870
  O       -2.3570290    -3.0668370     0.0949400
  O        1.3605300     2.2470340    -0.0765420
  N        0.8434040     0.0452230     0.2559430
  N        3.0572260     0.7205030    -0.2937270
  N        4.7164630    -0.8366550    -0.5722980
  C       -1.2894840     1.0784300    -0.5920770
  C       -2.7151710     0.6552070    -0.2573930
  C       -0.5443840     0.4072156     0.6101282
  C       -2.5292560    -0.7168860     0.3610560
  C       -2.5283440    -1.8503930    -0.6392900
  C        1.2197750    -1.2614080     0.3112740
  C        1.8069010     1.0157352    -0.0699876
  C        2.5111010    -1.6091400     0.0469950
  C        3.4119830    -0.5506530    -0.2589250
  H       -0.9376060     0.5914040    -1.5148910
  H       -3.3625820     0.6426650    -1.1464650
  H       -0.4402900     1.2218800     1.4039980
  H       -3.2819570    -0.9087340     1.1307830
  H       -1.7133080    -1.7003050    -1.3694640
  H       -3.4855610    -1.8340040    -1.1841350
  H       -0.2975250     2.7131790    -0.5250000
  H       -2.8475560     2.3997430     0.5086630
  H        0.4343110    -1.9634370     0.5690680
  H       -2.4338740    -3.7984320    -0.5432330
  H        2.8291120    -2.6453980     0.0739220
  H        5.1251800    -1.6708610    -0.1624140
  H        5.3198140    -0.0200540    -0.5682940
units angstrom
no_reorient  #important for SAPT in psi4, default
symmetry c1  #important for SAPT in psi4, default
}

set PROPERTIES_ORIGIN ["COM"]
properties('MP2/aug-cc-pvtz', properties = ['dipole'])
--------------------------------------------------------------------------

  Memory set to  29.802 GiB by Python driver.
    SCF Algorithm Type (re)set to DF.

*** tstart() called on node35.bme.utexas.edu
*** at Wed Nov  4 17:18:02 2020

   => Loading Basis Set <=

    Name: AUG-CC-PVTZ
    Role: ORBITAL
    Keyword: BASIS
    atoms 1-5   entry O          line   327 file /home/xy3866/psi4conda/share/psi4/basis/aug-cc-pvtz.gbs 
    atoms 6-8   entry N          line   281 file /home/xy3866/psi4conda/share/psi4/basis/aug-cc-pvtz.gbs 
    atoms 9-17  entry C          line   235 file /home/xy3866/psi4conda/share/psi4/basis/aug-cc-pvtz.gbs 
    atoms 18-30 entry H          line    36 file /home/xy3866/psi4conda/share/psi4/basis/aug-cc-pvtz.gbs 


         ---------------------------------------------------------
                                   SCF
               by Justin Turney, Rob Parrish, Andy Simmonett
                          and Daniel G. A. Smith
                              RHF Reference
                        8 Threads,  30517 MiB Core
         ---------------------------------------------------------

  ==> Geometry <==

    Molecular point group: c1
    Full point group: C1

    Geometry (in Angstrom), charge = 0, multiplicity = 1:

       Center              X                  Y                   Z               Mass       
    ------------   -----------------  -----------------  -----------------  -----------------
         O           -1.249697064828    -0.646447749360     1.032542178165    15.994914619570
         O           -1.246571064828     2.489071250640    -0.686135821835    15.994914619570
         O           -3.218126064828     1.527319250640     0.744914178165    15.994914619570
         O           -2.358625064828    -3.060616749360     0.094967178165    15.994914619570
         O            1.358933935172     2.253254250640    -0.076514821835    15.994914619570
         N            0.841807935172     0.051443250640     0.255970178165    14.003074004430
         N            3.055629935172     0.726723250640    -0.293699821835    14.003074004430
         N            4.714866935172    -0.830434749360    -0.572270821835    14.003074004430
         C           -1.291080064828     1.084650250640    -0.592049821835    12.000000000000
         C           -2.716767064828     0.661427250640    -0.257365821835    12.000000000000
         C           -0.545980064828     0.413435850640     0.610155378165    12.000000000000
         C           -2.530852064828    -0.710665749360     0.361083178165    12.000000000000
         C           -2.529940064828    -1.844172749360    -0.639262821835    12.000000000000
         C            1.218178935172    -1.255187749360     0.311301178165    12.000000000000
         C            1.805304935172     1.021955450640    -0.069960421835    12.000000000000
         C            2.509504935172    -1.602919749360     0.047022178165    12.000000000000
         C            3.410386935172    -0.544432749360    -0.258897821835    12.000000000000
         H           -0.939202064828     0.597624250640    -1.514863821835     1.007825032230
         H           -3.364178064828     0.648885250640    -1.146437821835     1.007825032230
         H           -0.441886064828     1.228100250640     1.404025178165     1.007825032230
         H           -3.283553064828    -0.902513749360     1.130810178165     1.007825032230
         H           -1.714904064828    -1.694084749360    -1.369436821835     1.007825032230
         H           -3.487157064828    -1.827783749360    -1.184107821835     1.007825032230
         H           -0.299121064828     2.719399250640    -0.524972821835     1.007825032230
         H           -2.849152064828     2.405963250640     0.508690178165     1.007825032230
         H            0.432714935172    -1.957216749360     0.569095178165     1.007825032230
         H           -2.435470064828    -3.792211749360    -0.543205821835     1.007825032230
         H            2.827515935172    -2.639177749360     0.073949178165     1.007825032230
         H            5.123583935172    -1.664640749360    -0.162386821835     1.007825032230
         H            5.318217935172    -0.013833749360    -0.568266821835     1.007825032230

  Running in c1 symmetry.

  Rotational constants: A =      0.02627  B =      0.01117  C =      0.00834 [cm^-1]
  Rotational constants: A =    787.45939  B =    334.83640  C =    250.03361 [MHz]
  Nuclear repulsion = 1324.154280869946206

  Charge       = 0
  Multiplicity = 1
  Electrons    = 128
  Nalpha       = 64
  Nbeta        = 64

  ==> Algorithm <==

  SCF Algorithm Type is DF.
  DIIS enabled.
  MOM disabled.
  Fractional occupation disabled.
  Guess Type is SAD.
  Energy threshold   = 1.00e-10
  Density threshold  = 1.00e-10
  Integral threshold = 0.00e+00

  ==> Primary Basis <==

  Basis Set: AUG-CC-PVTZ
    Blend: AUG-CC-PVTZ
    Number of shells: 355
    Number of basis function: 1081
    Number of Cartesian functions: 1260
    Spherical Harmonics?: true
    Max angular momentum: 3

   => Loading Basis Set <=

    Name: (AUG-CC-PVTZ AUX)
    Role: JKFIT
    Keyword: DF_BASIS_SCF
    atoms 1-5   entry O          line   286 file /home/xy3866/psi4conda/share/psi4/basis/aug-cc-pvtz-jkfit.gbs 
    atoms 6-8   entry N          line   224 file /home/xy3866/psi4conda/share/psi4/basis/aug-cc-pvtz-jkfit.gbs 
    atoms 9-17  entry C          line   162 file /home/xy3866/psi4conda/share/psi4/basis/aug-cc-pvtz-jkfit.gbs 
    atoms 18-30 entry H          line    70 file /home/xy3866/psi4conda/share/psi4/basis/aug-cc-pvtz-jkfit.gbs 

  ==> Pre-Iterations <==

   -------------------------------------------------------
    Irrep   Nso     Nmo     Nalpha   Nbeta   Ndocc  Nsocc
   -------------------------------------------------------
     A       1081    1081       0       0       0       0
   -------------------------------------------------------
    Total    1081    1081      64      64      64       0
   -------------------------------------------------------

  ==> Integral Setup <==

  DFHelper Memory: AOs need 18.209 GiB; user supplied 22.352 GiB. Using in-core AOs.

  ==> MemDFJK: Density-Fitted J/K Matrices <==

    J tasked:                   Yes
    K tasked:                   Yes
    wK tasked:                   No
    OpenMP threads:               8
    Memory [MiB]:             22888
    Algorithm:                 Disk
    Schwarz Cutoff:           1E-12
    Mask sparsity (%):      13.2864
    Fitting Condition:        1E-10

   => Auxiliary Basis Set <=

  Basis Set: (AUG-CC-PVTZ AUX)
    Blend: AUG-CC-PVTZ-JKFIT
    Number of shells: 692
    Number of basis function: 2366
    Number of Cartesian functions: 2942
    Spherical Harmonics?: true
    Max angular momentum: 4

  Minimum eigenvalue in the overlap matrix is 9.7879559389E-07.
  Using Symmetric Orthogonalization.

  SCF Guess: Superposition of Atomic Densities via on-the-fly atomic UHF.

  ==> Iterations <==

                           Total Energy        Delta E     RMS |[F,P]|

   @DF-RHF iter SAD:  -886.06530771030953   -8.86065e+02   0.00000e+00 
   @DF-RHF iter   1:  -885.87606084781953    1.89247e-01   9.18161e-04 DIIS
   @DF-RHF iter   2:  -886.24481849943322   -3.68758e-01   5.13926e-04 DIIS
   @DF-RHF iter   3:  -886.34832881194370   -1.03510e-01   1.07980e-04 DIIS
   @DF-RHF iter   4:  -886.35577940977191   -7.45060e-03   4.40839e-05 DIIS
   @DF-RHF iter   5:  -886.35697274809968   -1.19334e-03   9.69500e-06 DIIS
   @DF-RHF iter   6:  -886.35707546597666   -1.02718e-04   4.41981e-06 DIIS
   @DF-RHF iter   7:  -886.35709926482434   -2.37988e-05   1.56859e-06 DIIS
   @DF-RHF iter   8:  -886.35710402554400   -4.76072e-06   5.62516e-07 DIIS
   @DF-RHF iter   9:  -886.35710469801370   -6.72470e-07   2.37276e-07 DIIS
   @DF-RHF iter  10:  -886.35710480523767   -1.07224e-07   9.35512e-08 DIIS
   @DF-RHF iter  11:  -886.35710482382444   -1.85868e-08   3.77924e-08 DIIS
   @DF-RHF iter  12:  -886.35710482609795   -2.27351e-09   1.48023e-08 DIIS
   @DF-RHF iter  13:  -886.35710482643549   -3.37536e-10   4.44737e-09 DIIS
   @DF-RHF iter  14:  -886.35710482646618   -3.06954e-11   1.85428e-09 DIIS
   @DF-RHF iter  15:  -886.35710482647278   -6.59384e-12   8.28436e-10 DIIS
   @DF-RHF iter  16:  -886.35710482647880   -6.02540e-12   3.18974e-10 DIIS
   @DF-RHF iter  17:  -886.35710482647346    5.34328e-12   1.60055e-10 DIIS
   @DF-RHF iter  18:  -886.35710482648074   -7.27596e-12   5.64300e-11 DIIS
  Energy and wave function converged.


  ==> Post-Iterations <==

    Orbital Energies [Eh]
    ---------------------

    Doubly Occupied:                                                      

       1A    -20.588708     2A    -20.584736     3A    -20.555905  
       4A    -20.552139     5A    -20.501000     6A    -15.639470  
       7A    -15.606303     8A    -15.559062     9A    -11.384298  
      10A    -11.366331    11A    -11.341994    12A    -11.331019  
      13A    -11.304021    14A    -11.301461    15A    -11.293659  
      16A    -11.291472    17A    -11.252204    18A     -1.450625  
      19A     -1.382675    20A     -1.377811    21A     -1.375935  
      22A     -1.342540    23A     -1.294938    24A     -1.270239  
      25A     -1.200032    26A     -1.083067    27A     -1.072792  
      28A     -1.018529    29A     -0.936836    30A     -0.912046  
      31A     -0.885279    32A     -0.832497    33A     -0.816629  
      34A     -0.775540    35A     -0.753807    36A     -0.732566  
      37A     -0.723157    38A     -0.704393    39A     -0.699129  
      40A     -0.690282    41A     -0.676569    42A     -0.655399  
      43A     -0.647993    44A     -0.640128    45A     -0.624786  
      46A     -0.615181    47A     -0.608030    48A     -0.581714  
      49A     -0.577044    50A     -0.571676    51A     -0.554840  
      52A     -0.545332    53A     -0.534857    54A     -0.524886  
      55A     -0.488680    56A     -0.478984    57A     -0.473349  
      58A     -0.463380    59A     -0.451194    60A     -0.450002  
      61A     -0.438249    62A     -0.427360    63A     -0.395324  
      64A     -0.349107  

    Virtual:                                                              

      65A      0.014150    66A      0.020996    67A      0.031639  
      68A      0.037155    69A      0.040351    70A      0.045141  
      71A      0.053413    72A      0.054870    73A      0.056667  
      74A      0.061861    75A      0.064999    76A      0.074403  
      77A      0.078233    78A      0.083686    79A      0.084586  
      80A      0.088472    81A      0.099370    82A      0.100061  
      83A      0.103699    84A      0.109180    85A      0.111024  
      86A      0.113494    87A      0.119131    88A      0.119530  
      89A      0.123888    90A      0.125576    91A      0.128844  
      92A      0.134212    93A      0.137055    94A      0.140919  
      95A      0.146664    96A      0.147011    97A      0.149816  
      98A      0.152363    99A      0.154601   100A      0.159768  
     101A      0.164992   102A      0.167570   103A      0.170966  
     104A      0.173023   105A      0.177036   106A      0.180006  
     107A      0.180986   108A      0.184503   109A      0.194870  
     110A      0.195986   111A      0.203742   112A      0.205652  
     113A      0.210640   114A      0.215718   115A      0.221669  
     116A      0.223395   117A      0.227278   118A      0.234445  
     119A      0.236182   120A      0.241458   121A      0.244248  
     122A      0.247964   123A      0.251187   124A      0.252549  
     125A      0.254409   126A      0.263510   127A      0.265808  
     128A      0.270400   129A      0.271555   130A      0.276159  
     131A      0.277876   132A      0.280327   133A      0.284701  
     134A      0.285178   135A      0.287911   136A      0.292318  
     137A      0.295420   138A      0.301877   139A      0.304240  
     140A      0.308507   141A      0.311855   142A      0.314291  
     143A      0.317781   144A      0.319518   145A      0.324539  
     146A      0.325411   147A      0.329989   148A      0.333918  
     149A      0.335974   150A      0.339284   151A      0.346185  
     152A      0.350444   153A      0.351339   154A      0.354762  
     155A      0.357483   156A      0.362287   157A      0.365503  
     158A      0.367437   159A      0.369234   160A      0.377785  
     161A      0.382925   162A      0.384481   163A      0.388052  
     164A      0.391159   165A      0.395466   166A      0.398088  
     167A      0.398906   168A      0.400904   169A      0.405262  
     170A      0.406285   171A      0.412487   172A      0.418384  
     173A      0.424164   174A      0.425740   175A      0.426545  
     176A      0.428518   177A      0.436509   178A      0.445508  
     179A      0.446318   180A      0.450550   181A      0.453447  
     182A      0.454994   183A      0.458001   184A      0.460923  
     185A      0.464962   186A      0.467913   187A      0.472956  
     188A      0.474133   189A      0.476465   190A      0.478577  
     191A      0.481629   192A      0.488627   193A      0.489141  
     194A      0.495535   195A      0.496755   196A      0.500774  
     197A      0.505324   198A      0.509790   199A      0.510304  
     200A      0.518614   201A      0.520371   202A      0.521018  
     203A      0.527190   204A      0.530024   205A      0.531192  
     206A      0.535191   207A      0.537107   208A      0.541427  
     209A      0.543917   210A      0.545395   211A      0.552277  
     212A      0.554964   213A      0.557448   214A      0.558749  
     215A      0.566777   216A      0.570680   217A      0.574379  
     218A      0.578858   219A      0.584004   220A      0.588044  
     221A      0.591004   222A      0.593749   223A      0.594650  
     224A      0.601624   225A      0.609748   226A      0.612327  
     227A      0.615966   228A      0.618037   229A      0.621591  
     230A      0.623377   231A      0.627726   232A      0.629868  
     233A      0.635389   234A      0.641911   235A      0.644846  
     236A      0.648234   237A      0.655365   238A      0.656767  
     239A      0.661214   240A      0.664233   241A      0.666836  
     242A      0.672163   243A      0.675782   244A      0.681380  
     245A      0.689381   246A      0.690929   247A      0.693646  
     248A      0.696061   249A      0.700353   250A      0.707870  
     251A      0.711981   252A      0.713768   253A      0.718486  
     254A      0.722778   255A      0.728247   256A      0.729531  
     257A      0.735887   258A      0.741825   259A      0.747042  
     260A      0.753478   261A      0.758522   262A      0.761493  
     263A      0.763625   264A      0.770189   265A      0.773331  
     266A      0.776891   267A      0.780341   268A      0.788336  
     269A      0.796628   270A      0.802314   271A      0.802381  
     272A      0.813187   273A      0.815583   274A      0.822156  
     275A      0.822789   276A      0.828104   277A      0.839285  
     278A      0.843851   279A      0.845503   280A      0.852833  
     281A      0.856644   282A      0.861858   283A      0.866624  
     284A      0.870533   285A      0.872402   286A      0.876678  
     287A      0.878118   288A      0.885812   289A      0.887998  
     290A      0.891857   291A      0.899427   292A      0.901878  
     293A      0.909133   294A      0.916112   295A      0.917642  
     296A      0.920213   297A      0.925040   298A      0.928389  
     299A      0.933090   300A      0.940168   301A      0.945329  
     302A      0.947180   303A      0.952026   304A      0.955296  
     305A      0.965269   306A      0.967598   307A      0.971774  
     308A      0.973180   309A      0.978957   310A      0.983998  
     311A      0.989559   312A      0.992062   313A      0.995499  
     314A      1.002678   315A      1.010069   316A      1.013609  
     317A      1.014414   318A      1.021295   319A      1.022199  
     320A      1.024911   321A      1.030637   322A      1.032332  
     323A      1.035867   324A      1.041074   325A      1.042541  
     326A      1.050698   327A      1.054925   328A      1.058323  
     329A      1.060870   330A      1.063574   331A      1.071338  
     332A      1.073886   333A      1.076202   334A      1.080253  
     335A      1.085417   336A      1.091973   337A      1.093503  
     338A      1.096524   339A      1.100577   340A      1.105224  
     341A      1.109750   342A      1.112403   343A      1.121217  
     344A      1.125254   345A      1.129753   346A      1.131399  
     347A      1.135017   348A      1.136890   349A      1.142665  
     350A      1.146562   351A      1.153020   352A      1.160451  
     353A      1.163013   354A      1.164912   355A      1.167979  
     356A      1.176237   357A      1.181930   358A      1.184243  
     359A      1.186633   360A      1.193465   361A      1.196942  
     362A      1.202351   363A      1.207079   364A      1.212605  
     365A      1.213705   366A      1.220361   367A      1.220668  
     368A      1.223175   369A      1.227432   370A      1.229988  
     371A      1.241276   372A      1.244739   373A      1.249317  
     374A      1.252635   375A      1.257950   376A      1.263173  
     377A      1.267267   378A      1.270518   379A      1.277763  
     380A      1.284005   381A      1.289863   382A      1.293050  
     383A      1.298317   384A      1.299551   385A      1.307409  
     386A      1.310217   387A      1.316095   388A      1.324900  
     389A      1.328679   390A      1.339002   391A      1.339800  
     392A      1.344767   393A      1.352445   394A      1.361098  
     395A      1.362202   396A      1.370213   397A      1.374311  
     398A      1.380013   399A      1.381830   400A      1.385897  
     401A      1.398036   402A      1.398835   403A      1.406297  
     404A      1.414184   405A      1.422366   406A      1.425958  
     407A      1.427724   408A      1.431364   409A      1.436040  
     410A      1.443136   411A      1.445963   412A      1.453835  
     413A      1.456055   414A      1.468765   415A      1.470524  
     416A      1.474147   417A      1.481792   418A      1.488227  
     419A      1.490953   420A      1.496141   421A      1.498953  
     422A      1.505161   423A      1.506473   424A      1.518097  
     425A      1.519891   426A      1.522910   427A      1.529976  
     428A      1.535444   429A      1.539639   430A      1.542306  
     431A      1.548997   432A      1.555336   433A      1.560210  
     434A      1.564350   435A      1.570589   436A      1.576170  
     437A      1.578436   438A      1.586108   439A      1.595993  
     440A      1.598956   441A      1.599360   442A      1.605520  
     443A      1.612067   444A      1.615272   445A      1.622409  
     446A      1.633533   447A      1.634972   448A      1.643727  
     449A      1.649002   450A      1.653401   451A      1.656000  
     452A      1.664606   453A      1.670343   454A      1.675997  
     455A      1.679320   456A      1.684912   457A      1.694434  
     458A      1.697535   459A      1.700895   460A      1.707152  
     461A      1.718399   462A      1.723459   463A      1.726947  
     464A      1.731375   465A      1.733814   466A      1.736748  
     467A      1.746566   468A      1.756664   469A      1.759846  
     470A      1.766523   471A      1.768579   472A      1.776634  
     473A      1.779432   474A      1.783359   475A      1.793036  
     476A      1.798928   477A      1.801330   478A      1.805275  
     479A      1.811362   480A      1.814714   481A      1.818406  
     482A      1.824912   483A      1.830611   484A      1.836520  
     485A      1.841060   486A      1.847327   487A      1.857919  
     488A      1.858735   489A      1.862170   490A      1.866824  
     491A      1.869063   492A      1.874761   493A      1.883488  
     494A      1.891077   495A      1.895212   496A      1.905955  
     497A      1.913914   498A      1.915060   499A      1.924452  
     500A      1.937108   501A      1.941401   502A      1.946319  
     503A      1.951427   504A      1.955304   505A      1.958039  
     506A      1.973161   507A      1.978835   508A      1.982969  
     509A      1.987567   510A      1.991435   511A      1.999788  
     512A      2.002977   513A      2.005974   514A      2.013607  
     515A      2.016273   516A      2.031141   517A      2.032292  
     518A      2.034551   519A      2.044340   520A      2.047335  
     521A      2.049484   522A      2.058428   523A      2.063249  
     524A      2.068130   525A      2.070862   526A      2.082855  
     527A      2.090921   528A      2.103378   529A      2.107481  
     530A      2.108600   531A      2.121169   532A      2.126098  
     533A      2.130795   534A      2.134839   535A      2.140644  
     536A      2.144978   537A      2.146761   538A      2.158577  
     539A      2.164205   540A      2.170248   541A      2.178608  
     542A      2.184312   543A      2.191762   544A      2.196831  
     545A      2.207484   546A      2.216238   547A      2.219254  
     548A      2.223413   549A      2.231154   550A      2.238852  
     551A      2.250245   552A      2.255746   553A      2.263517  
     554A      2.274449   555A      2.278518   556A      2.282106  
     557A      2.288352   558A      2.301010   559A      2.309875  
     560A      2.315364   561A      2.327999   562A      2.331805  
     563A      2.343910   564A      2.348792   565A      2.364502  
     566A      2.367809   567A      2.371391   568A      2.377548  
     569A      2.390734   570A      2.397497   571A      2.404964  
     572A      2.413430   573A      2.417760   574A      2.425418  
     575A      2.429724   576A      2.436084   577A      2.442004  
     578A      2.452303   579A      2.453807   580A      2.468227  
     581A      2.486815   582A      2.495317   583A      2.506649  
     584A      2.510659   585A      2.519294   586A      2.524668  
     587A      2.533659   588A      2.542139   589A      2.544855  
     590A      2.547507   591A      2.565025   592A      2.572930  
     593A      2.575303   594A      2.588134   595A      2.590862  
     596A      2.603809   597A      2.608540   598A      2.615317  
     599A      2.628269   600A      2.635461   601A      2.640741  
     602A      2.648144   603A      2.654521   604A      2.665386  
     605A      2.679902   606A      2.686556   607A      2.695595  
     608A      2.700150   609A      2.706987   610A      2.721675  
     611A      2.735248   612A      2.740097   613A      2.748486  
     614A      2.749486   615A      2.757179   616A      2.767912  
     617A      2.780337   618A      2.790738   619A      2.804994  
     620A      2.810838   621A      2.819310   622A      2.823844  
     623A      2.835489   624A      2.844113   625A      2.852169  
     626A      2.863447   627A      2.866436   628A      2.874860  
     629A      2.885664   630A      2.892277   631A      2.898762  
     632A      2.901808   633A      2.921348   634A      2.929597  
     635A      2.934436   636A      2.948982   637A      2.959625  
     638A      2.960751   639A      2.970743   640A      2.989207  
     641A      2.994095   642A      2.996601   643A      3.010788  
     644A      3.011961   645A      3.023747   646A      3.034484  
     647A      3.047370   648A      3.056352   649A      3.060641  
     650A      3.073696   651A      3.085506   652A      3.091713  
     653A      3.102405   654A      3.108906   655A      3.119366  
     656A      3.126907   657A      3.142392   658A      3.145773  
     659A      3.152983   660A      3.168444   661A      3.180945  
     662A      3.191393   663A      3.196295   664A      3.209051  
     665A      3.210398   666A      3.221983   667A      3.230618  
     668A      3.240244   669A      3.250368   670A      3.255884  
     671A      3.272869   672A      3.280064   673A      3.296553  
     674A      3.302289   675A      3.310816   676A      3.325417  
     677A      3.344833   678A      3.346309   679A      3.351401  
     680A      3.361725   681A      3.379580   682A      3.386571  
     683A      3.395341   684A      3.403848   685A      3.427263  
     686A      3.438057   687A      3.447020   688A      3.462310  
     689A      3.471554   690A      3.483727   691A      3.491454  
     692A      3.494676   693A      3.505553   694A      3.518703  
     695A      3.527026   696A      3.536544   697A      3.554683  
     698A      3.559613   699A      3.568016   700A      3.578068  
     701A      3.590605   702A      3.603098   703A      3.633212  
     704A      3.637058   705A      3.649652   706A      3.652227  
     707A      3.671216   708A      3.680240   709A      3.689578  
     710A      3.701454   711A      3.710755   712A      3.716236  
     713A      3.727509   714A      3.733693   715A      3.741069  
     716A      3.749551   717A      3.761270   718A      3.766990  
     719A      3.777952   720A      3.791180   721A      3.793973  
     722A      3.798586   723A      3.806376   724A      3.821165  
     725A      3.825402   726A      3.831958   727A      3.849181  
     728A      3.851209   729A      3.866446   730A      3.871031  
     731A      3.878620   732A      3.888870   733A      3.902199  
     734A      3.912338   735A      3.921958   736A      3.930351  
     737A      3.935723   738A      3.942919   739A      3.946660  
     740A      3.959222   741A      3.962129   742A      3.982063  
     743A      3.987125   744A      3.996773   745A      3.999908  
     746A      4.017410   747A      4.019776   748A      4.025019  
     749A      4.037753   750A      4.048374   751A      4.052166  
     752A      4.056590   753A      4.058042   754A      4.077043  
     755A      4.083975   756A      4.094716   757A      4.096231  
     758A      4.103771   759A      4.114079   760A      4.123503  
     761A      4.134656   762A      4.137602   763A      4.146764  
     764A      4.150457   765A      4.152939   766A      4.172070  
     767A      4.173216   768A      4.186006   769A      4.192435  
     770A      4.203091   771A      4.210045   772A      4.220495  
     773A      4.223563   774A      4.232939   775A      4.247656  
     776A      4.260109   777A      4.266923   778A      4.274199  
     779A      4.280040   780A      4.284875   781A      4.287524  
     782A      4.292331   783A      4.304212   784A      4.309212  
     785A      4.318372   786A      4.324716   787A      4.332778  
     788A      4.341666   789A      4.349222   790A      4.350246  
     791A      4.359907   792A      4.369846   793A      4.375288  
     794A      4.383897   795A      4.397688   796A      4.399640  
     797A      4.405969   798A      4.415787   799A      4.426761  
     800A      4.427622   801A      4.438088   802A      4.442624  
     803A      4.451898   804A      4.459495   805A      4.465744  
     806A      4.471933   807A      4.473336   808A      4.485711  
     809A      4.491672   810A      4.501128   811A      4.510267  
     812A      4.522074   813A      4.523638   814A      4.532714  
     815A      4.541486   816A      4.560175   817A      4.564521  
     818A      4.573826   819A      4.579683   820A      4.593697  
     821A      4.608996   822A      4.612073   823A      4.627595  
     824A      4.637717   825A      4.641054   826A      4.644798  
     827A      4.657417   828A      4.671010   829A      4.680035  
     830A      4.687213   831A      4.689288   832A      4.710127  
     833A      4.713264   834A      4.719995   835A      4.723320  
     836A      4.731644   837A      4.744264   838A      4.746958  
     839A      4.748118   840A      4.777518   841A      4.789190  
     842A      4.792818   843A      4.796766   844A      4.811391  
     845A      4.828161   846A      4.838433   847A      4.844581  
     848A      4.855540   849A      4.863081   850A      4.885926  
     851A      4.889549   852A      4.896595   853A      4.914888  
     854A      4.919358   855A      4.929515   856A      4.942301  
     857A      4.951849   858A      4.962504   859A      4.966417  
     860A      4.976882   861A      4.982513   862A      4.998319  
     863A      5.009486   864A      5.015133   865A      5.026846  
     866A      5.050156   867A      5.053854   868A      5.064276  
     869A      5.074172   870A      5.081001   871A      5.089586  
     872A      5.092483   873A      5.108175   874A      5.123996  
     875A      5.130755   876A      5.135989   877A      5.146794  
     878A      5.153308   879A      5.181484   880A      5.191303  
     881A      5.204815   882A      5.214238   883A      5.226240  
     884A      5.227845   885A      5.237721   886A      5.255825  
     887A      5.261058   888A      5.267407   889A      5.291470  
     890A      5.294068   891A      5.303125   892A      5.307263  
     893A      5.320172   894A      5.320889   895A      5.326950  
     896A      5.342335   897A      5.353427   898A      5.358524  
     899A      5.362632   900A      5.377998   901A      5.394574  
     902A      5.400017   903A      5.401731   904A      5.417023  
     905A      5.441505   906A      5.445008   907A      5.456672  
     908A      5.471837   909A      5.481239   910A      5.486050  
     911A      5.495321   912A      5.518384   913A      5.520633  
     914A      5.528939   915A      5.531156   916A      5.544851  
     917A      5.562510   918A      5.574761   919A      5.588914  
     920A      5.597543   921A      5.603433   922A      5.604753  
     923A      5.626126   924A      5.630255   925A      5.645029  
     926A      5.647867   927A      5.655428   928A      5.685006  
     929A      5.692174   930A      5.695577   931A      5.712122  
     932A      5.720174   933A      5.733870   934A      5.747894  
     935A      5.756221   936A      5.777428   937A      5.787669  
     938A      5.794906   939A      5.812401   940A      5.828346  
     941A      5.843988   942A      5.870358   943A      5.879952  
     944A      5.891329   945A      5.900312   946A      5.914043  
     947A      5.934849   948A      5.948655   949A      5.982649  
     950A      5.987949   951A      5.995990   952A      6.007240  
     953A      6.015358   954A      6.028853   955A      6.038679  
     956A      6.062171   957A      6.067863   958A      6.109279  
     959A      6.134077   960A      6.148288   961A      6.153817  
     962A      6.155132   963A      6.166376   964A      6.193344  
     965A      6.233116   966A      6.243754   967A      6.251098  
     968A      6.262195   969A      6.278579   970A      6.310575  
     971A      6.330442   972A      6.366206   973A      6.427039  
     974A      6.439555   975A      6.489523   976A      6.506734  
     977A      6.540116   978A      6.557195   979A      6.574746  
     980A      6.673462   981A      6.698887   982A      6.710211  
     983A      6.734285   984A      6.736203   985A      6.775826  
     986A      6.802161   987A      6.807652   988A      6.836721  
     989A      6.845510   990A      6.860801   991A      6.873790  
     992A      6.888837   993A      6.907560   994A      6.929900  
     995A      6.954795   996A      6.963939   997A      6.980279  
     998A      6.985999   999A      7.005369  1000A      7.030803  
    1001A      7.050767  1002A      7.063740  1003A      7.079792  
    1004A      7.103824  1005A      7.110076  1006A      7.128558  
    1007A      7.134647  1008A      7.156749  1009A      7.185648  
    1010A      7.201092  1011A      7.211131  1012A      7.219003  
    1013A      7.234945  1014A      7.252238  1015A      7.274223  
    1016A      7.277326  1017A      7.309757  1018A      7.334735  
    1019A      7.351476  1020A      7.366821  1021A      7.392556  
    1022A      7.407583  1023A      7.447724  1024A      7.450233  
    1025A      7.465701  1026A      7.480144  1027A      7.502949  
    1028A      7.517079  1029A      7.531363  1030A      7.540543  
    1031A      7.556153  1032A      7.594211  1033A      7.607608  
    1034A      7.622544  1035A      7.630871  1036A      7.648493  
    1037A      7.677378  1038A      7.686597  1039A      7.734903  
    1040A      7.748365  1041A      7.769885  1042A      7.826937  
    1043A      7.839938  1044A      7.854271  1045A      7.916640  
    1046A      7.918061  1047A      7.950583  1048A      7.968320  
    1049A      7.991991  1050A      7.995708  1051A      8.041235  
    1052A      8.114531  1053A      8.172047  1054A      8.203561  
    1055A      8.219084  1056A      8.256353  1057A      8.287772  
    1058A      8.360456  1059A      8.403177  1060A      8.498438  
    1061A      8.588970  1062A      8.623790  1063A      8.700183  
    1064A      8.873100  1065A     15.719643  1066A     16.045243  
    1067A     16.588904  1068A     16.784465  1069A     17.091532  
    1070A     17.320214  1071A     17.723239  1072A     18.177904  
    1073A     18.598008  1074A     18.883528  1075A     19.452511  
    1076A     19.677125  1077A     20.111633  1078A     20.355794  
    1079A     20.737148  1080A     20.837417  1081A     21.739666  

    Final Occupation by Irrep:
              A 
    DOCC [    64 ]

  @DF-RHF Final Energy:  -886.35710482648074

   => Energetics <=

    Nuclear Repulsion Energy =           1324.1542808699462057
    One-Electron Energy =               -3845.9043843590443430
    Two-Electron Energy =                1635.3929986626176287
    Total Energy =                       -886.3571048264807359

Computation Completed

*** tstop() called on node35.bme.utexas.edu at Wed Nov  4 17:38:13 2020
Module time:
	user time   =    3166.67 seconds =      52.78 minutes
	system time =     554.13 seconds =       9.24 minutes
	total time  =       1211 seconds =      20.18 minutes
Total time:
	user time   =    3166.67 seconds =      52.78 minutes
	system time =     554.13 seconds =       9.24 minutes
	total time  =       1211 seconds =      20.18 minutes
   => Loading Basis Set <=

    Name: (AUG-CC-PVTZ AUX)
    Role: RIFIT
    Keyword: DF_BASIS_MP2
    atoms 1-5   entry O          line   264 file /home/xy3866/psi4conda/share/psi4/basis/aug-cc-pvtz-ri.gbs 
    atoms 6-8   entry N          line   206 file /home/xy3866/psi4conda/share/psi4/basis/aug-cc-pvtz-ri.gbs 
    atoms 9-17  entry C          line   148 file /home/xy3866/psi4conda/share/psi4/basis/aug-cc-pvtz-ri.gbs 
    atoms 18-30 entry H          line    30 file /home/xy3866/psi4conda/share/psi4/basis/aug-cc-pvtz-ri.gbs 


*** tstart() called on node35.bme.utexas.edu
*** at Wed Nov  4 17:38:13 2020


  //>>>>>>>>>>>>>>>>>>>>>>>>>>>>>>>>>>>//
  //               DFMP2               //
  //<<<<<<<<<<<<<<<<<<<<<<<<<<<<<<<<<<<//

	 --------------------------------------------------------
	                          DF-MP2                         
	      2nd-Order Density-Fitted Moller-Plesset Theory     
	              RMP2 Wavefunction,   8 Threads             
	                                                         
	        Rob Parrish, Justin Turney, Andy Simmonett,      
	           Ed Hohenstein, and C. David Sherrill          
	 --------------------------------------------------------

   => Auxiliary Basis Set <=

  Basis Set: (AUG-CC-PVTZ AUX)
    Blend: AUG-CC-PVTZ-RI
    Number of shells: 658
    Number of basis function: 2400
    Number of Cartesian functions: 3027
    Spherical Harmonics?: true
    Max angular momentum: 4

	 --------------------------------------------------------
	                 NBF =  1081, NAUX =  2400
	 --------------------------------------------------------
	   CLASS    FOCC     OCC    AOCC    AVIR     VIR    FVIR
	   PAIRS       0      64      64    1017    1017       0
	 --------------------------------------------------------

  DFHelper Memory: AOs need 18.209 GiB; user supplied 22.352 GiB. Using in-core AOs.


         ------------------------------------------------------------
                                     CPHF                           
                                  Rob Parrish                       
         ------------------------------------------------------------

  ==> Geometry <==

    Molecular point group: c1
    Full point group: C1

    Geometry (in Angstrom), charge = 0, multiplicity = 1:

       Center              X                  Y                   Z               Mass       
    ------------   -----------------  -----------------  -----------------  -----------------
         O           -1.249697064828    -0.646447749360     1.032542178165    15.994914619570
         O           -1.246571064828     2.489071250640    -0.686135821835    15.994914619570
         O           -3.218126064828     1.527319250640     0.744914178165    15.994914619570
         O           -2.358625064828    -3.060616749360     0.094967178165    15.994914619570
         O            1.358933935172     2.253254250640    -0.076514821835    15.994914619570
         N            0.841807935172     0.051443250640     0.255970178165    14.003074004430
         N            3.055629935172     0.726723250640    -0.293699821835    14.003074004430
         N            4.714866935172    -0.830434749360    -0.572270821835    14.003074004430
         C           -1.291080064828     1.084650250640    -0.592049821835    12.000000000000
         C           -2.716767064828     0.661427250640    -0.257365821835    12.000000000000
         C           -0.545980064828     0.413435850640     0.610155378165    12.000000000000
         C           -2.530852064828    -0.710665749360     0.361083178165    12.000000000000
         C           -2.529940064828    -1.844172749360    -0.639262821835    12.000000000000
         C            1.218178935172    -1.255187749360     0.311301178165    12.000000000000
         C            1.805304935172     1.021955450640    -0.069960421835    12.000000000000
         C            2.509504935172    -1.602919749360     0.047022178165    12.000000000000
         C            3.410386935172    -0.544432749360    -0.258897821835    12.000000000000
         H           -0.939202064828     0.597624250640    -1.514863821835     1.007825032230
         H           -3.364178064828     0.648885250640    -1.146437821835     1.007825032230
         H           -0.441886064828     1.228100250640     1.404025178165     1.007825032230
         H           -3.283553064828    -0.902513749360     1.130810178165     1.007825032230
         H           -1.714904064828    -1.694084749360    -1.369436821835     1.007825032230
         H           -3.487157064828    -1.827783749360    -1.184107821835     1.007825032230
         H           -0.299121064828     2.719399250640    -0.524972821835     1.007825032230
         H           -2.849152064828     2.405963250640     0.508690178165     1.007825032230
         H            0.432714935172    -1.957216749360     0.569095178165     1.007825032230
         H           -2.435470064828    -3.792211749360    -0.543205821835     1.007825032230
         H            2.827515935172    -2.639177749360     0.073949178165     1.007825032230
         H            5.123583935172    -1.664640749360    -0.162386821835     1.007825032230
         H            5.318217935172    -0.013833749360    -0.568266821835     1.007825032230

  Nuclear repulsion = 1324.154280869946206
  Reference energy  = -886.357104826480736

  ==> Basis Set <==

  Basis Set: AUG-CC-PVTZ
    Blend: AUG-CC-PVTZ
    Number of shells: 355
    Number of basis function: 1081
    Number of Cartesian functions: 1260
    Spherical Harmonics?: true
    Max angular momentum: 3

  ==> CGRSolver (by Rob Parrish) <==

   Number of roots    =         1
   Preconditioning    =    JACOBI
   Convergence cutoff =     1E-06
   Maximum iterations =       100

  ==> CPHFRHamiltonian (by Rob Parrish) <== 

  ==> MemDFJK: Density-Fitted J/K Matrices <==

    J tasked:                   Yes
    K tasked:                   Yes
    wK tasked:                   No
    OpenMP threads:               8
    Memory [MiB]:             22888
    Algorithm:                 Disk
    Schwarz Cutoff:           1E-12
    Mask sparsity (%):      13.2864
    Fitting Condition:        1E-10

   => Auxiliary Basis Set <=

  Basis Set: (AUG-CC-PVTZ AUX)
    Blend: AUG-CC-PVTZ-JKFIT
    Number of shells: 692
    Number of basis function: 2366
    Number of Cartesian functions: 2942
    Spherical Harmonics?: true
    Max angular momentum: 4

  ==> CPHF Iterations <==

  => Iterations <=

             Iter  Converged  Remaining    Residual
  CGR           1          0          1   1.252E-01
  CGR           2          0          1   4.132E-02
  CGR           3          0          1   2.079E-02
  CGR           4          0          1   6.070E-03
  CGR           5          0          1   2.563E-03
  CGR           6          0          1   9.379E-04
  CGR           7          0          1   2.911E-04
  CGR           8          0          1   1.112E-04
  CGR           9          0          1   3.865E-05
  CGR          10          0          1   1.509E-05
  CGR          11          0          1   6.148E-06
  CGR          12          0          1   2.198E-06
  CGR          13          1          0   9.029E-07

    CGRSolver converged.

	-----------------------------------------------------------
	 ==================> DF-MP2 Energies <==================== 
	-----------------------------------------------------------
	 Reference Energy          =    -886.3571048264807359 [Eh]
	 Singles Energy            =      -0.0000000000000000 [Eh]
	 Same-Spin Energy          =      -0.9027268142657980 [Eh]
	 Opposite-Spin Energy      =      -2.7158720477303144 [Eh]
	 Correlation Energy        =      -3.6185988619961122 [Eh]
	 Total Energy              =    -889.9757036884768695 [Eh]
	-----------------------------------------------------------
	 ================> DF-SCS-MP2 Energies <================== 
	-----------------------------------------------------------
	 SCS Same-Spin Scale       =       0.3333333333333333 [-]
	 SCS Opposite-Spin Scale   =       1.2000000000000000 [-]
	 SCS Same-Spin Energy      =      -0.3009089380885993 [Eh]
	 SCS Opposite-Spin Energy  =      -3.2590464572763773 [Eh]
	 SCS Correlation Energy    =      -3.5599553953649767 [Eh]
	 SCS Total Energy          =    -889.9170602218457589 [Eh]
	-----------------------------------------------------------



Properties will be evaluated at   0.000000,  -0.000000,   0.000000 [a0]

Properties computed using the MP2 density matrix

  Nuclear Dipole Moment: [e a0]
     X:    -4.8502      Y:    -6.4481      Z:    -3.1120

  Electronic Dipole Moment: [e a0]
     X:     5.5990      Y:     3.7893      Z:     2.3887

  Dipole Moment: [e a0]
     X:     0.7488      Y:    -2.6588      Z:    -0.7232     Total:     2.8553

  Dipole Moment: [D]
     X:     1.9033      Y:    -6.7579      Z:    -1.8383     Total:     7.2575


*** tstop() called on node35.bme.utexas.edu at Wed Nov  4 18:20:59 2020
Module time:
	user time   =   13526.43 seconds =     225.44 minutes
	system time =    1421.45 seconds =      23.69 minutes
	total time  =       2566 seconds =      42.77 minutes
Total time:
	user time   =   16693.60 seconds =     278.23 minutes
	system time =    1975.59 seconds =      32.93 minutes
	total time  =       3777 seconds =      62.95 minutes

    Psi4 stopped on: Wednesday, 04 November 2020 06:21PM
    Psi4 wall time for execution: 1:02:59.84

*** Psi4 exiting successfully. Buy a developer a beer!
