
    -----------------------------------------------------------------------
          Psi4: An Open-Source Ab Initio Electronic Structure Package
                               Psi4 1.3.2 release

                         Git: Rev {HEAD} ecbda83 


    R. M. Parrish, L. A. Burns, D. G. A. Smith, A. C. Simmonett,
    A. E. DePrince III, E. G. Hohenstein, U. Bozkaya, A. Yu. Sokolov,
    R. Di Remigio, R. M. Richard, J. F. Gonthier, A. M. James,
    H. R. McAlexander, A. Kumar, M. Saitow, X. Wang, B. P. Pritchard,
    P. Verma, H. F. Schaefer III, K. Patkowski, R. A. King, E. F. Valeev,
    F. A. Evangelista, J. M. Turney, T. D. Crawford, and C. D. Sherrill,
    J. Chem. Theory Comput. 13(7) pp 3185--3197 (2017).
    (doi: 10.1021/acs.jctc.7b00174)


                         Additional Contributions by
    P. Kraus, H. Kruse, M. H. Lechner, M. C. Schieber, R. A. Shaw,
    A. Alenaizan, R. Galvelis, Z. L. Glick, S. Lehtola, and J. P. Misiewicz

    -----------------------------------------------------------------------


    Psi4 started on: Saturday, 07 November 2020 04:09AM

    Process ID: 85748
    Host:       node142.bme.utexas.edu
    PSIDATADIR: /home/xy3866/psi4conda/share/psi4
    Memory:     500.0 MiB
    Threads:    8
    
  ==> Input File <==

--------------------------------------------------------------------------
#psi4
#
memory 32 gb

molecule  {
0 1
  O       -1.2481010    -0.6526680     1.0325150
  O       -1.2449750     2.4828510    -0.6861630
  O       -3.2260895     1.5239299     0.7375833
  O       -2.3570290    -3.0668370     0.0949400
  O        1.3605300     2.2470340    -0.0765420
  N        0.8434040     0.0452230     0.2559430
  N        3.0572260     0.7205030    -0.2937270
  N        4.7164630    -0.8366550    -0.5722980
  C       -1.2894840     1.0784300    -0.5920770
  C       -2.7151710     0.6552070    -0.2573930
  C       -0.5254080     0.4815200     0.6000940
  C       -2.5292560    -0.7168860     0.3610560
  C       -2.5283440    -1.8503930    -0.6392900
  C        1.2197750    -1.2614080     0.3112740
  C        1.7555940     1.0674350    -0.0594030
  C        2.5111010    -1.6091400     0.0469950
  C        3.4119830    -0.5506530    -0.2589250
  H       -0.9376060     0.5914040    -1.5148910
  H       -3.3684705     0.6489403    -1.1422138
  H       -0.4402900     1.2218800     1.4039980
  H       -3.2819570    -0.9087340     1.1307830
  H       -1.7133080    -1.7003050    -1.3694640
  H       -3.4855610    -1.8340040    -1.1841350
  H       -0.2975250     2.7131790    -0.5250000
  H       -2.8475560     2.3997430     0.5086630
  H        0.4343110    -1.9634370     0.5690680
  H       -2.4338740    -3.7984320    -0.5432330
  H        2.8291120    -2.6453980     0.0739220
  H        5.1251800    -1.6708610    -0.1624140
  H        5.3198140    -0.0200540    -0.5682940
units angstrom
no_reorient  #important for SAPT in psi4, default
symmetry c1  #important for SAPT in psi4, default
}

set PROPERTIES_ORIGIN ["COM"]
properties('MP2/aug-cc-pvtz', properties = ['dipole'])
--------------------------------------------------------------------------

  Memory set to  29.802 GiB by Python driver.
    SCF Algorithm Type (re)set to DF.

*** tstart() called on node142.bme.utexas.edu
*** at Sat Nov  7 04:09:52 2020

   => Loading Basis Set <=

    Name: AUG-CC-PVTZ
    Role: ORBITAL
    Keyword: BASIS
    atoms 1-5   entry O          line   327 file /home/xy3866/psi4conda/share/psi4/basis/aug-cc-pvtz.gbs 
    atoms 6-8   entry N          line   281 file /home/xy3866/psi4conda/share/psi4/basis/aug-cc-pvtz.gbs 
    atoms 9-17  entry C          line   235 file /home/xy3866/psi4conda/share/psi4/basis/aug-cc-pvtz.gbs 
    atoms 18-30 entry H          line    36 file /home/xy3866/psi4conda/share/psi4/basis/aug-cc-pvtz.gbs 


         ---------------------------------------------------------
                                   SCF
               by Justin Turney, Rob Parrish, Andy Simmonett
                          and Daniel G. A. Smith
                              RHF Reference
                        8 Threads,  30517 MiB Core
         ---------------------------------------------------------

  ==> Geometry <==

    Molecular point group: c1
    Full point group: C1

    Geometry (in Angstrom), charge = 0, multiplicity = 1:

       Center              X                  Y                   Z               Mass       
    ------------   -----------------  -----------------  -----------------  -----------------
         O           -1.247447609727    -0.652880278969     1.032977962213    15.994914619570
         O           -1.244321609727     2.482638721031    -0.685700037787    15.994914619570
         O           -3.225436109727     1.523717621031     0.738046262213    15.994914619570
         O           -2.356375609727    -3.067049278969     0.095402962213    15.994914619570
         O            1.361183390273     2.246821721031    -0.076079037787    15.994914619570
         N            0.844057390273     0.045010721031     0.256405962213    14.003074004430
         N            3.057879390273     0.720290721031    -0.293264037787    14.003074004430
         N            4.717116390273    -0.836867278969    -0.571835037787    14.003074004430
         C           -1.288830609727     1.078217721031    -0.591614037787    12.000000000000
         C           -2.714517609727     0.654994721031    -0.256930037787    12.000000000000
         C           -0.524754609727     0.481307721031     0.600556962213    12.000000000000
         C           -2.528602609727    -0.717098278969     0.361518962213    12.000000000000
         C           -2.527690609727    -1.850605278969    -0.638827037787    12.000000000000
         C            1.220428390273    -1.261620278969     0.311736962213    12.000000000000
         C            1.756247390273     1.067222721031    -0.058940037787    12.000000000000
         C            2.511754390273    -1.609352278969     0.047457962213    12.000000000000
         C            3.412636390273    -0.550865278969    -0.258462037787    12.000000000000
         H           -0.936952609727     0.591191721031    -1.514428037787     1.007825032230
         H           -3.367817109727     0.648728021031    -1.141750837787     1.007825032230
         H           -0.439636609727     1.221667721031     1.404460962213     1.007825032230
         H           -3.281303609727    -0.908946278969     1.131245962213     1.007825032230
         H           -1.712654609727    -1.700517278969    -1.369001037787     1.007825032230
         H           -3.484907609727    -1.834216278969    -1.183672037787     1.007825032230
         H           -0.296871609727     2.712966721031    -0.524537037787     1.007825032230
         H           -2.846902609727     2.399530721031     0.509125962213     1.007825032230
         H            0.434964390273    -1.963649278969     0.569530962213     1.007825032230
         H           -2.433220609727    -3.798644278969    -0.542770037787     1.007825032230
         H            2.829765390273    -2.645610278969     0.074384962213     1.007825032230
         H            5.125833390273    -1.671073278969    -0.161951037787     1.007825032230
         H            5.320467390273    -0.020266278969    -0.567831037787     1.007825032230

  Running in c1 symmetry.

  Rotational constants: A =      0.02619  B =      0.01118  C =      0.00834 [cm^-1]
  Rotational constants: A =    785.05604  B =    335.21675  C =    249.94517 [MHz]
  Nuclear repulsion = 1323.509636790616923

  Charge       = 0
  Multiplicity = 1
  Electrons    = 128
  Nalpha       = 64
  Nbeta        = 64

  ==> Algorithm <==

  SCF Algorithm Type is DF.
  DIIS enabled.
  MOM disabled.
  Fractional occupation disabled.
  Guess Type is SAD.
  Energy threshold   = 1.00e-10
  Density threshold  = 1.00e-10
  Integral threshold = 0.00e+00

  ==> Primary Basis <==

  Basis Set: AUG-CC-PVTZ
    Blend: AUG-CC-PVTZ
    Number of shells: 355
    Number of basis function: 1081
    Number of Cartesian functions: 1260
    Spherical Harmonics?: true
    Max angular momentum: 3

   => Loading Basis Set <=

    Name: (AUG-CC-PVTZ AUX)
    Role: JKFIT
    Keyword: DF_BASIS_SCF
    atoms 1-5   entry O          line   286 file /home/xy3866/psi4conda/share/psi4/basis/aug-cc-pvtz-jkfit.gbs 
    atoms 6-8   entry N          line   224 file /home/xy3866/psi4conda/share/psi4/basis/aug-cc-pvtz-jkfit.gbs 
    atoms 9-17  entry C          line   162 file /home/xy3866/psi4conda/share/psi4/basis/aug-cc-pvtz-jkfit.gbs 
    atoms 18-30 entry H          line    70 file /home/xy3866/psi4conda/share/psi4/basis/aug-cc-pvtz-jkfit.gbs 

  ==> Pre-Iterations <==

   -------------------------------------------------------
    Irrep   Nso     Nmo     Nalpha   Nbeta   Ndocc  Nsocc
   -------------------------------------------------------
     A       1081    1081       0       0       0       0
   -------------------------------------------------------
    Total    1081    1081      64      64      64       0
   -------------------------------------------------------

  ==> Integral Setup <==

  DFHelper Memory: AOs need 18.208 GiB; user supplied 22.352 GiB. Using in-core AOs.

  ==> MemDFJK: Density-Fitted J/K Matrices <==

    J tasked:                   Yes
    K tasked:                   Yes
    wK tasked:                   No
    OpenMP threads:               8
    Memory [MiB]:             22888
    Algorithm:                 Disk
    Schwarz Cutoff:           1E-12
    Mask sparsity (%):      13.2933
    Fitting Condition:        1E-10

   => Auxiliary Basis Set <=

  Basis Set: (AUG-CC-PVTZ AUX)
    Blend: AUG-CC-PVTZ-JKFIT
    Number of shells: 692
    Number of basis function: 2366
    Number of Cartesian functions: 2942
    Spherical Harmonics?: true
    Max angular momentum: 4

  Minimum eigenvalue in the overlap matrix is 9.5922263164E-07.
  Using Symmetric Orthogonalization.

  SCF Guess: Superposition of Atomic Densities via on-the-fly atomic UHF.

  ==> Iterations <==

                           Total Energy        Delta E     RMS |[F,P]|

   @DF-RHF iter SAD:  -885.99469652412631   -8.85995e+02   0.00000e+00 
   @DF-RHF iter   1:  -885.89530558076592    9.93909e-02   9.15316e-04 DIIS
   @DF-RHF iter   2:  -886.26452330836128   -3.69218e-01   5.05048e-04 DIIS
   @DF-RHF iter   3:  -886.36530038516275   -1.00777e-01   1.02917e-04 DIIS
   @DF-RHF iter   4:  -886.37241726486934   -7.11688e-03   4.16803e-05 DIIS
   @DF-RHF iter   5:  -886.37350107582824   -1.08381e-03   9.11327e-06 DIIS
   @DF-RHF iter   6:  -886.37360358649869   -1.02511e-04   4.42379e-06 DIIS
   @DF-RHF iter   7:  -886.37362824947229   -2.46630e-05   1.61460e-06 DIIS
   @DF-RHF iter   8:  -886.37363371743800   -5.46797e-06   6.32263e-07 DIIS
   @DF-RHF iter   9:  -886.37363450302382   -7.85586e-07   2.43289e-07 DIIS
   @DF-RHF iter  10:  -886.37363461631628   -1.13292e-07   9.44665e-08 DIIS
   @DF-RHF iter  11:  -886.37363463258373   -1.62674e-08   3.45577e-08 DIIS
   @DF-RHF iter  12:  -886.37363463428483   -1.70110e-09   1.32882e-08 DIIS
   @DF-RHF iter  13:  -886.37363463454949   -2.64663e-10   4.00809e-09 DIIS
   @DF-RHF iter  14:  -886.37363463457257   -2.30784e-11   1.66385e-09 DIIS
   @DF-RHF iter  15:  -886.37363463457814   -5.57066e-12   7.96205e-10 DIIS
   @DF-RHF iter  16:  -886.37363463458541   -7.27596e-12   3.14634e-10 DIIS
   @DF-RHF iter  17:  -886.37363463458667   -1.25056e-12   1.52397e-10 DIIS
   @DF-RHF iter  18:  -886.37363463458394    2.72848e-12   5.14615e-11 DIIS
  Energy and wave function converged.


  ==> Post-Iterations <==

    Orbital Energies [Eh]
    ---------------------

    Doubly Occupied:                                                      

       1A    -20.582290     2A    -20.581833     3A    -20.557380  
       4A    -20.557282     5A    -20.522113     6A    -15.637079  
       7A    -15.599945     8A    -15.553454     9A    -11.388388  
      10A    -11.357969    11A    -11.341816    12A    -11.328651  
      13A    -11.301251    14A    -11.297080    15A    -11.296910  
      16A    -11.292840    17A    -11.248678    18A     -1.429474  
      19A     -1.396495    20A     -1.380097    21A     -1.372892  
      22A     -1.346329    23A     -1.306182    24A     -1.273930  
      25A     -1.182359    26A     -1.082103    27A     -1.067718  
      28A     -1.021528    29A     -0.935509    30A     -0.909598  
      31A     -0.877380    32A     -0.832440    33A     -0.811968  
      34A     -0.767089    35A     -0.752517    36A     -0.736362  
      37A     -0.720400    38A     -0.702992    39A     -0.698516  
      40A     -0.685743    41A     -0.672344    42A     -0.654664  
      43A     -0.651629    44A     -0.638664    45A     -0.620740  
      46A     -0.614542    47A     -0.607021    48A     -0.593975  
      49A     -0.575798    50A     -0.569825    51A     -0.554271  
      52A     -0.545585    53A     -0.537666    54A     -0.531881  
      55A     -0.498293    56A     -0.477546    57A     -0.474111  
      58A     -0.462390    59A     -0.460012    60A     -0.452978  
      61A     -0.440696    62A     -0.433259    63A     -0.395317  
      64A     -0.350141  

    Virtual:                                                              

      65A      0.015650    66A      0.022181    67A      0.032355  
      68A      0.037659    69A      0.040830    70A      0.044916  
      71A      0.053232    72A      0.054423    73A      0.056503  
      74A      0.062425    75A      0.064288    76A      0.074087  
      77A      0.082064    78A      0.082779    79A      0.085639  
      80A      0.089346    81A      0.100495    82A      0.101434  
      83A      0.104607    84A      0.109483    85A      0.112220  
      86A      0.113578    87A      0.119272    88A      0.120118  
      89A      0.124650    90A      0.126598    91A      0.128935  
      92A      0.134710    93A      0.137740    94A      0.140312  
      95A      0.145668    96A      0.147979    97A      0.150146  
      98A      0.152698    99A      0.155532   100A      0.159387  
     101A      0.165040   102A      0.167704   103A      0.170086  
     104A      0.173750   105A      0.177581   106A      0.179684  
     107A      0.180881   108A      0.183230   109A      0.195124  
     110A      0.197110   111A      0.202973   112A      0.205710  
     113A      0.210972   114A      0.215138   115A      0.221645  
     116A      0.224520   117A      0.227982   118A      0.234369  
     119A      0.235830   120A      0.242179   121A      0.244744  
     122A      0.247281   123A      0.251600   124A      0.251850  
     125A      0.254512   126A      0.263466   127A      0.265442  
     128A      0.269832   129A      0.272421   130A      0.275562  
     131A      0.277242   132A      0.280729   133A      0.283655  
     134A      0.284903   135A      0.288617   136A      0.292158  
     137A      0.295051   138A      0.299583   139A      0.302776  
     140A      0.306361   141A      0.311159   142A      0.315129  
     143A      0.318166   144A      0.319181   145A      0.323424  
     146A      0.326608   147A      0.331047   148A      0.333742  
     149A      0.334390   150A      0.340195   151A      0.346828  
     152A      0.350967   153A      0.352080   154A      0.354526  
     155A      0.358257   156A      0.359213   157A      0.364149  
     158A      0.367809   159A      0.369772   160A      0.379507  
     161A      0.380908   162A      0.384469   163A      0.387759  
     164A      0.391636   165A      0.394184   166A      0.398109  
     167A      0.399824   168A      0.400452   169A      0.405688  
     170A      0.406818   171A      0.412482   172A      0.419024  
     173A      0.423548   174A      0.425807   175A      0.427099  
     176A      0.431998   177A      0.436323   178A      0.443834  
     179A      0.447553   180A      0.450817   181A      0.454790  
     182A      0.456622   183A      0.458594   184A      0.462388  
     185A      0.465950   186A      0.468552   187A      0.473087  
     188A      0.474135   189A      0.477361   190A      0.479476  
     191A      0.484345   192A      0.487003   193A      0.490030  
     194A      0.495518   195A      0.496931   196A      0.501153  
     197A      0.505185   198A      0.510298   199A      0.511026  
     200A      0.517297   201A      0.520699   202A      0.521571  
     203A      0.524679   204A      0.528691   205A      0.530311  
     206A      0.536287   207A      0.537162   208A      0.539484  
     209A      0.541650   210A      0.545519   211A      0.551306  
     212A      0.553911   213A      0.557009   214A      0.558203  
     215A      0.567368   216A      0.571362   217A      0.572860  
     218A      0.579587   219A      0.582580   220A      0.588990  
     221A      0.590496   222A      0.592778   223A      0.595807  
     224A      0.599725   225A      0.610601   226A      0.612918  
     227A      0.615777   228A      0.617321   229A      0.620625  
     230A      0.623899   231A      0.626706   232A      0.628772  
     233A      0.638376   234A      0.642449   235A      0.644131  
     236A      0.644964   237A      0.652129   238A      0.657110  
     239A      0.659479   240A      0.666560   241A      0.669476  
     242A      0.673242   243A      0.675755   244A      0.684224  
     245A      0.689254   246A      0.691051   247A      0.694378  
     248A      0.695788   249A      0.700568   250A      0.707204  
     251A      0.709897   252A      0.713556   253A      0.715972  
     254A      0.721467   255A      0.727184   256A      0.730354  
     257A      0.735036   258A      0.739609   259A      0.746523  
     260A      0.750980   261A      0.757984   262A      0.759820  
     263A      0.763983   264A      0.771797   265A      0.774434  
     266A      0.776692   267A      0.778126   268A      0.786371  
     269A      0.796284   270A      0.800745   271A      0.802385  
     272A      0.810624   273A      0.815414   274A      0.822814  
     275A      0.823558   276A      0.826847   277A      0.839098  
     278A      0.843904   279A      0.844896   280A      0.853009  
     281A      0.858066   282A      0.863504   283A      0.866147  
     284A      0.871013   285A      0.872458   286A      0.875503  
     287A      0.877035   288A      0.886073   289A      0.888934  
     290A      0.892583   291A      0.898421   292A      0.901394  
     293A      0.909624   294A      0.916522   295A      0.918544  
     296A      0.922386   297A      0.925100   298A      0.928344  
     299A      0.933779   300A      0.941740   301A      0.943661  
     302A      0.946179   303A      0.951341   304A      0.956166  
     305A      0.967063   306A      0.969016   307A      0.972716  
     308A      0.974390   309A      0.981713   310A      0.983896  
     311A      0.990119   312A      0.991977   313A      0.995812  
     314A      1.002162   315A      1.010504   316A      1.014311  
     317A      1.015189   318A      1.020619   319A      1.021678  
     320A      1.025981   321A      1.030824   322A      1.032667  
     323A      1.035577   324A      1.040171   325A      1.043740  
     326A      1.050986   327A      1.055174   328A      1.060416  
     329A      1.061707   330A      1.064453   331A      1.070319  
     332A      1.073085   333A      1.077683   334A      1.081958  
     335A      1.085616   336A      1.090500   337A      1.092846  
     338A      1.095390   339A      1.101650   340A      1.105659  
     341A      1.107275   342A      1.112300   343A      1.119050  
     344A      1.125591   345A      1.130724   346A      1.131172  
     347A      1.136056   348A      1.136266   349A      1.142310  
     350A      1.149310   351A      1.152056   352A      1.160560  
     353A      1.162827   354A      1.166167   355A      1.168135  
     356A      1.178277   357A      1.182299   358A      1.184675  
     359A      1.189862   360A      1.193854   361A      1.196371  
     362A      1.200517   363A      1.205794   364A      1.212081  
     365A      1.215055   366A      1.220029   367A      1.222018  
     368A      1.223927   369A      1.227893   370A      1.230893  
     371A      1.241235   372A      1.244041   373A      1.250122  
     374A      1.252572   375A      1.256130   376A      1.262817  
     377A      1.264093   378A      1.272480   379A      1.277647  
     380A      1.281763   381A      1.289293   382A      1.292327  
     383A      1.297940   384A      1.299141   385A      1.307870  
     386A      1.310787   387A      1.317041   388A      1.326638  
     389A      1.329550   390A      1.339318   391A      1.341270  
     392A      1.346231   393A      1.353471   394A      1.361095  
     395A      1.363104   396A      1.370666   397A      1.376959  
     398A      1.377845   399A      1.385730   400A      1.386692  
     401A      1.396626   402A      1.399729   403A      1.404755  
     404A      1.413381   405A      1.420883   406A      1.425124  
     407A      1.426607   408A      1.430272   409A      1.436314  
     410A      1.441059   411A      1.448084   412A      1.452149  
     413A      1.454402   414A      1.464756   415A      1.469849  
     416A      1.474874   417A      1.480492   418A      1.485246  
     419A      1.490207   420A      1.495549   421A      1.498538  
     422A      1.505054   423A      1.506455   424A      1.515542  
     425A      1.520080   426A      1.524134   427A      1.531175  
     428A      1.535572   429A      1.540767   430A      1.543606  
     431A      1.549923   432A      1.555489   433A      1.559078  
     434A      1.563890   435A      1.570028   436A      1.575534  
     437A      1.577836   438A      1.585521   439A      1.594466  
     440A      1.594685   441A      1.598152   442A      1.606149  
     443A      1.613436   444A      1.615375   445A      1.620294  
     446A      1.629989   447A      1.631914   448A      1.641706  
     449A      1.646498   450A      1.652835   451A      1.658320  
     452A      1.661027   453A      1.670139   454A      1.676007  
     455A      1.680769   456A      1.685619   457A      1.693929  
     458A      1.694998   459A      1.700950   460A      1.709077  
     461A      1.718198   462A      1.720366   463A      1.728386  
     464A      1.732608   465A      1.733564   466A      1.737503  
     467A      1.746976   468A      1.757371   469A      1.759400  
     470A      1.761960   471A      1.767975   472A      1.775076  
     473A      1.780015   474A      1.784154   475A      1.794151  
     476A      1.799663   477A      1.802882   478A      1.806405  
     479A      1.810044   480A      1.816143   481A      1.817124  
     482A      1.825157   483A      1.830973   484A      1.837647  
     485A      1.839740   486A      1.846726   487A      1.856898  
     488A      1.858080   489A      1.860287   490A      1.866455  
     491A      1.871444   492A      1.874817   493A      1.882949  
     494A      1.892400   495A      1.896133   496A      1.908280  
     497A      1.913778   498A      1.915468   499A      1.924120  
     500A      1.936545   501A      1.937769   502A      1.947081  
     503A      1.951463   504A      1.956667   505A      1.959001  
     506A      1.969920   507A      1.977687   508A      1.983784  
     509A      1.988242   510A      1.993591   511A      1.995087  
     512A      1.999784   513A      2.007139   514A      2.012145  
     515A      2.021399   516A      2.029315   517A      2.031257  
     518A      2.035712   519A      2.047732   520A      2.048382  
     521A      2.050072   522A      2.056224   523A      2.060031  
     524A      2.066919   525A      2.070024   526A      2.083472  
     527A      2.087570   528A      2.099288   529A      2.104453  
     530A      2.110155   531A      2.123079   532A      2.126092  
     533A      2.131464   534A      2.135031   535A      2.139642  
     536A      2.143028   537A      2.148549   538A      2.154644  
     539A      2.161427   540A      2.168834   541A      2.177561  
     542A      2.180676   543A      2.191968   544A      2.194933  
     545A      2.210608   546A      2.215908   547A      2.219521  
     548A      2.221604   549A      2.232415   550A      2.239304  
     551A      2.247025   552A      2.251853   553A      2.264223  
     554A      2.267904   555A      2.276232   556A      2.283311  
     557A      2.291677   558A      2.297555   559A      2.309457  
     560A      2.317273   561A      2.324267   562A      2.327998  
     563A      2.343958   564A      2.349295   565A      2.362658  
     566A      2.368668   567A      2.371065   568A      2.374356  
     569A      2.392898   570A      2.402283   571A      2.406140  
     572A      2.413073   573A      2.416522   574A      2.426168  
     575A      2.429531   576A      2.432656   577A      2.441379  
     578A      2.454095   579A      2.455280   580A      2.468861  
     581A      2.487480   582A      2.492003   583A      2.508625  
     584A      2.513839   585A      2.517483   586A      2.522430  
     587A      2.537719   588A      2.541984   589A      2.549368  
     590A      2.550732   591A      2.569650   592A      2.573327  
     593A      2.576121   594A      2.586007   595A      2.594668  
     596A      2.602972   597A      2.609838   598A      2.613827  
     599A      2.629057   600A      2.632373   601A      2.641954  
     602A      2.648403   603A      2.658805   604A      2.667082  
     605A      2.679212   606A      2.681211   607A      2.696715  
     608A      2.702282   609A      2.705154   610A      2.723458  
     611A      2.735716   612A      2.740873   613A      2.746199  
     614A      2.751535   615A      2.756150   616A      2.758356  
     617A      2.774835   618A      2.791244   619A      2.799582  
     620A      2.810376   621A      2.827353   622A      2.827827  
     623A      2.833665   624A      2.845389   625A      2.851414  
     626A      2.862615   627A      2.865496   628A      2.874097  
     629A      2.877975   630A      2.888344   631A      2.893526  
     632A      2.910632   633A      2.914785   634A      2.927015  
     635A      2.929667   636A      2.951194   637A      2.956964  
     638A      2.964859   639A      2.974887   640A      2.986234  
     641A      2.989830   642A      2.999677   643A      3.009698  
     644A      3.011218   645A      3.026691   646A      3.030264  
     647A      3.048429   648A      3.054526   649A      3.055658  
     650A      3.069559   651A      3.081552   652A      3.091341  
     653A      3.101115   654A      3.109648   655A      3.117479  
     656A      3.128881   657A      3.138240   658A      3.138930  
     659A      3.157370   660A      3.170053   661A      3.179039  
     662A      3.189961   663A      3.190979   664A      3.197205  
     665A      3.207139   666A      3.216397   667A      3.229250  
     668A      3.240632   669A      3.248020   670A      3.251962  
     671A      3.269954   672A      3.279748   673A      3.293057  
     674A      3.302475   675A      3.306798   676A      3.323220  
     677A      3.332169   678A      3.341768   679A      3.357029  
     680A      3.361424   681A      3.371590   682A      3.384458  
     683A      3.392306   684A      3.396668   685A      3.422528  
     686A      3.429080   687A      3.436773   688A      3.461857  
     689A      3.467571   690A      3.474622   691A      3.489913  
     692A      3.500220   693A      3.500521   694A      3.519481  
     695A      3.529682   696A      3.534484   697A      3.552001  
     698A      3.554335   699A      3.561093   700A      3.575952  
     701A      3.585537   702A      3.595133   703A      3.623075  
     704A      3.638117   705A      3.646172   706A      3.649686  
     707A      3.662978   708A      3.681152   709A      3.696382  
     710A      3.700242   711A      3.708270   712A      3.714230  
     713A      3.727112   714A      3.733546   715A      3.749551  
     716A      3.755254   717A      3.763850   718A      3.775255  
     719A      3.778859   720A      3.794640   721A      3.797362  
     722A      3.802387   723A      3.805636   724A      3.819251  
     725A      3.828096   726A      3.834636   727A      3.846124  
     728A      3.857028   729A      3.866609   730A      3.870658  
     731A      3.883625   732A      3.889223   733A      3.904383  
     734A      3.917009   735A      3.921685   736A      3.923997  
     737A      3.939006   738A      3.945888   739A      3.950337  
     740A      3.958373   741A      3.970374   742A      3.985789  
     743A      3.989638   744A      3.996353   745A      4.002953  
     746A      4.015904   747A      4.017742   748A      4.023752  
     749A      4.034322   750A      4.045553   751A      4.051224  
     752A      4.059207   753A      4.063635   754A      4.073659  
     755A      4.076712   756A      4.088226   757A      4.097655  
     758A      4.102095   759A      4.110220   760A      4.124407  
     761A      4.136499   762A      4.139581   763A      4.143932  
     764A      4.153312   765A      4.155603   766A      4.169081  
     767A      4.182935   768A      4.188053   769A      4.189854  
     770A      4.205871   771A      4.207493   772A      4.218552  
     773A      4.222604   774A      4.231935   775A      4.250403  
     776A      4.257986   777A      4.268981   778A      4.276242  
     779A      4.279206   780A      4.282466   781A      4.288495  
     782A      4.294898   783A      4.304580   784A      4.309509  
     785A      4.321133   786A      4.325401   787A      4.329196  
     788A      4.342587   789A      4.348921   790A      4.354975  
     791A      4.360921   792A      4.376718   793A      4.379792  
     794A      4.386411   795A      4.393520   796A      4.405723  
     797A      4.408873   798A      4.414439   799A      4.423304  
     800A      4.424627   801A      4.431810   802A      4.444410  
     803A      4.452974   804A      4.457529   805A      4.462736  
     806A      4.469168   807A      4.476748   808A      4.486352  
     809A      4.489252   810A      4.492982   811A      4.506311  
     812A      4.517865   813A      4.528043   814A      4.533009  
     815A      4.542703   816A      4.556539   817A      4.565976  
     818A      4.571150   819A      4.585229   820A      4.593453  
     821A      4.598421   822A      4.607552   823A      4.620637  
     824A      4.632793   825A      4.646887   826A      4.655310  
     827A      4.662113   828A      4.670458   829A      4.678108  
     830A      4.694421   831A      4.698112   832A      4.703361  
     833A      4.710805   834A      4.715101   835A      4.726132  
     836A      4.739207   837A      4.745482   838A      4.750261  
     839A      4.766912   840A      4.779247   841A      4.792033  
     842A      4.798088   843A      4.800779   844A      4.810361  
     845A      4.826017   846A      4.840268   847A      4.846442  
     848A      4.851242   849A      4.864998   850A      4.884957  
     851A      4.889573   852A      4.900646   853A      4.907152  
     854A      4.921047   855A      4.932422   856A      4.949670  
     857A      4.953535   858A      4.963466   859A      4.969560  
     860A      4.978264   861A      4.979194   862A      4.997308  
     863A      5.007364   864A      5.024286   865A      5.030895  
     866A      5.054360   867A      5.057569   868A      5.062707  
     869A      5.074837   870A      5.083209   871A      5.092350  
     872A      5.107972   873A      5.125635   874A      5.126442  
     875A      5.137730   876A      5.141645   877A      5.150865  
     878A      5.154264   879A      5.183861   880A      5.197979  
     881A      5.208032   882A      5.221447   883A      5.229161  
     884A      5.234996   885A      5.242176   886A      5.253881  
     887A      5.261371   888A      5.281487   889A      5.296630  
     890A      5.298424   891A      5.303344   892A      5.308344  
     893A      5.325631   894A      5.326280   895A      5.335807  
     896A      5.347708   897A      5.354307   898A      5.360284  
     899A      5.368523   900A      5.380163   901A      5.394654  
     902A      5.401209   903A      5.406572   904A      5.421246  
     905A      5.428321   906A      5.437140   907A      5.461391  
     908A      5.469857   909A      5.481389   910A      5.485590  
     911A      5.491587   912A      5.518415   913A      5.524442  
     914A      5.527402   915A      5.538468   916A      5.541158  
     917A      5.565129   918A      5.581723   919A      5.591605  
     920A      5.594423   921A      5.600533   922A      5.609488  
     923A      5.624192   924A      5.631881   925A      5.641467  
     926A      5.651563   927A      5.653452   928A      5.677846  
     929A      5.683395   930A      5.693091   931A      5.715299  
     932A      5.719425   933A      5.731866   934A      5.757330  
     935A      5.766682   936A      5.773851   937A      5.780031  
     938A      5.799194   939A      5.810220   940A      5.825811  
     941A      5.844863   942A      5.870932   943A      5.875964  
     944A      5.895667   945A      5.901273   946A      5.907177  
     947A      5.937400   948A      5.952994   949A      5.974262  
     950A      5.979886   951A      5.995055   952A      6.001218  
     953A      6.013909   954A      6.031671   955A      6.047299  
     956A      6.057153   957A      6.065300   958A      6.104387  
     959A      6.129319   960A      6.141288   961A      6.157288  
     962A      6.163060   963A      6.180211   964A      6.192146  
     965A      6.231520   966A      6.244389   967A      6.248307  
     968A      6.264520   969A      6.275877   970A      6.311633  
     971A      6.327080   972A      6.378066   973A      6.421680  
     974A      6.431881   975A      6.468500   976A      6.499357  
     977A      6.523644   978A      6.539901   979A      6.572370  
     980A      6.655774   981A      6.690476   982A      6.703581  
     983A      6.725977   984A      6.749066   985A      6.761880  
     986A      6.794847   987A      6.800809   988A      6.819566  
     989A      6.834608   990A      6.841201   991A      6.876888  
     992A      6.901139   993A      6.907530   994A      6.926005  
     995A      6.955203   996A      6.958586   997A      6.979023  
     998A      6.988156   999A      6.997462  1000A      7.023052  
    1001A      7.048154  1002A      7.061607  1003A      7.080274  
    1004A      7.083327  1005A      7.108603  1006A      7.129544  
    1007A      7.131481  1008A      7.155198  1009A      7.180878  
    1010A      7.204220  1011A      7.213344  1012A      7.223769  
    1013A      7.228751  1014A      7.246388  1015A      7.271050  
    1016A      7.280011  1017A      7.313750  1018A      7.332578  
    1019A      7.349572  1020A      7.355143  1021A      7.393707  
    1022A      7.398873  1023A      7.428844  1024A      7.444501  
    1025A      7.458225  1026A      7.492624  1027A      7.508538  
    1028A      7.514111  1029A      7.525593  1030A      7.540370  
    1031A      7.545881  1032A      7.595190  1033A      7.606932  
    1034A      7.615873  1035A      7.629836  1036A      7.636590  
    1037A      7.651094  1038A      7.682518  1039A      7.717100  
    1040A      7.744486  1041A      7.767398  1042A      7.829419  
    1043A      7.842399  1044A      7.896774  1045A      7.924914  
    1046A      7.939716  1047A      7.952444  1048A      7.965127  
    1049A      7.987092  1050A      7.994901  1051A      8.036678  
    1052A      8.065048  1053A      8.159982  1054A      8.187189  
    1055A      8.218731  1056A      8.259702  1057A      8.285184  
    1058A      8.356500  1059A      8.403913  1060A      8.502580  
    1061A      8.550651  1062A      8.625030  1063A      8.698218  
    1064A      8.874286  1065A     16.004431  1066A     16.212997  
    1067A     16.493409  1068A     16.666778  1069A     17.081062  
    1070A     17.284808  1071A     17.599888  1072A     18.103420  
    1073A     18.569357  1074A     18.877741  1075A     19.304890  
    1076A     19.617408  1077A     20.130587  1078A     20.159212  
    1079A     20.570387  1080A     20.925280  1081A     21.787159  

    Final Occupation by Irrep:
              A 
    DOCC [    64 ]

  @DF-RHF Final Energy:  -886.37363463458394

   => Energetics <=

    Nuclear Repulsion Energy =           1323.5096367906169235
    One-Electron Energy =               -3844.6706883321039641
    Two-Electron Energy =                1634.7874169069027630
    Total Energy =                       -886.3736346345840502

Computation Completed

*** tstop() called on node142.bme.utexas.edu at Sat Nov  7 04:16:47 2020
Module time:
	user time   =    2091.36 seconds =      34.86 minutes
	system time =     170.13 seconds =       2.84 minutes
	total time  =        415 seconds =       6.92 minutes
Total time:
	user time   =    2091.36 seconds =      34.86 minutes
	system time =     170.13 seconds =       2.84 minutes
	total time  =        415 seconds =       6.92 minutes
   => Loading Basis Set <=

    Name: (AUG-CC-PVTZ AUX)
    Role: RIFIT
    Keyword: DF_BASIS_MP2
    atoms 1-5   entry O          line   264 file /home/xy3866/psi4conda/share/psi4/basis/aug-cc-pvtz-ri.gbs 
    atoms 6-8   entry N          line   206 file /home/xy3866/psi4conda/share/psi4/basis/aug-cc-pvtz-ri.gbs 
    atoms 9-17  entry C          line   148 file /home/xy3866/psi4conda/share/psi4/basis/aug-cc-pvtz-ri.gbs 
    atoms 18-30 entry H          line    30 file /home/xy3866/psi4conda/share/psi4/basis/aug-cc-pvtz-ri.gbs 


*** tstart() called on node142.bme.utexas.edu
*** at Sat Nov  7 04:16:47 2020


  //>>>>>>>>>>>>>>>>>>>>>>>>>>>>>>>>>>>//
  //               DFMP2               //
  //<<<<<<<<<<<<<<<<<<<<<<<<<<<<<<<<<<<//

	 --------------------------------------------------------
	                          DF-MP2                         
	      2nd-Order Density-Fitted Moller-Plesset Theory     
	              RMP2 Wavefunction,   8 Threads             
	                                                         
	        Rob Parrish, Justin Turney, Andy Simmonett,      
	           Ed Hohenstein, and C. David Sherrill          
	 --------------------------------------------------------

   => Auxiliary Basis Set <=

  Basis Set: (AUG-CC-PVTZ AUX)
    Blend: AUG-CC-PVTZ-RI
    Number of shells: 658
    Number of basis function: 2400
    Number of Cartesian functions: 3027
    Spherical Harmonics?: true
    Max angular momentum: 4

	 --------------------------------------------------------
	                 NBF =  1081, NAUX =  2400
	 --------------------------------------------------------
	   CLASS    FOCC     OCC    AOCC    AVIR     VIR    FVIR
	   PAIRS       0      64      64    1017    1017       0
	 --------------------------------------------------------

  DFHelper Memory: AOs need 18.208 GiB; user supplied 22.352 GiB. Using in-core AOs.


Traceback (most recent call last):
  File "/home/xy3866/psi4conda/bin/psi4", line 287, in <module>
    exec(content)
  File "<string>", line 59, in <module>
  File "/home/xy3866/psi4conda/lib//python3.7/site-packages/psi4/driver/driver.py", line 816, in properties
    return driver_cbs._cbs_gufunc(properties, lowername, ptype='properties', **kwargs)
  File "/home/xy3866/psi4conda/lib//python3.7/site-packages/psi4/driver/driver_cbs.py", line 1949, in _cbs_gufunc
    ptype_value, wfn = func(method_name, return_wfn=True, molecule=molecule, **kwargs)
  File "/home/xy3866/psi4conda/lib//python3.7/site-packages/psi4/driver/driver.py", line 826, in properties
    wfn = procedures['properties'][lowername](lowername, **kwargs)
  File "/home/xy3866/psi4conda/lib//python3.7/site-packages/psi4/driver/procrouting/proc.py", line 194, in select_mp2_property
    return func(name, **kwargs)
  File "/home/xy3866/psi4conda/lib//python3.7/site-packages/psi4/driver/procrouting/proc.py", line 2701, in run_dfmp2_property
    grad = dfmp2_wfn.compute_gradient()

RuntimeError: 
Fatal Error: DFHelper:get_tensor_AO: read error
Error occurred in file: /scratch/psilocaluser/conda-builds/psi4-multiout_1557940846948/work/psi4/src/psi4/lib3index/dfhelper.cc on line: 835
The most recent 5 function calls were:

psi::DFHelper::get_tensor_AO(std::__cxx11::basic_string<char, std::char_traits<char>, std::allocator<char> >, double*, unsigned long, unsigned long)
psi::DFHelper::grab_AO(unsigned long, unsigned long, double*)
psi::DFHelper::build_JK(std::vector<std::shared_ptr<psi::Matrix>, std::allocator<std::shared_ptr<psi::Matrix> > >, std::vector<std::shared_ptr<psi::Matrix>, std::allocator<std::shared_ptr<psi::Matrix> > >, std::vector<std::shared_ptr<psi::Matrix>, std::allocator<std::shared_ptr<psi::Matrix> > >, std::vector<std::shared_ptr<psi::Matrix>, std::allocator<std::shared_ptr<psi::Matrix> > >, std::vector<std::shared_ptr<psi::Matrix>, std::allocator<std::shared_ptr<psi::Matrix> > >, unsigned long, bool, bool, bool, bool)



Printing out the relevant lines from the Psithon --> Python processed input file:
    no_reorient 
    symmetry c1 
    """)
    core.IO.set_default_namespace("")
    core.set_global_option("PROPERTIES_ORIGIN", ["COM"])
--> properties('MP2/aug-cc-pvtz', properties = ['dipole'])

    Psi4 stopped on: Saturday, 07 November 2020 04:36AM
    Psi4 wall time for execution: 0:26:13.28

*** Psi4 encountered an error. Buy a developer more coffee!
*** Resources and help at github.com/psi4/psi4.
