
    -----------------------------------------------------------------------
          Psi4: An Open-Source Ab Initio Electronic Structure Package
                               Psi4 1.4a3.dev225 

                         Git: Rev {master} 7105e37 


    D. G. A. Smith, L. A. Burns, A. C. Simmonett, R. M. Parrish,
    M. C. Schieber, R. Galvelis, P. Kraus, H. Kruse, R. Di Remigio,
    A. Alenaizan, A. M. James, S. Lehtola, J. P. Misiewicz, M. Scheurer,
    R. A. Shaw, J. B. Schriber, Y. Xie, Z. L. Glick, D. A. Sirianni,
    J. S. O'Brien, J. M. Waldrop, A. Kumar, E. G. Hohenstein,
    B. P. Pritchard, B. R. Brooks, H. F. Schaefer III, A. Yu. Sokolov,
    K. Patkowski, A. E. DePrince III, U. Bozkaya, R. A. King,
    F. A. Evangelista, J. M. Turney, T. D. Crawford, C. D. Sherrill,
    J. Chem. Phys. 152(18) 184108 (2020). https://doi.org/10.1063/5.0006002

                            Additional Code Authors
    E. T. Seidl, C. L. Janssen, E. F. Valeev, M. L. Leininger,
    J. F. Gonthier, R. M. Richard, H. R. McAlexander, M. Saitow, X. Wang,
    P. Verma, and M. H. Lechner

             Previous Authors, Complete List of Code Contributors,
                       and Citations for Specific Modules
    https://github.com/psi4/psi4/blob/master/codemeta.json
    https://github.com/psi4/psi4/graphs/contributors
    http://psicode.org/psi4manual/master/introduction.html#citing-psifour

    -----------------------------------------------------------------------


    Psi4 started on: Sunday, 21 March 2021 04:45AM

    Process ID: 172940
    Host:       c445-043.stampede2.tacc.utexas.edu
    PSIDATADIR: /home1/07844/xy3866/miniconda3/envs/p4env/share/psi4
    Memory:     500.0 MiB
    Threads:    32
    
  ==> Input File <==

--------------------------------------------------------------------------
#psi4
#
memory 32 gb

molecule  {
0 1
  O       -1.3191770     0.6538360    -1.0992360
  O       -1.5735610    -2.4640850     0.5135810
  O       -3.5606630    -1.0699430    -0.4600060
  O       -1.4399290     3.1254620     0.1265180
  O        1.1065530    -2.3833650     0.0076020
  N        0.7686360    -0.1579440    -0.3706350
  N        2.9363770    -0.9938720     0.1460080
  N        4.7058880     0.4431110     0.3611260
  C       -1.3768610    -1.0680440     0.5552780
  C       -2.7379840    -0.3746360     0.4578480
  C       -0.6377490    -0.5042940    -0.6790150
  C       -2.3707440     0.9655450    -0.1585060
  C       -1.8992030     1.9895750     0.8571380
  C        1.2309690     1.1190800    -0.4442230
  C        1.5985197    -1.2316265    -0.0629978
  C        2.5474650     1.3753690    -0.1998620
  C        3.3802090     0.2523040     0.0808410
  H       -0.8441360    -0.7686950     1.4698480
  H       -3.2257400    -0.2778790     1.4400230
  H       -0.6227070    -1.2428120    -1.4883720
  H       -3.1941750     1.3785730    -0.7472070
  H       -1.0952130     1.5703990     1.4802000
  H       -2.7410530     2.2466610     1.5166010
  H       -0.6710550    -2.8260740     0.3542250
  H       -3.3063470    -2.0105220    -0.3629290
  H        0.4929290     1.8778260    -0.6840360
  H       -1.2098800     3.8154810     0.7720340
  H        2.9334840     2.3875570    -0.2389120
  H        5.1589650     1.2712730    -0.0008400
  H        5.2635310    -0.4031270     0.3606700
units angstrom
no_reorient  #important for SAPT in psi4, default
symmetry c1  #important for SAPT in psi4, default
}

set PROPERTIES_ORIGIN ["COM"]
properties('MP2/aug-cc-pvtz', properties = ['dipole'])
--------------------------------------------------------------------------

  Memory set to  29.802 GiB by Python driver.
    SCF Algorithm Type (re)set to DF.

*** tstart() called on c445-043.stampede2.tacc.utexas.edu
*** at Sun Mar 21 04:45:48 2021

   => Loading Basis Set <=

    Name: AUG-CC-PVTZ
    Role: ORBITAL
    Keyword: BASIS
    atoms 1-5   entry O          line   331 file /home1/07844/xy3866/miniconda3/envs/p4env/share/psi4/basis/aug-cc-pvtz.gbs 
    atoms 6-8   entry N          line   285 file /home1/07844/xy3866/miniconda3/envs/p4env/share/psi4/basis/aug-cc-pvtz.gbs 
    atoms 9-17  entry C          line   239 file /home1/07844/xy3866/miniconda3/envs/p4env/share/psi4/basis/aug-cc-pvtz.gbs 
    atoms 18-30 entry H          line    40 file /home1/07844/xy3866/miniconda3/envs/p4env/share/psi4/basis/aug-cc-pvtz.gbs 


         ---------------------------------------------------------
                                   SCF
               by Justin Turney, Rob Parrish, Andy Simmonett
                          and Daniel G. A. Smith
                              RHF Reference
                       32 Threads,  30517 MiB Core
         ---------------------------------------------------------

  ==> Geometry <==

    Molecular point group: c1
    Full point group: C1

    Geometry (in Angstrom), charge = 0, multiplicity = 1:

       Center              X                  Y                   Z               Mass       
    ------------   -----------------  -----------------  -----------------  -----------------
         O           -1.331331810181     0.681685636097    -1.083237505422    15.994914619570
         O           -1.585715810181    -2.436235363903     0.529579494578    15.994914619570
         O           -3.572817810181    -1.042093363903    -0.444007505422    15.994914619570
         O           -1.452083810181     3.153311636097     0.142516494578    15.994914619570
         O            1.094398189819    -2.355515363903     0.023600494578    15.994914619570
         N            0.756481189819    -0.130094363903    -0.354636505422    14.003074004430
         N            2.924222189819    -0.966022363903     0.162006494578    14.003074004430
         N            4.693733189819     0.470960636097     0.377124494578    14.003074004430
         C           -1.389015810181    -1.040194363903     0.571276494578    12.000000000000
         C           -2.750138810181    -0.346786363903     0.473846494578    12.000000000000
         C           -0.649903810181    -0.476444363903    -0.663016505422    12.000000000000
         C           -2.382898810181     0.993394636097    -0.142507505422    12.000000000000
         C           -1.911357810181     2.017424636097     0.873136494578    12.000000000000
         C            1.218814189819     1.146929636097    -0.428224505422    12.000000000000
         C            1.586364889819    -1.203776863903    -0.046999305422    12.000000000000
         C            2.535310189819     1.403218636097    -0.183863505422    12.000000000000
         C            3.368054189819     0.280153636097     0.096839494578    12.000000000000
         H           -0.856290810181    -0.740845363903     1.485846494578     1.007825032230
         H           -3.237894810181    -0.250029363903     1.456021494578     1.007825032230
         H           -0.634861810181    -1.214962363903    -1.472373505422     1.007825032230
         H           -3.206329810181     1.406422636097    -0.731208505422     1.007825032230
         H           -1.107367810181     1.598248636097     1.496198494578     1.007825032230
         H           -2.753207810181     2.274510636097     1.532599494578     1.007825032230
         H           -0.683209810181    -2.798224363903     0.370223494578     1.007825032230
         H           -3.318501810181    -1.982672363903    -0.346930505422     1.007825032230
         H            0.480774189819     1.905675636097    -0.668037505422     1.007825032230
         H           -1.222034810181     3.843330636097     0.788032494578     1.007825032230
         H            2.921329189819     2.415406636097    -0.222913505422     1.007825032230
         H            5.146810189819     1.299122636097     0.015158494578     1.007825032230
         H            5.251376189819    -0.375277363903     0.376668494578     1.007825032230

  Running in c1 symmetry.

  Rotational constants: A =      0.02644  B =      0.01179  C =      0.00873 [cm^-1]
  Rotational constants: A =    792.67565  B =    353.51748  C =    261.70492 [MHz]
  Nuclear repulsion = 1334.835516424536308

  Charge       = 0
  Multiplicity = 1
  Electrons    = 128
  Nalpha       = 64
  Nbeta        = 64

  ==> Algorithm <==

  SCF Algorithm Type is DF.
  DIIS enabled.
  MOM disabled.
  Fractional occupation disabled.
  Guess Type is SAD.
  Energy threshold   = 1.00e-10
  Density threshold  = 1.00e-10
  Integral threshold = 1.00e-12

  ==> Primary Basis <==

  Basis Set: AUG-CC-PVTZ
    Blend: AUG-CC-PVTZ
    Number of shells: 355
    Number of basis functions: 1081
    Number of Cartesian functions: 1260
    Spherical Harmonics?: true
    Max angular momentum: 3

   => Loading Basis Set <=

    Name: (AUG-CC-PVTZ AUX)
    Role: JKFIT
    Keyword: DF_BASIS_SCF
    atoms 1-5   entry O          line   286 file /home1/07844/xy3866/miniconda3/envs/p4env/share/psi4/basis/aug-cc-pvtz-jkfit.gbs 
    atoms 6-8   entry N          line   224 file /home1/07844/xy3866/miniconda3/envs/p4env/share/psi4/basis/aug-cc-pvtz-jkfit.gbs 
    atoms 9-17  entry C          line   162 file /home1/07844/xy3866/miniconda3/envs/p4env/share/psi4/basis/aug-cc-pvtz-jkfit.gbs 
    atoms 18-30 entry H          line    70 file /home1/07844/xy3866/miniconda3/envs/p4env/share/psi4/basis/aug-cc-pvtz-jkfit.gbs 

  ==> Integral Setup <==

  DFHelper Memory: AOs need 17.307 GiB; user supplied 22.352 GiB. Using in-core AOs.

  ==> MemDFJK: Density-Fitted J/K Matrices <==

    J tasked:                   Yes
    K tasked:                   Yes
    wK tasked:                   No
    OpenMP threads:              32
    Memory [MiB]:             22888
    Algorithm:                 Core
    Schwarz Cutoff:           1E-12
    Mask sparsity (%):      18.6811
    Fitting Condition:        1E-10

   => Auxiliary Basis Set <=

  Basis Set: (AUG-CC-PVTZ AUX)
    Blend: AUG-CC-PVTZ-JKFIT
    Number of shells: 692
    Number of basis functions: 2366
    Number of Cartesian functions: 2942
    Spherical Harmonics?: true
    Max angular momentum: 4

  Minimum eigenvalue in the overlap matrix is 9.5238112927E-07.
  Reciprocal condition number of the overlap matrix is 3.8838161879E-08.
    Using symmetric orthogonalization.

  ==> Pre-Iterations <==

  SCF Guess: Superposition of Atomic Densities via on-the-fly atomic UHF (no occupation information).

   -------------------------
    Irrep   Nso     Nmo    
   -------------------------
     A       1081    1081 
   -------------------------
    Total    1081    1081
   -------------------------

  ==> Iterations <==

                           Total Energy        Delta E     RMS |[F,P]|

   @DF-RHF iter SAD:  -886.00367212008678   -8.86004e+02   0.00000e+00 
   @DF-RHF iter   1:  -885.89521873373781    1.08453e-01   9.14374e-04 DIIS
   @DF-RHF iter   2:  -886.26407864940484   -3.68860e-01   5.05267e-04 DIIS
   @DF-RHF iter   3:  -886.36474942636505   -1.00671e-01   1.04144e-04 DIIS
   @DF-RHF iter   4:  -886.37191027032941   -7.16084e-03   4.23435e-05 DIIS
   @DF-RHF iter   5:  -886.37301597328360   -1.10570e-03   9.23766e-06 DIIS
   @DF-RHF iter   6:  -886.37311785843644   -1.01885e-04   4.35515e-06 DIIS
   @DF-RHF iter   7:  -886.37314178721226   -2.39288e-05   1.59112e-06 DIIS
   @DF-RHF iter   8:  -886.37314690692426   -5.11971e-06   6.20067e-07 DIIS
   @DF-RHF iter   9:  -886.37314763750533   -7.30581e-07   2.37888e-07 DIIS
   @DF-RHF iter  10:  -886.37314774403467   -1.06529e-07   9.31609e-08 DIIS
   @DF-RHF iter  11:  -886.37314775924801   -1.52133e-08   3.36581e-08 DIIS
   @DF-RHF iter  12:  -886.37314776082860   -1.58059e-09   1.32476e-08 DIIS
   @DF-RHF iter  13:  -886.37314776106803   -2.39424e-10   3.69573e-09 DIIS
   @DF-RHF iter  14:  -886.37314776108553   -1.75078e-11   1.48628e-09 DIIS
   @DF-RHF iter  15:  -886.37314776108963   -4.09273e-12   6.83655e-10 DIIS
   @DF-RHF iter  16:  -886.37314776109019   -5.68434e-13   2.70402e-10 DIIS
   @DF-RHF iter  17:  -886.37314776108963    5.68434e-13   1.35505e-10 DIIS
   @DF-RHF iter  18:  -886.37314776109008   -4.54747e-13   5.05513e-11 DIIS
  Energy and wave function converged.


  ==> Post-Iterations <==

    Orbital Energies [Eh]
    ---------------------

    Doubly Occupied:                                                      

       1A    -20.587170     2A    -20.582199     3A    -20.559053  
       4A    -20.556662     5A    -20.517291     6A    -15.635303  
       7A    -15.599360     8A    -15.552651     9A    -11.385131  
      10A    -11.357141    11A    -11.340682    12A    -11.325938  
      13A    -11.304025    14A    -11.298428    15A    -11.297433  
      16A    -11.293857    17A    -11.248319    18A     -1.430078  
      19A     -1.391814    20A     -1.382999    21A     -1.375661  
      22A     -1.346467    23A     -1.302041    24A     -1.273460  
      25A     -1.179457    26A     -1.080549    27A     -1.068578  
      28A     -1.018608    29A     -0.937185    30A     -0.910998  
      31A     -0.875807    32A     -0.830328    33A     -0.812943  
      34A     -0.766995    35A     -0.751685    36A     -0.735691  
      37A     -0.721776    38A     -0.708523    39A     -0.703638  
      40A     -0.684940    41A     -0.675721    42A     -0.654160  
      43A     -0.647818    44A     -0.634232    45A     -0.620673  
      46A     -0.615201    47A     -0.608128    48A     -0.591031  
      49A     -0.577420    50A     -0.565363    51A     -0.556030  
      52A     -0.548539    53A     -0.536605    54A     -0.530783  
      55A     -0.493626    56A     -0.481143    57A     -0.474091  
      58A     -0.463582    59A     -0.455738    60A     -0.453306  
      61A     -0.442413    62A     -0.431624    63A     -0.391583  
      64A     -0.349387  

    Virtual:                                                              

      65A      0.014365    66A      0.022004    67A      0.031775  
      68A      0.037678    69A      0.041337    70A      0.044789  
      71A      0.052837    72A      0.053732    73A      0.055332  
      74A      0.064442    75A      0.065388    76A      0.072585  
      77A      0.082577    78A      0.084044    79A      0.086128  
      80A      0.089647    81A      0.099585    82A      0.102795  
      83A      0.106410    84A      0.109467    85A      0.111782  
      86A      0.112193    87A      0.117678    88A      0.119105  
      89A      0.124493    90A      0.127304    91A      0.129092  
      92A      0.134202    93A      0.138082    94A      0.139666  
      95A      0.144403    96A      0.148967    97A      0.151781  
      98A      0.154593    99A      0.156859   100A      0.161458  
     101A      0.164176   102A      0.164809   103A      0.169683  
     104A      0.172123   105A      0.177077   106A      0.179225  
     107A      0.181476   108A      0.184358   109A      0.198134  
     110A      0.199869   111A      0.204440   112A      0.205606  
     113A      0.211165   114A      0.212047   115A      0.218951  
     116A      0.223798   117A      0.229275   118A      0.234055  
     119A      0.237664   120A      0.241171   121A      0.247113  
     122A      0.248915   123A      0.251118   124A      0.254106  
     125A      0.255300   126A      0.260726   127A      0.265089  
     128A      0.268430   129A      0.273157   130A      0.275729  
     131A      0.277787   132A      0.282019   133A      0.283688  
     134A      0.285613   135A      0.291726   136A      0.293072  
     137A      0.298477   138A      0.302030   139A      0.302946  
     140A      0.307024   141A      0.311004   142A      0.314407  
     143A      0.316849   144A      0.317883   145A      0.323376  
     146A      0.327471   147A      0.329297   148A      0.335389  
     149A      0.337699   150A      0.341400   151A      0.342327  
     152A      0.347065   153A      0.349024   154A      0.355492  
     155A      0.359501   156A      0.364354   157A      0.368043  
     158A      0.370073   159A      0.375682   160A      0.380598  
     161A      0.381955   162A      0.386729   163A      0.389233  
     164A      0.391245   165A      0.392667   166A      0.397378  
     167A      0.402040   168A      0.404094   169A      0.406387  
     170A      0.407759   171A      0.410801   172A      0.419791  
     173A      0.422904   174A      0.425834   175A      0.429127  
     176A      0.432067   177A      0.437690   178A      0.442378  
     179A      0.444000   180A      0.452812   181A      0.455113  
     182A      0.457993   183A      0.462677   184A      0.464933  
     185A      0.465332   186A      0.467876   187A      0.470126  
     188A      0.472445   189A      0.475880   190A      0.481182  
     191A      0.483411   192A      0.488247   193A      0.491695  
     194A      0.493655   195A      0.497441   196A      0.504495  
     197A      0.508328   198A      0.511265   199A      0.514136  
     200A      0.517125   201A      0.519265   202A      0.522468  
     203A      0.526810   204A      0.527696   205A      0.536669  
     206A      0.537996   207A      0.538758   208A      0.542373  
     209A      0.545371   210A      0.548852   211A      0.551564  
     212A      0.552481   213A      0.557407   214A      0.565306  
     215A      0.566107   216A      0.570479   217A      0.575236  
     218A      0.576417   219A      0.580412   220A      0.588130  
     221A      0.589437   222A      0.596211   223A      0.598561  
     224A      0.606438   225A      0.608510   226A      0.610048  
     227A      0.617461   228A      0.619464   229A      0.625361  
     230A      0.627989   231A      0.630618   232A      0.633910  
     233A      0.638562   234A      0.643791   235A      0.648633  
     236A      0.652683   237A      0.655026   238A      0.661704  
     239A      0.663410   240A      0.668833   241A      0.671130  
     242A      0.672117   243A      0.680700   244A      0.682858  
     245A      0.687353   246A      0.692691   247A      0.695970  
     248A      0.698739   249A      0.700588   250A      0.705953  
     251A      0.708253   252A      0.713491   253A      0.717928  
     254A      0.721531   255A      0.731502   256A      0.734901  
     257A      0.743125   258A      0.748365   259A      0.749474  
     260A      0.753994   261A      0.757884   262A      0.759346  
     263A      0.765636   264A      0.767832   265A      0.773167  
     266A      0.779544   267A      0.787787   268A      0.791238  
     269A      0.797877   270A      0.804746   271A      0.808913  
     272A      0.812490   273A      0.816680   274A      0.820399  
     275A      0.829436   276A      0.839028   277A      0.841430  
     278A      0.846220   279A      0.850895   280A      0.854941  
     281A      0.856284   282A      0.862697   283A      0.866390  
     284A      0.868689   285A      0.873891   286A      0.877019  
     287A      0.884105   288A      0.887921   289A      0.895655  
     290A      0.897559   291A      0.902329   292A      0.906247  
     293A      0.912056   294A      0.919644   295A      0.921949  
     296A      0.924417   297A      0.933526   298A      0.937329  
     299A      0.940115   300A      0.944820   301A      0.945968  
     302A      0.950876   303A      0.954473   304A      0.961499  
     305A      0.962561   306A      0.969628   307A      0.975465  
     308A      0.979358   309A      0.981471   310A      0.987986  
     311A      0.992640   312A      0.997204   313A      0.998996  
     314A      1.003720   315A      1.007976   316A      1.011293  
     317A      1.017103   318A      1.022062   319A      1.023929  
     320A      1.026764   321A      1.028883   322A      1.038447  
     323A      1.039317   324A      1.042893   325A      1.048382  
     326A      1.054131   327A      1.056802   328A      1.062035  
     329A      1.064166   330A      1.068898   331A      1.071625  
     332A      1.072815   333A      1.083791   334A      1.088081  
     335A      1.090571   336A      1.091389   337A      1.098858  
     338A      1.099353   339A      1.101285   340A      1.103956  
     341A      1.113968   342A      1.118198   343A      1.124593  
     344A      1.128517   345A      1.133687   346A      1.134421  
     347A      1.143540   348A      1.148168   349A      1.150320  
     350A      1.150879   351A      1.155960   352A      1.161145  
     353A      1.164151   354A      1.171164   355A      1.174540  
     356A      1.178007   357A      1.183741   358A      1.186893  
     359A      1.187940   360A      1.194273   361A      1.199214  
     362A      1.206610   363A      1.212174   364A      1.214791  
     365A      1.217762   366A      1.222550   367A      1.229163  
     368A      1.231132   369A      1.234076   370A      1.239799  
     371A      1.244134   372A      1.247307   373A      1.255989  
     374A      1.262308   375A      1.264896   376A      1.266167  
     377A      1.272961   378A      1.283600   379A      1.286143  
     380A      1.293043   381A      1.296640   382A      1.299076  
     383A      1.302387   384A      1.306136   385A      1.310513  
     386A      1.317138   387A      1.318267   388A      1.325152  
     389A      1.335208   390A      1.342004   391A      1.348615  
     392A      1.352543   393A      1.360215   394A      1.361882  
     395A      1.366992   396A      1.369526   397A      1.378133  
     398A      1.391308   399A      1.391755   400A      1.395292  
     401A      1.400268   402A      1.402158   403A      1.408660  
     404A      1.415058   405A      1.417041   406A      1.430322  
     407A      1.434138   408A      1.437580   409A      1.446595  
     410A      1.448066   411A      1.451408   412A      1.457797  
     413A      1.463063   414A      1.470856   415A      1.479033  
     416A      1.481570   417A      1.487026   418A      1.489201  
     419A      1.497859   420A      1.500536   421A      1.501343  
     422A      1.506200   423A      1.513194   424A      1.518962  
     425A      1.519334   426A      1.520944   427A      1.535144  
     428A      1.542446   429A      1.548785   430A      1.549497  
     431A      1.559090   432A      1.562995   433A      1.566875  
     434A      1.571286   435A      1.578631   436A      1.581150  
     437A      1.587223   438A      1.590825   439A      1.592906  
     440A      1.603299   441A      1.608273   442A      1.614776  
     443A      1.626838   444A      1.634351   445A      1.637732  
     446A      1.641159   447A      1.647152   448A      1.648796  
     449A      1.653101   450A      1.655103   451A      1.660605  
     452A      1.664946   453A      1.669994   454A      1.676774  
     455A      1.683746   456A      1.687604   457A      1.694665  
     458A      1.704068   459A      1.707743   460A      1.714813  
     461A      1.718026   462A      1.723333   463A      1.726900  
     464A      1.728666   465A      1.738983   466A      1.742182  
     467A      1.748128   468A      1.752411   469A      1.762473  
     470A      1.767262   471A      1.769544   472A      1.777692  
     473A      1.785828   474A      1.789071   475A      1.795123  
     476A      1.798475   477A      1.800328   478A      1.805305  
     479A      1.814396   480A      1.819844   481A      1.830723  
     482A      1.833947   483A      1.837162   484A      1.845064  
     485A      1.851435   486A      1.852768   487A      1.861018  
     488A      1.864663   489A      1.867469   490A      1.877503  
     491A      1.883261   492A      1.890483   493A      1.894344  
     494A      1.907643   495A      1.908857   496A      1.912145  
     497A      1.920894   498A      1.929829   499A      1.931591  
     500A      1.944549   501A      1.950524   502A      1.959141  
     503A      1.962138   504A      1.964267   505A      1.969952  
     506A      1.972495   507A      1.980629   508A      1.986815  
     509A      1.989174   510A      1.993165   511A      2.004125  
     512A      2.005674   513A      2.018658   514A      2.024496  
     515A      2.028499   516A      2.033667   517A      2.038943  
     518A      2.045260   519A      2.052520   520A      2.059008  
     521A      2.062419   522A      2.068915   523A      2.070175  
     524A      2.080045   525A      2.082813   526A      2.085090  
     527A      2.089544   528A      2.099542   529A      2.107603  
     530A      2.116902   531A      2.121387   532A      2.131949  
     533A      2.137724   534A      2.145189   535A      2.145917  
     536A      2.155770   537A      2.162317   538A      2.165152  
     539A      2.167728   540A      2.172613   541A      2.186776  
     542A      2.189718   543A      2.196588   544A      2.201221  
     545A      2.210234   546A      2.213397   547A      2.234845  
     548A      2.244664   549A      2.247951   550A      2.254233  
     551A      2.257970   552A      2.264386   553A      2.268315  
     554A      2.276259   555A      2.283383   556A      2.288598  
     557A      2.301281   558A      2.307422   559A      2.312333  
     560A      2.320843   561A      2.331289   562A      2.339278  
     563A      2.351232   564A      2.358634   565A      2.358938  
     566A      2.367072   567A      2.374132   568A      2.379672  
     569A      2.388069   570A      2.404090   571A      2.418093  
     572A      2.423344   573A      2.430558   574A      2.435933  
     575A      2.445279   576A      2.452148   577A      2.460435  
     578A      2.464710   579A      2.472138   580A      2.480149  
     581A      2.482535   582A      2.493484   583A      2.500849  
     584A      2.512584   585A      2.528497   586A      2.534725  
     587A      2.546503   588A      2.554340   589A      2.560748  
     590A      2.566981   591A      2.579509   592A      2.581226  
     593A      2.595329   594A      2.599663   595A      2.602829  
     596A      2.613309   597A      2.623011   598A      2.626235  
     599A      2.637549   600A      2.643691   601A      2.647424  
     602A      2.659324   603A      2.660919   604A      2.672785  
     605A      2.685164   606A      2.691871   607A      2.702402  
     608A      2.716983   609A      2.723465   610A      2.724901  
     611A      2.735425   612A      2.744916   613A      2.752314  
     614A      2.759344   615A      2.762843   616A      2.773301  
     617A      2.779057   618A      2.793161   619A      2.799324  
     620A      2.802989   621A      2.818921   622A      2.825542  
     623A      2.828647   624A      2.848662   625A      2.850635  
     626A      2.864994   627A      2.868550   628A      2.884899  
     629A      2.893235   630A      2.894244   631A      2.907327  
     632A      2.912412   633A      2.915760   634A      2.928526  
     635A      2.944571   636A      2.948529   637A      2.967533  
     638A      2.983719   639A      2.986647   640A      2.991223  
     641A      2.999628   642A      3.001509   643A      3.011785  
     644A      3.018631   645A      3.036817   646A      3.041742  
     647A      3.044595   648A      3.054165   649A      3.069078  
     650A      3.074830   651A      3.084348   652A      3.095717  
     653A      3.098195   654A      3.109538   655A      3.119108  
     656A      3.128069   657A      3.141769   658A      3.145047  
     659A      3.154643   660A      3.163267   661A      3.174371  
     662A      3.183453   663A      3.188194   664A      3.206145  
     665A      3.214082   666A      3.220393   667A      3.239030  
     668A      3.247244   669A      3.255472   670A      3.269154  
     671A      3.278401   672A      3.296513   673A      3.302840  
     674A      3.306419   675A      3.318899   676A      3.325535  
     677A      3.339338   678A      3.346360   679A      3.354408  
     680A      3.367774   681A      3.375841   682A      3.384622  
     683A      3.394161   684A      3.408681   685A      3.410622  
     686A      3.429652   687A      3.440700   688A      3.456346  
     689A      3.479272   690A      3.480959   691A      3.488338  
     692A      3.502901   693A      3.520919   694A      3.527211  
     695A      3.538494   696A      3.545791   697A      3.558521  
     698A      3.563632   699A      3.573254   700A      3.599830  
     701A      3.601130   702A      3.614801   703A      3.634065  
     704A      3.640355   705A      3.653147   706A      3.659440  
     707A      3.674326   708A      3.693722   709A      3.703551  
     710A      3.705037   711A      3.726463   712A      3.730390  
     713A      3.739219   714A      3.746325   715A      3.759237  
     716A      3.764427   717A      3.778890   718A      3.782649  
     719A      3.789218   720A      3.798186   721A      3.800083  
     722A      3.809497   723A      3.832113   724A      3.836741  
     725A      3.843440   726A      3.851185   727A      3.854981  
     728A      3.867564   729A      3.870164   730A      3.880615  
     731A      3.895776   732A      3.899248   733A      3.911944  
     734A      3.925700   735A      3.934094   736A      3.945136  
     737A      3.953381   738A      3.959770   739A      3.965996  
     740A      3.967713   741A      3.978758   742A      3.984719  
     743A      3.996617   744A      4.011066   745A      4.015745  
     746A      4.020324   747A      4.032988   748A      4.041432  
     749A      4.047194   750A      4.056801   751A      4.062597  
     752A      4.071201   753A      4.078714   754A      4.080691  
     755A      4.085650   756A      4.088016   757A      4.100653  
     758A      4.119510   759A      4.122826   760A      4.140755  
     761A      4.144678   762A      4.149809   763A      4.157738  
     764A      4.161652   765A      4.168190   766A      4.172147  
     767A      4.185529   768A      4.192428   769A      4.193941  
     770A      4.204496   771A      4.208199   772A      4.229994  
     773A      4.234251   774A      4.246580   775A      4.254404  
     776A      4.260639   777A      4.266399   778A      4.274401  
     779A      4.283788   780A      4.293468   781A      4.297187  
     782A      4.300956   783A      4.306524   784A      4.312779  
     785A      4.315027   786A      4.332437   787A      4.339617  
     788A      4.354833   789A      4.359459   790A      4.370912  
     791A      4.375691   792A      4.378255   793A      4.385150  
     794A      4.394241   795A      4.403704   796A      4.406705  
     797A      4.409257   798A      4.411690   799A      4.427096  
     800A      4.434098   801A      4.436344   802A      4.445959  
     803A      4.450132   804A      4.457283   805A      4.473761  
     806A      4.482558   807A      4.492292   808A      4.498515  
     809A      4.502534   810A      4.505966   811A      4.511108  
     812A      4.525040   813A      4.534714   814A      4.544592  
     815A      4.552441   816A      4.567752   817A      4.577796  
     818A      4.584435   819A      4.601461   820A      4.602867  
     821A      4.614239   822A      4.617525   823A      4.634046  
     824A      4.637167   825A      4.647933   826A      4.668536  
     827A      4.670271   828A      4.684847   829A      4.687586  
     830A      4.707697   831A      4.712494   832A      4.721423  
     833A      4.723315   834A      4.728308   835A      4.737541  
     836A      4.751164   837A      4.754046   838A      4.761065  
     839A      4.772292   840A      4.781809   841A      4.794196  
     842A      4.807916   843A      4.817720   844A      4.825167  
     845A      4.834106   846A      4.842627   847A      4.845578  
     848A      4.852012   849A      4.864357   850A      4.883240  
     851A      4.900583   852A      4.908040   853A      4.922085  
     854A      4.934225   855A      4.951560   856A      4.953905  
     857A      4.960557   858A      4.969796   859A      4.973995  
     860A      4.979253   861A      4.988928   862A      5.004827  
     863A      5.020007   864A      5.021417   865A      5.040515  
     866A      5.050970   867A      5.060341   868A      5.065675  
     869A      5.090112   870A      5.097582   871A      5.110145  
     872A      5.113269   873A      5.123215   874A      5.134355  
     875A      5.136982   876A      5.153688   877A      5.165034  
     878A      5.171860   879A      5.177999   880A      5.195707  
     881A      5.209107   882A      5.226479   883A      5.244882  
     884A      5.250013   885A      5.263233   886A      5.270316  
     887A      5.284641   888A      5.294449   889A      5.304841  
     890A      5.307320   891A      5.313678   892A      5.326020  
     893A      5.338345   894A      5.343308   895A      5.348329  
     896A      5.353045   897A      5.363561   898A      5.379496  
     899A      5.388222   900A      5.396444   901A      5.406316  
     902A      5.416822   903A      5.422562   904A      5.434877  
     905A      5.440807   906A      5.445783   907A      5.462299  
     908A      5.472237   909A      5.481229   910A      5.486216  
     911A      5.500693   912A      5.506420   913A      5.530164  
     914A      5.535321   915A      5.541545   916A      5.556186  
     917A      5.559316   918A      5.586903   919A      5.589429  
     920A      5.600593   921A      5.602996   922A      5.613917  
     923A      5.640131   924A      5.646375   925A      5.655330  
     926A      5.661309   927A      5.673260   928A      5.681602  
     929A      5.697509   930A      5.708788   931A      5.719890  
     932A      5.721139   933A      5.742134   934A      5.758201  
     935A      5.765974   936A      5.780725   937A      5.788069  
     938A      5.799865   939A      5.821316   940A      5.833691  
     941A      5.844736   942A      5.854739   943A      5.874350  
     944A      5.879831   945A      5.895640   946A      5.909375  
     947A      5.931399   948A      5.952249   949A      5.967345  
     950A      5.986850   951A      5.989471   952A      6.008395  
     953A      6.022251   954A      6.035118   955A      6.054134  
     956A      6.060830   957A      6.082705   958A      6.112191  
     959A      6.130730   960A      6.141934   961A      6.154215  
     962A      6.163393   963A      6.175837   964A      6.190358  
     965A      6.235882   966A      6.244658   967A      6.272194  
     968A      6.277819   969A      6.293212   970A      6.306115  
     971A      6.335260   972A      6.382817   973A      6.414756  
     974A      6.445610   975A      6.469233   976A      6.485606  
     977A      6.532490   978A      6.538722   979A      6.564388  
     980A      6.668242   981A      6.694803   982A      6.720577  
     983A      6.740262   984A      6.755474   985A      6.772668  
     986A      6.790602   987A      6.809972   988A      6.822596  
     989A      6.854688   990A      6.859741   991A      6.876209  
     992A      6.882451   993A      6.903416   994A      6.927372  
     995A      6.962429   996A      6.977272   997A      6.989279  
     998A      7.004369   999A      7.006747  1000A      7.029336  
    1001A      7.052735  1002A      7.062349  1003A      7.068458  
    1004A      7.087530  1005A      7.106697  1006A      7.119855  
    1007A      7.152617  1008A      7.168004  1009A      7.174112  
    1010A      7.188165  1011A      7.212003  1012A      7.213827  
    1013A      7.233849  1014A      7.251343  1015A      7.263211  
    1016A      7.292423  1017A      7.318198  1018A      7.339660  
    1019A      7.350607  1020A      7.361376  1021A      7.388109  
    1022A      7.404097  1023A      7.441451  1024A      7.442336  
    1025A      7.463576  1026A      7.496444  1027A      7.511644  
    1028A      7.522856  1029A      7.544938  1030A      7.551815  
    1031A      7.572952  1032A      7.584785  1033A      7.609255  
    1034A      7.625331  1035A      7.634869  1036A      7.649974  
    1037A      7.664232  1038A      7.689394  1039A      7.723142  
    1040A      7.751815  1041A      7.774412  1042A      7.807497  
    1043A      7.847842  1044A      7.860716  1045A      7.901766  
    1046A      7.930038  1047A      7.944721  1048A      7.958924  
    1049A      7.995642  1050A      8.019597  1051A      8.051997  
    1052A      8.080132  1053A      8.144868  1054A      8.201758  
    1055A      8.219964  1056A      8.239787  1057A      8.296263  
    1058A      8.346558  1059A      8.430861  1060A      8.474586  
    1061A      8.542191  1062A      8.666966  1063A      8.693028  
    1064A      8.827639  1065A     16.109076  1066A     16.235876  
    1067A     16.394137  1068A     16.717752  1069A     17.078900  
    1070A     17.192130  1071A     17.659211  1072A     18.128983  
    1073A     18.571565  1074A     18.778701  1075A     19.416252  
    1076A     19.647583  1077A     20.117305  1078A     20.304482  
    1079A     20.572745  1080A     20.974656  1081A     21.917475  

    Final Occupation by Irrep:
              A 
    DOCC [    64 ]

  @DF-RHF Final Energy:  -886.37314776109008

   => Energetics <=

    Nuclear Repulsion Energy =           1334.8355164245363085
    One-Electron Energy =               -3867.3591977074433998
    Two-Electron Energy =                1646.1505335218171240
    Total Energy =                       -886.3731477610899674

Computation Completed

*** tstop() called on c445-043.stampede2.tacc.utexas.edu at Sun Mar 21 04:47:53 2021
Module time:
	user time   =    2687.11 seconds =      44.79 minutes
	system time =     147.34 seconds =       2.46 minutes
	total time  =        125 seconds =       2.08 minutes
Total time:
	user time   =    2687.11 seconds =      44.79 minutes
	system time =     147.34 seconds =       2.46 minutes
	total time  =        125 seconds =       2.08 minutes
   => Loading Basis Set <=

    Name: (AUG-CC-PVTZ AUX)
    Role: RIFIT
    Keyword: DF_BASIS_MP2
    atoms 1-5   entry O          line   264 file /home1/07844/xy3866/miniconda3/envs/p4env/share/psi4/basis/aug-cc-pvtz-ri.gbs 
    atoms 6-8   entry N          line   206 file /home1/07844/xy3866/miniconda3/envs/p4env/share/psi4/basis/aug-cc-pvtz-ri.gbs 
    atoms 9-17  entry C          line   148 file /home1/07844/xy3866/miniconda3/envs/p4env/share/psi4/basis/aug-cc-pvtz-ri.gbs 
    atoms 18-30 entry H          line    30 file /home1/07844/xy3866/miniconda3/envs/p4env/share/psi4/basis/aug-cc-pvtz-ri.gbs 


*** tstart() called on c445-043.stampede2.tacc.utexas.edu
*** at Sun Mar 21 04:47:54 2021


  //>>>>>>>>>>>>>>>>>>>>>>>>>>>>>>>>>>>//
  //               DFMP2               //
  //<<<<<<<<<<<<<<<<<<<<<<<<<<<<<<<<<<<//

	 --------------------------------------------------------
	                          DF-MP2                         
	      2nd-Order Density-Fitted Moller-Plesset Theory     
	              RMP2 Wavefunction,  32 Threads             
	                                                         
	        Rob Parrish, Justin Turney, Andy Simmonett,      
	           Ed Hohenstein, and C. David Sherrill          
	 --------------------------------------------------------

   => Auxiliary Basis Set <=

  Basis Set: (AUG-CC-PVTZ AUX)
    Blend: AUG-CC-PVTZ-RI
    Number of shells: 658
    Number of basis functions: 2400
    Number of Cartesian functions: 3027
    Spherical Harmonics?: true
    Max angular momentum: 4

	 --------------------------------------------------------
	                 NBF =  1081, NAUX =  2400
	 --------------------------------------------------------
	   CLASS    FOCC     OCC    AOCC    AVIR     VIR    FVIR
	   PAIRS       0      64      64    1017    1017       0
	 --------------------------------------------------------

  DFHelper Memory: AOs need 18.585 GiB; user supplied 22.352 GiB. Using in-core AOs.


         ------------------------------------------------------------
                                     CPHF                           
                                  Rob Parrish                       
         ------------------------------------------------------------

  ==> Geometry <==

    Molecular point group: c1
    Full point group: C1

    Geometry (in Angstrom), charge = 0, multiplicity = 1:

       Center              X                  Y                   Z               Mass       
    ------------   -----------------  -----------------  -----------------  -----------------
         O           -1.331331810181     0.681685636097    -1.083237505422    15.994914619570
         O           -1.585715810181    -2.436235363903     0.529579494578    15.994914619570
         O           -3.572817810181    -1.042093363903    -0.444007505422    15.994914619570
         O           -1.452083810181     3.153311636097     0.142516494578    15.994914619570
         O            1.094398189819    -2.355515363903     0.023600494578    15.994914619570
         N            0.756481189819    -0.130094363903    -0.354636505422    14.003074004430
         N            2.924222189819    -0.966022363903     0.162006494578    14.003074004430
         N            4.693733189819     0.470960636097     0.377124494578    14.003074004430
         C           -1.389015810181    -1.040194363903     0.571276494578    12.000000000000
         C           -2.750138810181    -0.346786363903     0.473846494578    12.000000000000
         C           -0.649903810181    -0.476444363903    -0.663016505422    12.000000000000
         C           -2.382898810181     0.993394636097    -0.142507505422    12.000000000000
         C           -1.911357810181     2.017424636097     0.873136494578    12.000000000000
         C            1.218814189819     1.146929636097    -0.428224505422    12.000000000000
         C            1.586364889819    -1.203776863903    -0.046999305422    12.000000000000
         C            2.535310189819     1.403218636097    -0.183863505422    12.000000000000
         C            3.368054189819     0.280153636097     0.096839494578    12.000000000000
         H           -0.856290810181    -0.740845363903     1.485846494578     1.007825032230
         H           -3.237894810181    -0.250029363903     1.456021494578     1.007825032230
         H           -0.634861810181    -1.214962363903    -1.472373505422     1.007825032230
         H           -3.206329810181     1.406422636097    -0.731208505422     1.007825032230
         H           -1.107367810181     1.598248636097     1.496198494578     1.007825032230
         H           -2.753207810181     2.274510636097     1.532599494578     1.007825032230
         H           -0.683209810181    -2.798224363903     0.370223494578     1.007825032230
         H           -3.318501810181    -1.982672363903    -0.346930505422     1.007825032230
         H            0.480774189819     1.905675636097    -0.668037505422     1.007825032230
         H           -1.222034810181     3.843330636097     0.788032494578     1.007825032230
         H            2.921329189819     2.415406636097    -0.222913505422     1.007825032230
         H            5.146810189819     1.299122636097     0.015158494578     1.007825032230
         H            5.251376189819    -0.375277363903     0.376668494578     1.007825032230

  Nuclear repulsion = 1334.835516424536308
  Reference energy  = -886.373147761090081

  ==> Basis Set <==

  Basis Set: AUG-CC-PVTZ
    Blend: AUG-CC-PVTZ
    Number of shells: 355
    Number of basis functions: 1081
    Number of Cartesian functions: 1260
    Spherical Harmonics?: true
    Max angular momentum: 3

  ==> CGRSolver (by Rob Parrish) <==

   Number of roots    =         1
   Preconditioning    =    JACOBI
   Convergence cutoff =     1E-06
   Maximum iterations =       100

  ==> CPHFRHamiltonian (by Rob Parrish) <== 

  ==> MemDFJK: Density-Fitted J/K Matrices <==

    J tasked:                   Yes
    K tasked:                   Yes
    wK tasked:                   No
    OpenMP threads:              32
    Memory [MiB]:             22888
    Algorithm:                 Core
    Schwarz Cutoff:           1E-12
    Mask sparsity (%):      12.4741
    Fitting Condition:        1E-10

   => Auxiliary Basis Set <=

  Basis Set: (AUG-CC-PVTZ AUX)
    Blend: AUG-CC-PVTZ-JKFIT
    Number of shells: 692
    Number of basis functions: 2366
    Number of Cartesian functions: 2942
    Spherical Harmonics?: true
    Max angular momentum: 4

  ==> CPHF Iterations <==

  => Iterations <=

             Iter  Converged  Remaining    Residual
  CGR           1          0          1   1.213E-01
  CGR           2          0          1   3.872E-02
  CGR           3          0          1   1.997E-02
  CGR           4          0          1   6.009E-03
  CGR           5          0          1   2.669E-03
  CGR           6          0          1   1.035E-03
  CGR           7          0          1   3.319E-04
  CGR           8          0          1   1.259E-04
  CGR           9          0          1   4.421E-05
  CGR          10          0          1   1.707E-05
  CGR          11          0          1   6.800E-06
  CGR          12          0          1   2.385E-06
  CGR          13          1          0   9.227E-07

    CGRSolver converged.

	-----------------------------------------------------------
	 ==================> DF-MP2 Energies <==================== 
	-----------------------------------------------------------
	 Reference Energy          =    -886.3731477610900811 [Eh]
	 Singles Energy            =      -0.0000000000000000 [Eh]
	 Same-Spin Energy          =      -0.9019683446989906 [Eh]
	 Opposite-Spin Energy      =      -2.7163179862774300 [Eh]
	 Correlation Energy        =      -3.6182863309764208 [Eh]
	 Total Energy              =    -889.9914340920664699 [Eh]
	-----------------------------------------------------------
	 ================> DF-SCS-MP2 Energies <================== 
	-----------------------------------------------------------
	 SCS Same-Spin Scale       =       0.3333333333333333 [-]
	 SCS Opposite-Spin Scale   =       1.2000000000000000 [-]
	 SCS Same-Spin Energy      =      -0.3006561148996635 [Eh]
	 SCS Opposite-Spin Energy  =      -3.2595815835329160 [Eh]
	 SCS Correlation Energy    =      -3.5602376984325796 [Eh]
	 SCS Total Energy          =    -889.9333854595226967 [Eh]
	-----------------------------------------------------------



Properties will be evaluated at  -0.000000,   0.000000,   0.000000 [a0]

Properties computed using the MP2 density matrix

  Nuclear Dipole Moment: [e a0]
     X:    -3.0753      Y:     6.9114      Z:     3.8197

  Electronic Dipole Moment: [e a0]
     X:     4.1388      Y:    -4.5858      Z:    -3.0606

  Dipole Moment: [e a0]
     X:     1.0635      Y:     2.3256      Z:     0.7591     Total:     2.6675

  Dipole Moment: [D]
     X:     2.7032      Y:     5.9111      Z:     1.9293     Total:     6.7801


*** tstop() called on c445-043.stampede2.tacc.utexas.edu at Sun Mar 21 05:01:15 2021
Module time:
	user time   =   10357.87 seconds =     172.63 minutes
	system time =     190.79 seconds =       3.18 minutes
	total time  =        801 seconds =      13.35 minutes
Total time:
	user time   =   13046.49 seconds =     217.44 minutes
	system time =     338.16 seconds =       5.64 minutes
	total time  =        927 seconds =      15.45 minutes

    Psi4 stopped on: Sunday, 21 March 2021 05:01AM
    Psi4 wall time for execution: 0:15:31.10

*** Psi4 exiting successfully. Buy a developer a beer!
