
    -----------------------------------------------------------------------
          Psi4: An Open-Source Ab Initio Electronic Structure Package
                               Psi4 1.3.2 release

                         Git: Rev {HEAD} ecbda83 


    R. M. Parrish, L. A. Burns, D. G. A. Smith, A. C. Simmonett,
    A. E. DePrince III, E. G. Hohenstein, U. Bozkaya, A. Yu. Sokolov,
    R. Di Remigio, R. M. Richard, J. F. Gonthier, A. M. James,
    H. R. McAlexander, A. Kumar, M. Saitow, X. Wang, B. P. Pritchard,
    P. Verma, H. F. Schaefer III, K. Patkowski, R. A. King, E. F. Valeev,
    F. A. Evangelista, J. M. Turney, T. D. Crawford, and C. D. Sherrill,
    J. Chem. Theory Comput. 13(7) pp 3185--3197 (2017).
    (doi: 10.1021/acs.jctc.7b00174)


                         Additional Contributions by
    P. Kraus, H. Kruse, M. H. Lechner, M. C. Schieber, R. A. Shaw,
    A. Alenaizan, R. Galvelis, Z. L. Glick, S. Lehtola, and J. P. Misiewicz

    -----------------------------------------------------------------------


    Psi4 started on: Wednesday, 04 November 2020 07:20PM

    Process ID: 26661
    Host:       node142.bme.utexas.edu
    PSIDATADIR: /home/xy3866/psi4conda/share/psi4
    Memory:     500.0 MiB
    Threads:    8
    
  ==> Input File <==

--------------------------------------------------------------------------
#psi4
#
memory 32 gb

molecule  {
0 1
  O       -1.2312675    -0.6564074     1.0501373
  O       -1.2449750     2.4828510    -0.6861630
  O       -3.2165300     1.5210990     0.7448870
  O       -2.3570290    -3.0668370     0.0949400
  O        1.3605300     2.2470340    -0.0765420
  N        0.8434040     0.0452230     0.2559430
  N        3.0572260     0.7205030    -0.2937270
  N        4.7164630    -0.8366550    -0.5722980
  C       -1.2708923     1.0976576    -0.5940639
  C       -2.7151710     0.6552070    -0.2573930
  C       -0.5254080     0.4815200     0.6000940
  C       -2.5292560    -0.7168860     0.3610560
  C       -2.5283440    -1.8503930    -0.6392900
  C        1.2197750    -1.2614080     0.3112740
  C        1.7555940     1.0674350    -0.0594030
  C        2.5111010    -1.6091400     0.0469950
  C        3.4119830    -0.5506530    -0.2589250
  H       -0.9376060     0.5914040    -1.5148910
  H       -3.3625820     0.6426650    -1.1464650
  H       -0.4402900     1.2218800     1.4039980
  H       -3.2819570    -0.9087340     1.1307830
  H       -1.7133080    -1.7003050    -1.3694640
  H       -3.4855610    -1.8340040    -1.1841350
  H       -0.2975250     2.7131790    -0.5250000
  H       -2.8475560     2.3997430     0.5086630
  H        0.4343110    -1.9634370     0.5690680
  H       -2.4338740    -3.7984320    -0.5432330
  H        2.8291120    -2.6453980     0.0739220
  H        5.1251800    -1.6708610    -0.1624140
  H        5.3198140    -0.0200540    -0.5682940
units angstrom
no_reorient  #important for SAPT in psi4, default
symmetry c1  #important for SAPT in psi4, default
}

set PROPERTIES_ORIGIN ["COM"]
properties('MP2/aug-cc-pvtz', properties = ['dipole'])
--------------------------------------------------------------------------

  Memory set to  29.802 GiB by Python driver.
    SCF Algorithm Type (re)set to DF.

*** tstart() called on node142.bme.utexas.edu
*** at Wed Nov  4 19:20:42 2020

   => Loading Basis Set <=

    Name: AUG-CC-PVTZ
    Role: ORBITAL
    Keyword: BASIS
    atoms 1-5   entry O          line   327 file /home/xy3866/psi4conda/share/psi4/basis/aug-cc-pvtz.gbs 
    atoms 6-8   entry N          line   281 file /home/xy3866/psi4conda/share/psi4/basis/aug-cc-pvtz.gbs 
    atoms 9-17  entry C          line   235 file /home/xy3866/psi4conda/share/psi4/basis/aug-cc-pvtz.gbs 
    atoms 18-30 entry H          line    36 file /home/xy3866/psi4conda/share/psi4/basis/aug-cc-pvtz.gbs 


         ---------------------------------------------------------
                                   SCF
               by Justin Turney, Rob Parrish, Andy Simmonett
                          and Daniel G. A. Smith
                              RHF Reference
                        8 Threads,  30517 MiB Core
         ---------------------------------------------------------

  ==> Geometry <==

    Molecular point group: c1
    Full point group: C1

    Geometry (in Angstrom), charge = 0, multiplicity = 1:

       Center              X                  Y                   Z               Mass       
    ------------   -----------------  -----------------  -----------------  -----------------
         O           -1.233292956077    -0.657110516135     1.049075852305    15.994914619570
         O           -1.247000456077     2.482147883865    -0.687224447695    15.994914619570
         O           -3.218555456077     1.520395883865     0.743825552305    15.994914619570
         O           -2.359054456077    -3.067540116135     0.093878552305    15.994914619570
         O            1.358504543923     2.246330883865    -0.077603447695    15.994914619570
         N            0.841378543923     0.044519883865     0.254881552305    14.003074004430
         N            3.055200543923     0.719799883865    -0.294788447695    14.003074004430
         N            4.714437543923    -0.837358116135    -0.573359447695    14.003074004430
         C           -1.272917756077     1.096954483865    -0.595125347695    12.000000000000
         C           -2.717196456077     0.654503883865    -0.258454447695    12.000000000000
         C           -0.527433456077     0.480816883865     0.599032552305    12.000000000000
         C           -2.531281456077    -0.717589116135     0.359994552305    12.000000000000
         C           -2.530369456077    -1.851096116135    -0.640351447695    12.000000000000
         C            1.217749543923    -1.262111116135     0.310212552305    12.000000000000
         C            1.753568543923     1.066731883865    -0.060464447695    12.000000000000
         C            2.509075543923    -1.609843116135     0.045933552305    12.000000000000
         C            3.409957543923    -0.551356116135    -0.259986447695    12.000000000000
         H           -0.939631456077     0.590700883865    -1.515952447695     1.007825032230
         H           -3.364607456077     0.641961883865    -1.147526447695     1.007825032230
         H           -0.442315456077     1.221176883865     1.402936552305     1.007825032230
         H           -3.283982456077    -0.909437116135     1.129721552305     1.007825032230
         H           -1.715333456077    -1.701008116135    -1.370525447695     1.007825032230
         H           -3.487586456077    -1.834707116135    -1.185196447695     1.007825032230
         H           -0.299550456077     2.712475883865    -0.526061447695     1.007825032230
         H           -2.849581456077     2.399039883865     0.507601552305     1.007825032230
         H            0.432285543923    -1.964140116135     0.568006552305     1.007825032230
         H           -2.435899456077    -3.799135116135    -0.544294447695     1.007825032230
         H            2.827086543923    -2.646101116135     0.072860552305     1.007825032230
         H            5.123154543923    -1.671564116135    -0.163475447695     1.007825032230
         H            5.317788543923    -0.020757116135    -0.569355447695     1.007825032230

  Running in c1 symmetry.

  Rotational constants: A =      0.02614  B =      0.01119  C =      0.00834 [cm^-1]
  Rotational constants: A =    783.61916  B =    335.54884  C =    250.16208 [MHz]
  Nuclear repulsion = 1323.112976974794719

  Charge       = 0
  Multiplicity = 1
  Electrons    = 128
  Nalpha       = 64
  Nbeta        = 64

  ==> Algorithm <==

  SCF Algorithm Type is DF.
  DIIS enabled.
  MOM disabled.
  Fractional occupation disabled.
  Guess Type is SAD.
  Energy threshold   = 1.00e-10
  Density threshold  = 1.00e-10
  Integral threshold = 0.00e+00

  ==> Primary Basis <==

  Basis Set: AUG-CC-PVTZ
    Blend: AUG-CC-PVTZ
    Number of shells: 355
    Number of basis function: 1081
    Number of Cartesian functions: 1260
    Spherical Harmonics?: true
    Max angular momentum: 3

   => Loading Basis Set <=

    Name: (AUG-CC-PVTZ AUX)
    Role: JKFIT
    Keyword: DF_BASIS_SCF
    atoms 1-5   entry O          line   286 file /home/xy3866/psi4conda/share/psi4/basis/aug-cc-pvtz-jkfit.gbs 
    atoms 6-8   entry N          line   224 file /home/xy3866/psi4conda/share/psi4/basis/aug-cc-pvtz-jkfit.gbs 
    atoms 9-17  entry C          line   162 file /home/xy3866/psi4conda/share/psi4/basis/aug-cc-pvtz-jkfit.gbs 
    atoms 18-30 entry H          line    70 file /home/xy3866/psi4conda/share/psi4/basis/aug-cc-pvtz-jkfit.gbs 

  ==> Pre-Iterations <==

   -------------------------------------------------------
    Irrep   Nso     Nmo     Nalpha   Nbeta   Ndocc  Nsocc
   -------------------------------------------------------
     A       1081    1081       0       0       0       0
   -------------------------------------------------------
    Total    1081    1081      64      64      64       0
   -------------------------------------------------------

  ==> Integral Setup <==

  DFHelper Memory: AOs need 18.209 GiB; user supplied 22.352 GiB. Using in-core AOs.

  ==> MemDFJK: Density-Fitted J/K Matrices <==

    J tasked:                   Yes
    K tasked:                   Yes
    wK tasked:                   No
    OpenMP threads:               8
    Memory [MiB]:             22888
    Algorithm:                 Disk
    Schwarz Cutoff:           1E-12
    Mask sparsity (%):      13.2844
    Fitting Condition:        1E-10

   => Auxiliary Basis Set <=

  Basis Set: (AUG-CC-PVTZ AUX)
    Blend: AUG-CC-PVTZ-JKFIT
    Number of shells: 692
    Number of basis function: 2366
    Number of Cartesian functions: 2942
    Spherical Harmonics?: true
    Max angular momentum: 4

  Minimum eigenvalue in the overlap matrix is 9.6807767123E-07.
  Using Symmetric Orthogonalization.

  SCF Guess: Superposition of Atomic Densities via on-the-fly atomic UHF.

  ==> Iterations <==

                           Total Energy        Delta E     RMS |[F,P]|

   @DF-RHF iter SAD:  -885.96115524062316   -8.85961e+02   0.00000e+00 
   @DF-RHF iter   1:  -885.89453292021096    6.66223e-02   9.13722e-04 DIIS
   @DF-RHF iter   2:  -886.26324774054933   -3.68715e-01   5.03091e-04 DIIS
   @DF-RHF iter   3:  -886.36318027321613   -9.99325e-02   1.02738e-04 DIIS
   @DF-RHF iter   4:  -886.37028133989520   -7.10107e-03   4.15164e-05 DIIS
   @DF-RHF iter   5:  -886.37135847514242   -1.07714e-03   9.11229e-06 DIIS
   @DF-RHF iter   6:  -886.37146091654961   -1.02441e-04   4.42298e-06 DIIS
   @DF-RHF iter   7:  -886.37148555296051   -2.46364e-05   1.60890e-06 DIIS
   @DF-RHF iter   8:  -886.37149099591898   -5.44296e-06   6.32716e-07 DIIS
   @DF-RHF iter   9:  -886.37149178002301   -7.84104e-07   2.45345e-07 DIIS
   @DF-RHF iter  10:  -886.37149189431261   -1.14290e-07   9.53661e-08 DIIS
   @DF-RHF iter  11:  -886.37149191081289   -1.65003e-08   3.42496e-08 DIIS
   @DF-RHF iter  12:  -886.37149191250955   -1.69666e-09   1.32143e-08 DIIS
   @DF-RHF iter  13:  -886.37149191276671   -2.57160e-10   3.96845e-09 DIIS
   @DF-RHF iter  14:  -886.37149191279764   -3.09228e-11   1.65405e-09 DIIS
   @DF-RHF iter  15:  -886.37149191279445    3.18323e-12   7.93567e-10 DIIS
   @DF-RHF iter  16:  -886.37149191279741   -2.95586e-12   3.11412e-10 DIIS
   @DF-RHF iter  17:  -886.37149191280071   -3.29692e-12   1.51972e-10 DIIS
   @DF-RHF iter  18:  -886.37149191279752    3.18323e-12   5.12656e-11 DIIS
  Energy and wave function converged.


  ==> Post-Iterations <==

    Orbital Energies [Eh]
    ---------------------

    Doubly Occupied:                                                      

       1A    -20.582576     2A    -20.582138     3A    -20.559954  
       4A    -20.557881     5A    -20.521862     6A    -15.635680  
       7A    -15.599341     8A    -15.552785     9A    -11.387684  
      10A    -11.357231    11A    -11.340092    12A    -11.327559  
      13A    -11.302255    14A    -11.298753    15A    -11.297497  
      16A    -11.294182    17A    -11.247764    18A     -1.426025  
      19A     -1.394800    20A     -1.383825    21A     -1.373428  
      22A     -1.349997    23A     -1.305330    24A     -1.272525  
      25A     -1.181577    26A     -1.080953    27A     -1.066864  
      28A     -1.018438    29A     -0.934093    30A     -0.908256  
      31A     -0.877015    32A     -0.831953    33A     -0.811039  
      34A     -0.766424    35A     -0.751328    36A     -0.736985  
      37A     -0.719461    38A     -0.703514    39A     -0.698483  
      40A     -0.684910    41A     -0.672570    42A     -0.653560  
      43A     -0.651172    44A     -0.638213    45A     -0.621048  
      46A     -0.614390    47A     -0.605772    48A     -0.594571  
      49A     -0.575389    50A     -0.567426    51A     -0.556778  
      52A     -0.546562    53A     -0.539032    54A     -0.531245  
      55A     -0.497851    56A     -0.478075    57A     -0.473259  
      58A     -0.462753    59A     -0.460135    60A     -0.451406  
      61A     -0.439573    62A     -0.432854    63A     -0.394553  
      64A     -0.349232  

    Virtual:                                                              

      65A      0.015801    66A      0.022217    67A      0.032343  
      68A      0.037702    69A      0.040821    70A      0.045111  
      71A      0.053110    72A      0.054497    73A      0.056537  
      74A      0.062483    75A      0.064172    76A      0.074084  
      77A      0.082388    78A      0.083004    79A      0.085923  
      80A      0.089561    81A      0.100683    82A      0.101595  
      83A      0.104612    84A      0.109580    85A      0.112388  
      86A      0.113616    87A      0.119279    88A      0.120319  
      89A      0.124861    90A      0.126800    91A      0.129201  
      92A      0.134342    93A      0.137724    94A      0.140296  
      95A      0.145821    96A      0.147960    97A      0.150255  
      98A      0.152850    99A      0.155792   100A      0.159072  
     101A      0.165027   102A      0.167767   103A      0.169931  
     104A      0.173891   105A      0.177728   106A      0.179676  
     107A      0.180848   108A      0.183320   109A      0.195483  
     110A      0.197345   111A      0.202947   112A      0.205635  
     113A      0.211176   114A      0.215061   115A      0.221763  
     116A      0.224352   117A      0.227599   118A      0.234436  
     119A      0.235985   120A      0.242190   121A      0.244621  
     122A      0.247437   123A      0.251701   124A      0.252151  
     125A      0.254668   126A      0.263499   127A      0.265475  
     128A      0.269982   129A      0.272238   130A      0.275581  
     131A      0.277281   132A      0.280699   133A      0.283964  
     134A      0.284814   135A      0.288559   136A      0.292332  
     137A      0.295292   138A      0.299197   139A      0.302954  
     140A      0.306672   141A      0.311056   142A      0.315312  
     143A      0.318334   144A      0.319282   145A      0.323660  
     146A      0.326755   147A      0.330770   148A      0.333566  
     149A      0.334651   150A      0.340100   151A      0.347639  
     152A      0.349784   153A      0.352240   154A      0.354401  
     155A      0.357190   156A      0.359718   157A      0.364189  
     158A      0.367706   159A      0.369805   160A      0.379184  
     161A      0.380982   162A      0.384180   163A      0.387463  
     164A      0.391677   165A      0.394125   166A      0.397056  
     167A      0.399489   168A      0.400431   169A      0.406129  
     170A      0.407115   171A      0.412665   172A      0.419399  
     173A      0.423568   174A      0.425628   175A      0.427766  
     176A      0.431987   177A      0.436294   178A      0.443885  
     179A      0.447057   180A      0.450824   181A      0.454712  
     182A      0.456557   183A      0.458868   184A      0.462623  
     185A      0.465979   186A      0.468336   187A      0.473109  
     188A      0.474255   189A      0.477266   190A      0.479842  
     191A      0.484529   192A      0.487401   193A      0.490457  
     194A      0.495728   195A      0.496742   196A      0.501148  
     197A      0.505294   198A      0.510543   199A      0.511036  
     200A      0.516506   201A      0.521077   202A      0.521870  
     203A      0.524478   204A      0.528818   205A      0.529494  
     206A      0.535880   207A      0.537351   208A      0.540048  
     209A      0.541570   210A      0.545612   211A      0.550974  
     212A      0.553486   213A      0.557244   214A      0.558939  
     215A      0.566994   216A      0.571418   217A      0.572767  
     218A      0.579485   219A      0.582490   220A      0.589221  
     221A      0.590823   222A      0.593022   223A      0.594854  
     224A      0.600445   225A      0.609963   226A      0.612438  
     227A      0.615513   228A      0.617425   229A      0.619690  
     230A      0.622951   231A      0.627422   232A      0.629540  
     233A      0.638397   234A      0.642143   235A      0.644057  
     236A      0.645112   237A      0.652561   238A      0.656233  
     239A      0.658776   240A      0.666540   241A      0.668645  
     242A      0.673708   243A      0.675521   244A      0.684489  
     245A      0.688661   246A      0.690862   247A      0.693724  
     248A      0.695487   249A      0.700407   250A      0.707514  
     251A      0.709690   252A      0.714420   253A      0.716442  
     254A      0.721918   255A      0.727324   256A      0.730602  
     257A      0.734950   258A      0.740135   259A      0.746501  
     260A      0.750672   261A      0.757896   262A      0.759380  
     263A      0.763329   264A      0.771367   265A      0.774632  
     266A      0.776333   267A      0.778391   268A      0.786737  
     269A      0.795555   270A      0.800416   271A      0.802438  
     272A      0.810328   273A      0.815453   274A      0.822985  
     275A      0.823661   276A      0.826954   277A      0.839648  
     278A      0.843835   279A      0.844779   280A      0.852711  
     281A      0.858264   282A      0.863285   283A      0.866652  
     284A      0.871027   285A      0.872612   286A      0.875741  
     287A      0.877511   288A      0.885517   289A      0.888870  
     290A      0.892731   291A      0.898498   292A      0.901058  
     293A      0.909577   294A      0.915994   295A      0.916914  
     296A      0.922285   297A      0.925168   298A      0.928931  
     299A      0.933560   300A      0.942330   301A      0.944065  
     302A      0.945597   303A      0.951755   304A      0.957468  
     305A      0.966599   306A      0.968230   307A      0.973206  
     308A      0.974701   309A      0.982050   310A      0.983739  
     311A      0.990335   312A      0.992401   313A      0.996232  
     314A      1.002458   315A      1.011274   316A      1.014448  
     317A      1.015457   318A      1.020703   319A      1.022278  
     320A      1.026539   321A      1.031523   322A      1.032520  
     323A      1.035657   324A      1.039827   325A      1.044500  
     326A      1.050878   327A      1.055738   328A      1.061041  
     329A      1.062157   330A      1.064878   331A      1.070757  
     332A      1.073532   333A      1.077900   334A      1.081523  
     335A      1.085965   336A      1.090745   337A      1.092932  
     338A      1.095710   339A      1.101682   340A      1.105999  
     341A      1.107336   342A      1.111947   343A      1.119469  
     344A      1.126203   345A      1.130795   346A      1.131490  
     347A      1.135752   348A      1.137116   349A      1.143310  
     350A      1.149447   351A      1.151994   352A      1.160050  
     353A      1.163213   354A      1.165527   355A      1.168228  
     356A      1.178077   357A      1.182298   358A      1.184920  
     359A      1.190519   360A      1.193263   361A      1.196374  
     362A      1.200129   363A      1.206260   364A      1.212130  
     365A      1.214429   366A      1.219273   367A      1.222277  
     368A      1.224196   369A      1.227427   370A      1.231281  
     371A      1.241112   372A      1.243571   373A      1.250652  
     374A      1.253288   375A      1.256623   376A      1.262513  
     377A      1.264739   378A      1.272251   379A      1.277924  
     380A      1.281982   381A      1.288993   382A      1.291411  
     383A      1.298169   384A      1.299516   385A      1.307441  
     386A      1.310982   387A      1.316963   388A      1.326821  
     389A      1.329182   390A      1.339282   391A      1.341649  
     392A      1.345648   393A      1.352703   394A      1.361407  
     395A      1.363314   396A      1.370801   397A      1.376900  
     398A      1.377463   399A      1.385947   400A      1.387162  
     401A      1.397298   402A      1.399589   403A      1.405651  
     404A      1.413831   405A      1.420653   406A      1.424297  
     407A      1.426734   408A      1.431057   409A      1.436823  
     410A      1.442033   411A      1.447914   412A      1.451633  
     413A      1.455265   414A      1.464940   415A      1.469518  
     416A      1.475099   417A      1.480360   418A      1.485801  
     419A      1.489617   420A      1.496486   421A      1.498987  
     422A      1.505022   423A      1.506552   424A      1.515551  
     425A      1.520228   426A      1.524462   427A      1.532106  
     428A      1.535387   429A      1.541559   430A      1.544334  
     431A      1.549607   432A      1.555576   433A      1.558646  
     434A      1.562816   435A      1.569534   436A      1.576096  
     437A      1.577863   438A      1.585563   439A      1.594028  
     440A      1.594525   441A      1.597899   442A      1.606904  
     443A      1.613809   444A      1.615819   445A      1.619354  
     446A      1.631088   447A      1.632403   448A      1.641310  
     449A      1.647130   450A      1.652311   451A      1.658334  
     452A      1.661596   453A      1.669016   454A      1.675391  
     455A      1.679867   456A      1.685144   457A      1.693855  
     458A      1.696447   459A      1.701048   460A      1.708897  
     461A      1.718281   462A      1.721365   463A      1.727897  
     464A      1.731692   465A      1.734210   466A      1.737579  
     467A      1.748388   468A      1.755557   469A      1.758996  
     470A      1.763003   471A      1.766913   472A      1.775693  
     473A      1.779453   474A      1.783405   475A      1.793733  
     476A      1.799440   477A      1.801575   478A      1.807073  
     479A      1.810232   480A      1.815682   481A      1.817412  
     482A      1.825424   483A      1.829849   484A      1.837251  
     485A      1.839178   486A      1.847112   487A      1.857270  
     488A      1.858643   489A      1.861232   490A      1.866208  
     491A      1.871748   492A      1.874833   493A      1.881840  
     494A      1.892353   495A      1.896352   496A      1.907280  
     497A      1.913582   498A      1.915221   499A      1.922672  
     500A      1.935052   501A      1.936943   502A      1.945629  
     503A      1.950341   504A      1.956443   505A      1.959191  
     506A      1.968545   507A      1.977811   508A      1.983432  
     509A      1.988206   510A      1.993061   511A      1.995243  
     512A      2.000243   513A      2.007568   514A      2.012021  
     515A      2.021614   516A      2.028466   517A      2.030197  
     518A      2.035528   519A      2.045372   520A      2.047409  
     521A      2.051394   522A      2.053294   523A      2.059084  
     524A      2.066967   525A      2.069744   526A      2.082941  
     527A      2.085352   528A      2.099226   529A      2.103855  
     530A      2.110770   531A      2.122594   532A      2.126133  
     533A      2.129670   534A      2.133109   535A      2.138804  
     536A      2.144031   537A      2.149335   538A      2.155099  
     539A      2.161420   540A      2.169749   541A      2.179048  
     542A      2.180453   543A      2.188185   544A      2.194437  
     545A      2.208362   546A      2.215478   547A      2.219137  
     548A      2.223610   549A      2.232516   550A      2.237178  
     551A      2.248242   552A      2.250030   553A      2.262609  
     554A      2.268293   555A      2.276587   556A      2.283086  
     557A      2.291917   558A      2.297799   559A      2.309352  
     560A      2.316510   561A      2.324487   562A      2.327421  
     563A      2.343832   564A      2.349257   565A      2.362850  
     566A      2.367428   567A      2.372207   568A      2.374102  
     569A      2.392113   570A      2.401766   571A      2.406379  
     572A      2.414116   573A      2.416613   574A      2.427364  
     575A      2.430439   576A      2.434487   577A      2.439436  
     578A      2.455742   579A      2.455802   580A      2.469298  
     581A      2.486806   582A      2.492196   583A      2.505890  
     584A      2.513480   585A      2.517397   586A      2.522643  
     587A      2.535715   588A      2.541859   589A      2.550211  
     590A      2.551334   591A      2.569494   592A      2.572816  
     593A      2.576826   594A      2.584808   595A      2.594344  
     596A      2.602375   597A      2.608644   598A      2.614153  
     599A      2.626854   600A      2.632996   601A      2.640798  
     602A      2.647500   603A      2.656144   604A      2.668080  
     605A      2.678349   606A      2.682655   607A      2.696841  
     608A      2.701111   609A      2.703110   610A      2.722749  
     611A      2.735565   612A      2.738926   613A      2.747159  
     614A      2.751593   615A      2.754683   616A      2.758684  
     617A      2.775403   618A      2.788413   619A      2.798332  
     620A      2.808160   621A      2.825521   622A      2.829344  
     623A      2.831413   624A      2.845355   625A      2.851054  
     626A      2.862147   627A      2.865319   628A      2.872677  
     629A      2.878226   630A      2.886967   631A      2.894324  
     632A      2.909789   633A      2.914962   634A      2.926245  
     635A      2.931577   636A      2.949225   637A      2.955197  
     638A      2.965206   639A      2.970579   640A      2.986279  
     641A      2.987667   642A      2.997589   643A      3.009125  
     644A      3.011423   645A      3.026019   646A      3.027947  
     647A      3.046110   648A      3.051690   649A      3.056524  
     650A      3.068453   651A      3.082195   652A      3.088278  
     653A      3.103543   654A      3.108817   655A      3.119363  
     656A      3.129315   657A      3.135537   658A      3.139482  
     659A      3.155475   660A      3.170236   661A      3.178579  
     662A      3.189931   663A      3.190986   664A      3.196846  
     665A      3.207918   666A      3.214707   667A      3.229021  
     668A      3.240533   669A      3.249721   670A      3.251547  
     671A      3.266093   672A      3.281718   673A      3.292588  
     674A      3.301308   675A      3.303928   676A      3.318579  
     677A      3.333122   678A      3.344551   679A      3.359446  
     680A      3.361171   681A      3.363811   682A      3.385105  
     683A      3.393604   684A      3.397331   685A      3.423187  
     686A      3.431160   687A      3.437767   688A      3.461206  
     689A      3.466866   690A      3.475747   691A      3.487978  
     692A      3.499291   693A      3.502151   694A      3.517742  
     695A      3.530320   696A      3.531566   697A      3.551378  
     698A      3.554429   699A      3.562753   700A      3.580638  
     701A      3.587431   702A      3.593938   703A      3.622768  
     704A      3.637512   705A      3.647162   706A      3.649355  
     707A      3.657462   708A      3.680574   709A      3.695363  
     710A      3.701290   711A      3.707894   712A      3.715646  
     713A      3.725429   714A      3.731437   715A      3.749152  
     716A      3.755574   717A      3.764305   718A      3.774010  
     719A      3.778639   720A      3.793555   721A      3.796203  
     722A      3.801561   723A      3.805862   724A      3.816814  
     725A      3.827283   726A      3.834016   727A      3.846142  
     728A      3.856930   729A      3.864807   730A      3.870639  
     731A      3.880722   732A      3.889271   733A      3.904542  
     734A      3.914233   735A      3.921494   736A      3.924921  
     737A      3.940905   738A      3.945589   739A      3.949666  
     740A      3.959223   741A      3.970613   742A      3.986159  
     743A      3.987544   744A      3.996206   745A      4.000748  
     746A      4.013570   747A      4.018162   748A      4.024394  
     749A      4.032872   750A      4.043421   751A      4.051539  
     752A      4.058395   753A      4.060950   754A      4.073313  
     755A      4.075170   756A      4.086825   757A      4.096501  
     758A      4.100722   759A      4.110549   760A      4.123013  
     761A      4.135962   762A      4.136981   763A      4.140077  
     764A      4.149492   765A      4.152266   766A      4.166807  
     767A      4.177731   768A      4.189342   769A      4.190748  
     770A      4.205608   771A      4.207813   772A      4.217705  
     773A      4.220113   774A      4.231798   775A      4.245200  
     776A      4.255045   777A      4.265542   778A      4.275288  
     779A      4.277135   780A      4.281991   781A      4.286480  
     782A      4.294006   783A      4.305180   784A      4.310001  
     785A      4.313950   786A      4.322939   787A      4.329616  
     788A      4.342295   789A      4.348092   790A      4.355300  
     791A      4.359929   792A      4.373357   793A      4.376630  
     794A      4.385979   795A      4.391425   796A      4.405313  
     797A      4.408131   798A      4.411083   799A      4.420275  
     800A      4.423311   801A      4.431452   802A      4.440718  
     803A      4.450064   804A      4.458947   805A      4.463537  
     806A      4.469349   807A      4.475824   808A      4.485487  
     809A      4.491148   810A      4.492567   811A      4.506514  
     812A      4.518431   813A      4.529848   814A      4.532343  
     815A      4.539478   816A      4.553491   817A      4.564609  
     818A      4.569694   819A      4.584272   820A      4.591469  
     821A      4.594700   822A      4.608361   823A      4.623079  
     824A      4.631634   825A      4.645375   826A      4.653637  
     827A      4.662121   828A      4.670033   829A      4.675705  
     830A      4.690844   831A      4.699004   832A      4.703669  
     833A      4.707616   834A      4.715184   835A      4.725063  
     836A      4.734232   837A      4.741723   838A      4.748114  
     839A      4.762405   840A      4.779306   841A      4.788913  
     842A      4.796540   843A      4.798157   844A      4.809830  
     845A      4.825758   846A      4.837824   847A      4.844850  
     848A      4.848084   849A      4.862784   850A      4.885247  
     851A      4.886878   852A      4.901543   853A      4.906804  
     854A      4.921463   855A      4.931702   856A      4.946035  
     857A      4.950747   858A      4.964634   859A      4.968143  
     860A      4.978837   861A      4.981441   862A      4.996810  
     863A      5.007855   864A      5.024299   865A      5.030288  
     866A      5.052871   867A      5.058035   868A      5.063151  
     869A      5.074946   870A      5.084535   871A      5.090517  
     872A      5.109632   873A      5.124866   874A      5.128363  
     875A      5.139046   876A      5.141920   877A      5.150467  
     878A      5.155057   879A      5.184392   880A      5.198253  
     881A      5.208552   882A      5.221136   883A      5.227494  
     884A      5.235080   885A      5.239714   886A      5.251340  
     887A      5.258688   888A      5.279999   889A      5.296378  
     890A      5.299242   891A      5.304526   892A      5.308742  
     893A      5.325801   894A      5.326143   895A      5.334063  
     896A      5.346510   897A      5.354772   898A      5.355925  
     899A      5.367204   900A      5.379769   901A      5.393965  
     902A      5.397033   903A      5.402781   904A      5.415359  
     905A      5.429738   906A      5.437640   907A      5.460066  
     908A      5.471146   909A      5.481848   910A      5.485404  
     911A      5.488080   912A      5.519777   913A      5.520216  
     914A      5.528789   915A      5.538894   916A      5.540315  
     917A      5.563459   918A      5.580233   919A      5.587596  
     920A      5.594945   921A      5.600345   922A      5.608232  
     923A      5.616504   924A      5.628044   925A      5.644172  
     926A      5.648996   927A      5.653044   928A      5.679497  
     929A      5.683625   930A      5.692629   931A      5.716831  
     932A      5.717985   933A      5.732165   934A      5.758278  
     935A      5.763684   936A      5.770968   937A      5.778138  
     938A      5.799189   939A      5.810909   940A      5.826151  
     941A      5.844439   942A      5.871811   943A      5.876966  
     944A      5.893381   945A      5.897956   946A      5.905903  
     947A      5.932388   948A      5.952981   949A      5.974305  
     950A      5.979207   951A      5.992495   952A      6.001670  
     953A      6.015300   954A      6.031264   955A      6.046148  
     956A      6.052863   957A      6.063204   958A      6.097727  
     959A      6.128495   960A      6.139542   961A      6.151182  
     962A      6.163595   963A      6.179076   964A      6.191704  
     965A      6.229439   966A      6.244668   967A      6.248059  
     968A      6.265230   969A      6.275918   970A      6.309623  
     971A      6.320419   972A      6.376810   973A      6.420666  
     974A      6.434253   975A      6.472070   976A      6.511684  
     977A      6.525379   978A      6.536731   979A      6.574235  
     980A      6.656527   981A      6.688944   982A      6.701879  
     983A      6.724070   984A      6.747589   985A      6.762550  
     986A      6.792920   987A      6.800130   988A      6.818735  
     989A      6.831621   990A      6.840220   991A      6.874977  
     992A      6.898226   993A      6.903592   994A      6.925628  
     995A      6.953812   996A      6.957178   997A      6.978632  
     998A      6.988133   999A      6.996411  1000A      7.024076  
    1001A      7.048118  1002A      7.060526  1003A      7.080843  
    1004A      7.082461  1005A      7.106972  1006A      7.129861  
    1007A      7.132026  1008A      7.157972  1009A      7.182675  
    1010A      7.206395  1011A      7.212057  1012A      7.225419  
    1013A      7.232212  1014A      7.246097  1015A      7.270614  
    1016A      7.284123  1017A      7.313080  1018A      7.331502  
    1019A      7.349095  1020A      7.354917  1021A      7.387519  
    1022A      7.398167  1023A      7.422632  1024A      7.441819  
    1025A      7.456382  1026A      7.493651  1027A      7.512601  
    1028A      7.517721  1029A      7.524250  1030A      7.539628  
    1031A      7.543092  1032A      7.596195  1033A      7.602275  
    1034A      7.604488  1035A      7.625396  1036A      7.633225  
    1037A      7.652088  1038A      7.675966  1039A      7.718733  
    1040A      7.743648  1041A      7.763125  1042A      7.829628  
    1043A      7.849284  1044A      7.903740  1045A      7.924389  
    1046A      7.939042  1047A      7.947285  1048A      7.957384  
    1049A      7.987829  1050A      7.995420  1051A      8.032856  
    1052A      8.064679  1053A      8.159168  1054A      8.177820  
    1055A      8.211282  1056A      8.261394  1057A      8.281876  
    1058A      8.356694  1059A      8.409422  1060A      8.500190  
    1061A      8.516390  1062A      8.625186  1063A      8.691742  
    1064A      8.878519  1065A     15.999495  1066A     16.213777  
    1067A     16.497865  1068A     16.624810  1069A     17.085764  
    1070A     17.297073  1071A     17.551043  1072A     18.103662  
    1073A     18.574723  1074A     18.826723  1075A     19.285945  
    1076A     19.608076  1077A     20.070370  1078A     20.136605  
    1079A     20.562461  1080A     20.929220  1081A     21.786253  

    Final Occupation by Irrep:
              A 
    DOCC [    64 ]

  @DF-RHF Final Energy:  -886.37149191279752

   => Energetics <=

    Nuclear Repulsion Energy =           1323.1129769747947194
    One-Electron Energy =               -3843.9091789891249391
    Two-Electron Energy =                1634.4247101015330372
    Total Energy =                       -886.3714919127974099

Computation Completed

*** tstop() called on node142.bme.utexas.edu at Wed Nov  4 19:32:05 2020
Module time:
	user time   =    3100.56 seconds =      51.68 minutes
	system time =     220.59 seconds =       3.68 minutes
	total time  =        683 seconds =      11.38 minutes
Total time:
	user time   =    3100.56 seconds =      51.68 minutes
	system time =     220.59 seconds =       3.68 minutes
	total time  =        683 seconds =      11.38 minutes
   => Loading Basis Set <=

    Name: (AUG-CC-PVTZ AUX)
    Role: RIFIT
    Keyword: DF_BASIS_MP2
    atoms 1-5   entry O          line   264 file /home/xy3866/psi4conda/share/psi4/basis/aug-cc-pvtz-ri.gbs 
    atoms 6-8   entry N          line   206 file /home/xy3866/psi4conda/share/psi4/basis/aug-cc-pvtz-ri.gbs 
    atoms 9-17  entry C          line   148 file /home/xy3866/psi4conda/share/psi4/basis/aug-cc-pvtz-ri.gbs 
    atoms 18-30 entry H          line    30 file /home/xy3866/psi4conda/share/psi4/basis/aug-cc-pvtz-ri.gbs 


*** tstart() called on node142.bme.utexas.edu
*** at Wed Nov  4 19:32:06 2020


  //>>>>>>>>>>>>>>>>>>>>>>>>>>>>>>>>>>>//
  //               DFMP2               //
  //<<<<<<<<<<<<<<<<<<<<<<<<<<<<<<<<<<<//

	 --------------------------------------------------------
	                          DF-MP2                         
	      2nd-Order Density-Fitted Moller-Plesset Theory     
	              RMP2 Wavefunction,   8 Threads             
	                                                         
	        Rob Parrish, Justin Turney, Andy Simmonett,      
	           Ed Hohenstein, and C. David Sherrill          
	 --------------------------------------------------------

   => Auxiliary Basis Set <=

  Basis Set: (AUG-CC-PVTZ AUX)
    Blend: AUG-CC-PVTZ-RI
    Number of shells: 658
    Number of basis function: 2400
    Number of Cartesian functions: 3027
    Spherical Harmonics?: true
    Max angular momentum: 4

	 --------------------------------------------------------
	                 NBF =  1081, NAUX =  2400
	 --------------------------------------------------------
	   CLASS    FOCC     OCC    AOCC    AVIR     VIR    FVIR
	   PAIRS       0      64      64    1017    1017       0
	 --------------------------------------------------------

  DFHelper Memory: AOs need 18.209 GiB; user supplied 22.352 GiB. Using in-core AOs.


         ------------------------------------------------------------
                                     CPHF                           
                                  Rob Parrish                       
         ------------------------------------------------------------

  ==> Geometry <==

    Molecular point group: c1
    Full point group: C1

    Geometry (in Angstrom), charge = 0, multiplicity = 1:

       Center              X                  Y                   Z               Mass       
    ------------   -----------------  -----------------  -----------------  -----------------
         O           -1.233292956077    -0.657110516135     1.049075852305    15.994914619570
         O           -1.247000456077     2.482147883865    -0.687224447695    15.994914619570
         O           -3.218555456077     1.520395883865     0.743825552305    15.994914619570
         O           -2.359054456077    -3.067540116135     0.093878552305    15.994914619570
         O            1.358504543923     2.246330883865    -0.077603447695    15.994914619570
         N            0.841378543923     0.044519883865     0.254881552305    14.003074004430
         N            3.055200543923     0.719799883865    -0.294788447695    14.003074004430
         N            4.714437543923    -0.837358116135    -0.573359447695    14.003074004430
         C           -1.272917756077     1.096954483865    -0.595125347695    12.000000000000
         C           -2.717196456077     0.654503883865    -0.258454447695    12.000000000000
         C           -0.527433456077     0.480816883865     0.599032552305    12.000000000000
         C           -2.531281456077    -0.717589116135     0.359994552305    12.000000000000
         C           -2.530369456077    -1.851096116135    -0.640351447695    12.000000000000
         C            1.217749543923    -1.262111116135     0.310212552305    12.000000000000
         C            1.753568543923     1.066731883865    -0.060464447695    12.000000000000
         C            2.509075543923    -1.609843116135     0.045933552305    12.000000000000
         C            3.409957543923    -0.551356116135    -0.259986447695    12.000000000000
         H           -0.939631456077     0.590700883865    -1.515952447695     1.007825032230
         H           -3.364607456077     0.641961883865    -1.147526447695     1.007825032230
         H           -0.442315456077     1.221176883865     1.402936552305     1.007825032230
         H           -3.283982456077    -0.909437116135     1.129721552305     1.007825032230
         H           -1.715333456077    -1.701008116135    -1.370525447695     1.007825032230
         H           -3.487586456077    -1.834707116135    -1.185196447695     1.007825032230
         H           -0.299550456077     2.712475883865    -0.526061447695     1.007825032230
         H           -2.849581456077     2.399039883865     0.507601552305     1.007825032230
         H            0.432285543923    -1.964140116135     0.568006552305     1.007825032230
         H           -2.435899456077    -3.799135116135    -0.544294447695     1.007825032230
         H            2.827086543923    -2.646101116135     0.072860552305     1.007825032230
         H            5.123154543923    -1.671564116135    -0.163475447695     1.007825032230
         H            5.317788543923    -0.020757116135    -0.569355447695     1.007825032230

  Nuclear repulsion = 1323.112976974794492
  Reference energy  = -886.371491912797524

  ==> Basis Set <==

  Basis Set: AUG-CC-PVTZ
    Blend: AUG-CC-PVTZ
    Number of shells: 355
    Number of basis function: 1081
    Number of Cartesian functions: 1260
    Spherical Harmonics?: true
    Max angular momentum: 3

  ==> CGRSolver (by Rob Parrish) <==

   Number of roots    =         1
   Preconditioning    =    JACOBI
   Convergence cutoff =     1E-06
   Maximum iterations =       100

  ==> CPHFRHamiltonian (by Rob Parrish) <== 

  ==> MemDFJK: Density-Fitted J/K Matrices <==

    J tasked:                   Yes
    K tasked:                   Yes
    wK tasked:                   No
    OpenMP threads:               8
    Memory [MiB]:             22888
    Algorithm:                 Disk
    Schwarz Cutoff:           1E-12
    Mask sparsity (%):      13.2844
    Fitting Condition:        1E-10

   => Auxiliary Basis Set <=

  Basis Set: (AUG-CC-PVTZ AUX)
    Blend: AUG-CC-PVTZ-JKFIT
    Number of shells: 692
    Number of basis function: 2366
    Number of Cartesian functions: 2942
    Spherical Harmonics?: true
    Max angular momentum: 4

  ==> CPHF Iterations <==

  => Iterations <=

             Iter  Converged  Remaining    Residual
  CGR           1          0          1   1.205E-01
  CGR           2          0          1   3.825E-02
  CGR           3          0          1   1.977E-02
  CGR           4          0          1   5.887E-03
  CGR           5          0          1   2.619E-03
  CGR           6          0          1   1.002E-03
  CGR           7          0          1   3.193E-04
  CGR           8          0          1   1.228E-04
  CGR           9          0          1   4.271E-05
  CGR          10          0          1   1.654E-05
  CGR          11          0          1   6.727E-06
  CGR          12          0          1   2.419E-06
  CGR          13          1          0   9.578E-07

    CGRSolver converged.

	-----------------------------------------------------------
	 ==================> DF-MP2 Energies <==================== 
	-----------------------------------------------------------
	 Reference Energy          =    -886.3714919127975236 [Eh]
	 Singles Energy            =      -0.0000000000000000 [Eh]
	 Same-Spin Energy          =      -0.9014537400349210 [Eh]
	 Opposite-Spin Energy      =      -2.7154643103954941 [Eh]
	 Correlation Energy        =      -3.6169180504304150 [Eh]
	 Total Energy              =    -889.9884099632279231 [Eh]
	-----------------------------------------------------------
	 ================> DF-SCS-MP2 Energies <================== 
	-----------------------------------------------------------
	 SCS Same-Spin Scale       =       0.3333333333333333 [-]
	 SCS Opposite-Spin Scale   =       1.2000000000000000 [-]
	 SCS Same-Spin Energy      =      -0.3004845800116403 [Eh]
	 SCS Opposite-Spin Energy  =      -3.2585571724745930 [Eh]
	 SCS Correlation Energy    =      -3.5590417524862334 [Eh]
	 SCS Total Energy          =    -889.9305336652837468 [Eh]
	-----------------------------------------------------------



Properties will be evaluated at   0.000000,   0.000000,   0.000000 [a0]

Properties computed using the MP2 density matrix

  Nuclear Dipole Moment: [e a0]
     X:    -4.8553      Y:    -6.5326      Z:    -3.1252

  Electronic Dipole Moment: [e a0]
     X:     5.4939      Y:     4.2161      Z:     2.3879

  Dipole Moment: [e a0]
     X:     0.6385      Y:    -2.3165      Z:    -0.7373     Total:     2.5135

  Dipole Moment: [D]
     X:     1.6230      Y:    -5.8880      Z:    -1.8739     Total:     6.3886


*** tstop() called on node142.bme.utexas.edu at Wed Nov  4 20:08:32 2020
Module time:
	user time   =   13791.61 seconds =     229.86 minutes
	system time =     313.06 seconds =       5.22 minutes
	total time  =       2186 seconds =      36.43 minutes
Total time:
	user time   =   16893.01 seconds =     281.55 minutes
	system time =     533.66 seconds =       8.89 minutes
	total time  =       2870 seconds =      47.83 minutes

    Psi4 stopped on: Wednesday, 04 November 2020 08:08PM
    Psi4 wall time for execution: 0:47:52.31

*** Psi4 exiting successfully. Buy a developer a beer!
