
    -----------------------------------------------------------------------
          Psi4: An Open-Source Ab Initio Electronic Structure Package
                               Psi4 1.3.2 release

                         Git: Rev {HEAD} ecbda83 


    R. M. Parrish, L. A. Burns, D. G. A. Smith, A. C. Simmonett,
    A. E. DePrince III, E. G. Hohenstein, U. Bozkaya, A. Yu. Sokolov,
    R. Di Remigio, R. M. Richard, J. F. Gonthier, A. M. James,
    H. R. McAlexander, A. Kumar, M. Saitow, X. Wang, B. P. Pritchard,
    P. Verma, H. F. Schaefer III, K. Patkowski, R. A. King, E. F. Valeev,
    F. A. Evangelista, J. M. Turney, T. D. Crawford, and C. D. Sherrill,
    J. Chem. Theory Comput. 13(7) pp 3185--3197 (2017).
    (doi: 10.1021/acs.jctc.7b00174)


                         Additional Contributions by
    P. Kraus, H. Kruse, M. H. Lechner, M. C. Schieber, R. A. Shaw,
    A. Alenaizan, R. Galvelis, Z. L. Glick, S. Lehtola, and J. P. Misiewicz

    -----------------------------------------------------------------------


    Psi4 started on: Thursday, 05 November 2020 09:23AM

    Process ID: 13338
    Host:       node35.bme.utexas.edu
    PSIDATADIR: /home/xy3866/psi4conda/share/psi4
    Memory:     500.0 MiB
    Threads:    8
    
  ==> Input File <==

--------------------------------------------------------------------------
#psi4
#
memory 32 gb

molecule  {
0 1
  O       -1.2481010    -0.6526680     1.0325150
  O       -1.2449750     2.4828510    -0.6861630
  O       -3.2165300     1.5210990     0.7448870
  O       -2.3570290    -3.0668370     0.0949400
  O        1.3605300     2.2470340    -0.0765420
  N        0.8434040     0.0452230     0.2559430
  N        3.0572260     0.7205030    -0.2937270
  N        4.7164630    -0.8366550    -0.5722980
  C       -1.2894840     1.0784300    -0.5920770
  C       -2.7151710     0.6552070    -0.2573930
  C       -0.5254080     0.4815200     0.6000940
  C       -2.5214882    -0.7115754     0.3703613
  C       -2.5283440    -1.8503930    -0.6392900
  C        1.2197750    -1.2614080     0.3112740
  C        1.7555940     1.0674350    -0.0594030
  C        2.5111010    -1.6091400     0.0469950
  C        3.4119830    -0.5506530    -0.2589250
  H       -0.9376060     0.5914040    -1.5148910
  H       -3.3614324     0.6521498    -1.1473841
  H       -0.4402900     1.2218800     1.4039980
  H       -3.2819570    -0.9087340     1.1307830
  H       -1.7133080    -1.7003050    -1.3694640
  H       -3.4855610    -1.8340040    -1.1841350
  H       -0.2975250     2.7131790    -0.5250000
  H       -2.8475560     2.3997430     0.5086630
  H        0.4343110    -1.9634370     0.5690680
  H       -2.4338740    -3.7984320    -0.5432330
  H        2.8291120    -2.6453980     0.0739220
  H        5.1251800    -1.6708610    -0.1624140
  H        5.3198140    -0.0200540    -0.5682940
units angstrom
no_reorient  #important for SAPT in psi4, default
symmetry c1  #important for SAPT in psi4, default
}

set PROPERTIES_ORIGIN ["COM"]
properties('MP2/aug-cc-pvtz', properties = ['dipole'])
--------------------------------------------------------------------------

  Memory set to  29.802 GiB by Python driver.
    SCF Algorithm Type (re)set to DF.

*** tstart() called on node35.bme.utexas.edu
*** at Thu Nov  5 09:23:41 2020

   => Loading Basis Set <=

    Name: AUG-CC-PVTZ
    Role: ORBITAL
    Keyword: BASIS
    atoms 1-5   entry O          line   327 file /home/xy3866/psi4conda/share/psi4/basis/aug-cc-pvtz.gbs 
    atoms 6-8   entry N          line   281 file /home/xy3866/psi4conda/share/psi4/basis/aug-cc-pvtz.gbs 
    atoms 9-17  entry C          line   235 file /home/xy3866/psi4conda/share/psi4/basis/aug-cc-pvtz.gbs 
    atoms 18-30 entry H          line    36 file /home/xy3866/psi4conda/share/psi4/basis/aug-cc-pvtz.gbs 


         ---------------------------------------------------------
                                   SCF
               by Justin Turney, Rob Parrish, Andy Simmonett
                          and Daniel G. A. Smith
                              RHF Reference
                        8 Threads,  30517 MiB Core
         ---------------------------------------------------------

  ==> Geometry <==

    Molecular point group: c1
    Full point group: C1

    Geometry (in Angstrom), charge = 0, multiplicity = 1:

       Center              X                  Y                   Z               Mass       
    ------------   -----------------  -----------------  -----------------  -----------------
         O           -1.248489260250    -0.652969473136     1.032059458718    15.994914619570
         O           -1.245363260250     2.482549526864    -0.686618541282    15.994914619570
         O           -3.216918260250     1.520797526864     0.744431458718    15.994914619570
         O           -2.357417260250    -3.067138473136     0.094484458718    15.994914619570
         O            1.360141739750     2.246732526864    -0.076997541282    15.994914619570
         N            0.843015739750     0.044921526864     0.255487458718    14.003074004430
         N            3.056837739750     0.720201526864    -0.294182541282    14.003074004430
         N            4.716074739750    -0.836956473136    -0.572753541282    14.003074004430
         C           -1.289872260250     1.078128526864    -0.592532541282    12.000000000000
         C           -2.715559260250     0.654905526864    -0.257848541282    12.000000000000
         C           -0.525796260250     0.481218526864     0.599638458718    12.000000000000
         C           -2.521876460250    -0.711876873136     0.369905758718    12.000000000000
         C           -2.528732260250    -1.850694473136    -0.639745541282    12.000000000000
         C            1.219386739750    -1.261709473136     0.310818458718    12.000000000000
         C            1.755205739750     1.067133526864    -0.059858541282    12.000000000000
         C            2.510712739750    -1.609441473136     0.046539458718    12.000000000000
         C            3.411594739750    -0.550954473136    -0.259380541282    12.000000000000
         H           -0.937994260250     0.591102526864    -1.515346541282     1.007825032230
         H           -3.361820660250     0.651848326864    -1.147839641282     1.007825032230
         H           -0.440678260250     1.221578526864     1.403542458718     1.007825032230
         H           -3.282345260250    -0.909035473136     1.130327458718     1.007825032230
         H           -1.713696260250    -1.700606473136    -1.369919541282     1.007825032230
         H           -3.485949260250    -1.834305473136    -1.184590541282     1.007825032230
         H           -0.297913260250     2.712877526864    -0.525455541282     1.007825032230
         H           -2.847944260250     2.399441526864     0.508207458718     1.007825032230
         H            0.433922739750    -1.963738473136     0.568612458718     1.007825032230
         H           -2.434262260250    -3.798733473136    -0.543688541282     1.007825032230
         H            2.828723739750    -2.645699473136     0.073466458718     1.007825032230
         H            5.124791739750    -1.671162473136    -0.162869541282     1.007825032230
         H            5.319425739750    -0.020355473136    -0.568749541282     1.007825032230

  Running in c1 symmetry.

  Rotational constants: A =      0.02619  B =      0.01119  C =      0.00834 [cm^-1]
  Rotational constants: A =    785.07646  B =    335.49140  C =    250.15203 [MHz]
  Nuclear repulsion = 1323.861717306978335

  Charge       = 0
  Multiplicity = 1
  Electrons    = 128
  Nalpha       = 64
  Nbeta        = 64

  ==> Algorithm <==

  SCF Algorithm Type is DF.
  DIIS enabled.
  MOM disabled.
  Fractional occupation disabled.
  Guess Type is SAD.
  Energy threshold   = 1.00e-10
  Density threshold  = 1.00e-10
  Integral threshold = 0.00e+00

  ==> Primary Basis <==

  Basis Set: AUG-CC-PVTZ
    Blend: AUG-CC-PVTZ
    Number of shells: 355
    Number of basis function: 1081
    Number of Cartesian functions: 1260
    Spherical Harmonics?: true
    Max angular momentum: 3

   => Loading Basis Set <=

    Name: (AUG-CC-PVTZ AUX)
    Role: JKFIT
    Keyword: DF_BASIS_SCF
    atoms 1-5   entry O          line   286 file /home/xy3866/psi4conda/share/psi4/basis/aug-cc-pvtz-jkfit.gbs 
    atoms 6-8   entry N          line   224 file /home/xy3866/psi4conda/share/psi4/basis/aug-cc-pvtz-jkfit.gbs 
    atoms 9-17  entry C          line   162 file /home/xy3866/psi4conda/share/psi4/basis/aug-cc-pvtz-jkfit.gbs 
    atoms 18-30 entry H          line    70 file /home/xy3866/psi4conda/share/psi4/basis/aug-cc-pvtz-jkfit.gbs 

  ==> Pre-Iterations <==

   -------------------------------------------------------
    Irrep   Nso     Nmo     Nalpha   Nbeta   Ndocc  Nsocc
   -------------------------------------------------------
     A       1081    1081       0       0       0       0
   -------------------------------------------------------
    Total    1081    1081      64      64      64       0
   -------------------------------------------------------

  ==> Integral Setup <==

  DFHelper Memory: AOs need 18.209 GiB; user supplied 22.352 GiB. Using in-core AOs.

  ==> MemDFJK: Density-Fitted J/K Matrices <==

    J tasked:                   Yes
    K tasked:                   Yes
    wK tasked:                   No
    OpenMP threads:               8
    Memory [MiB]:             22888
    Algorithm:                 Disk
    Schwarz Cutoff:           1E-12
    Mask sparsity (%):      13.2842
    Fitting Condition:        1E-10

   => Auxiliary Basis Set <=

  Basis Set: (AUG-CC-PVTZ AUX)
    Blend: AUG-CC-PVTZ-JKFIT
    Number of shells: 692
    Number of basis function: 2366
    Number of Cartesian functions: 2942
    Spherical Harmonics?: true
    Max angular momentum: 4

  Minimum eigenvalue in the overlap matrix is 9.5573632831E-07.
  Using Symmetric Orthogonalization.

  SCF Guess: Superposition of Atomic Densities via on-the-fly atomic UHF.

  ==> Iterations <==

                           Total Energy        Delta E     RMS |[F,P]|

   @DF-RHF iter SAD:  -886.00310970367900   -8.86003e+02   0.00000e+00 
   @DF-RHF iter   1:  -885.89548181051680    1.07628e-01   9.15264e-04 DIIS
   @DF-RHF iter   2:  -886.26447633315252   -3.68995e-01   5.05083e-04 DIIS
   @DF-RHF iter   3:  -886.36529457518918   -1.00818e-01   1.02884e-04 DIIS
   @DF-RHF iter   4:  -886.37240634847694   -7.11177e-03   4.16674e-05 DIIS
   @DF-RHF iter   5:  -886.37348921133719   -1.08286e-03   9.11652e-06 DIIS
   @DF-RHF iter   6:  -886.37359178339273   -1.02572e-04   4.42706e-06 DIIS
   @DF-RHF iter   7:  -886.37361647641751   -2.46930e-05   1.61423e-06 DIIS
   @DF-RHF iter   8:  -886.37362194476918   -5.46835e-06   6.31518e-07 DIIS
   @DF-RHF iter   9:  -886.37362273007579   -7.85307e-07   2.42920e-07 DIIS
   @DF-RHF iter  10:  -886.37362284313167   -1.13056e-07   9.42356e-08 DIIS
   @DF-RHF iter  11:  -886.37362285934489   -1.62132e-08   3.44884e-08 DIIS
   @DF-RHF iter  12:  -886.37362286104315   -1.69825e-09   1.32750e-08 DIIS
   @DF-RHF iter  13:  -886.37362286130838   -2.65231e-10   4.02571e-09 DIIS
   @DF-RHF iter  14:  -886.37362286133100   -2.26237e-11   1.66601e-09 DIIS
   @DF-RHF iter  15:  -886.37362286133271   -1.70530e-12   7.96022e-10 DIIS
   @DF-RHF iter  16:  -886.37362286133998   -7.27596e-12   3.15185e-10 DIIS
   @DF-RHF iter  17:  -886.37362286133498    5.00222e-12   1.52322e-10 DIIS
   @DF-RHF iter  18:  -886.37362286133805   -3.06954e-12   5.15453e-11 DIIS
  Energy and wave function converged.


  ==> Post-Iterations <==

    Orbital Energies [Eh]
    ---------------------

    Doubly Occupied:                                                      

       1A    -20.582987     2A    -20.581661     3A    -20.557326  
       4A    -20.557312     5A    -20.522247     6A    -15.637331  
       7A    -15.600051     8A    -15.553595     9A    -11.388558  
      10A    -11.358103    11A    -11.342265    12A    -11.328850  
      13A    -11.300686    14A    -11.296649    15A    -11.296592  
      16A    -11.292459    17A    -11.248835    18A     -1.431842  
      19A     -1.397166    20A     -1.380112    21A     -1.372776  
      22A     -1.346227    23A     -1.306430    24A     -1.274324  
      25A     -1.182541    26A     -1.082348    27A     -1.066187  
      28A     -1.021382    29A     -0.934822    30A     -0.909913  
      31A     -0.877242    32A     -0.832645    33A     -0.812452  
      34A     -0.767190    35A     -0.753002    36A     -0.736269  
      37A     -0.720517    38A     -0.702405    39A     -0.698620  
      40A     -0.685957    41A     -0.672516    42A     -0.654882  
      43A     -0.651661    44A     -0.639073    45A     -0.620875  
      46A     -0.615029    47A     -0.607014    48A     -0.593899  
      49A     -0.576073    50A     -0.570793    51A     -0.554059  
      52A     -0.545089    53A     -0.538248    54A     -0.531671  
      55A     -0.498169    56A     -0.477010    57A     -0.474247  
      58A     -0.461294    59A     -0.460020    60A     -0.453077  
      61A     -0.440372    62A     -0.433249    63A     -0.395410  
      64A     -0.350273  

    Virtual:                                                              

      65A      0.015691    66A      0.022249    67A      0.032368  
      68A      0.037725    69A      0.040836    70A      0.044909  
      71A      0.053223    72A      0.054417    73A      0.056484  
      74A      0.062435    75A      0.064324    76A      0.074088  
      77A      0.082008    78A      0.082747    79A      0.085574  
      80A      0.089347    81A      0.100540    82A      0.101416  
      83A      0.104712    84A      0.109484    85A      0.112235  
      86A      0.113625    87A      0.119305    88A      0.120165  
      89A      0.124594    90A      0.126573    91A      0.128935  
      92A      0.134607    93A      0.137716    94A      0.140360  
      95A      0.145690    96A      0.147987    97A      0.150156  
      98A      0.152659    99A      0.155563   100A      0.159505  
     101A      0.165071   102A      0.167772   103A      0.170027  
     104A      0.173773   105A      0.177575   106A      0.179647  
     107A      0.180892   108A      0.183275   109A      0.195079  
     110A      0.197130   111A      0.202988   112A      0.205712  
     113A      0.211074   114A      0.215114   115A      0.221747  
     116A      0.224791   117A      0.228259   118A      0.234306  
     119A      0.235740   120A      0.242347   121A      0.244848  
     122A      0.247406   123A      0.251656   124A      0.251795  
     125A      0.254626   126A      0.263438   127A      0.265442  
     128A      0.269850   129A      0.272528   130A      0.275682  
     131A      0.277327   132A      0.281006   133A      0.283511  
     134A      0.284968   135A      0.288609   136A      0.292164  
     137A      0.295015   138A      0.299520   139A      0.302751  
     140A      0.306175   141A      0.311214   142A      0.315350  
     143A      0.318167   144A      0.319057   145A      0.323471  
     146A      0.326626   147A      0.331373   148A      0.333903  
     149A      0.334430   150A      0.340441   151A      0.347026  
     152A      0.351341   153A      0.352017   154A      0.354650  
     155A      0.358015   156A      0.359484   157A      0.363936  
     158A      0.367908   159A      0.369756   160A      0.379453  
     161A      0.380951   162A      0.384451   163A      0.388027  
     164A      0.391577   165A      0.394315   166A      0.398278  
     167A      0.399799   168A      0.400665   169A      0.405618  
     170A      0.406760   171A      0.412515   172A      0.418892  
     173A      0.423670   174A      0.425805   175A      0.427224  
     176A      0.432067   177A      0.436337   178A      0.443860  
     179A      0.447554   180A      0.450640   181A      0.454864  
     182A      0.456583   183A      0.458563   184A      0.462354  
     185A      0.466252   186A      0.468745   187A      0.473240  
     188A      0.474142   189A      0.477233   190A      0.479549  
     191A      0.484357   192A      0.487186   193A      0.489949  
     194A      0.495538   195A      0.496846   196A      0.501084  
     197A      0.505041   198A      0.510325   199A      0.511008  
     200A      0.517216   201A      0.520571   202A      0.521557  
     203A      0.524540   204A      0.528298   205A      0.530434  
     206A      0.535972   207A      0.536999   208A      0.539347  
     209A      0.541601   210A      0.545272   211A      0.551383  
     212A      0.553721   213A      0.557280   214A      0.557967  
     215A      0.567282   216A      0.571222   217A      0.572867  
     218A      0.579291   219A      0.582746   220A      0.588776  
     221A      0.590718   222A      0.592764   223A      0.596102  
     224A      0.599713   225A      0.610525   226A      0.613322  
     227A      0.615816   228A      0.617439   229A      0.620688  
     230A      0.623614   231A      0.626470   232A      0.628938  
     233A      0.638381   234A      0.642322   235A      0.644211  
     236A      0.645091   237A      0.652078   238A      0.656993  
     239A      0.659675   240A      0.666845   241A      0.668963  
     242A      0.673248   243A      0.675957   244A      0.684164  
     245A      0.689521   246A      0.691179   247A      0.694239  
     248A      0.696340   249A      0.700684   250A      0.707457  
     251A      0.709889   252A      0.713865   253A      0.716290  
     254A      0.721629   255A      0.727197   256A      0.730133  
     257A      0.735013   258A      0.739452   259A      0.746398  
     260A      0.750803   261A      0.758154   262A      0.759687  
     263A      0.763728   264A      0.771689   265A      0.774425  
     266A      0.776618   267A      0.778148   268A      0.786031  
     269A      0.796704   270A      0.800788   271A      0.802608  
     272A      0.810385   273A      0.815566   274A      0.822991  
     275A      0.823578   276A      0.826986   277A      0.839129  
     278A      0.843955   279A      0.844855   280A      0.852958  
     281A      0.857798   282A      0.863428   283A      0.866758  
     284A      0.871079   285A      0.872662   286A      0.875587  
     287A      0.877218   288A      0.886152   289A      0.889099  
     290A      0.892542   291A      0.898431   292A      0.901363  
     293A      0.909841   294A      0.916712   295A      0.918805  
     296A      0.922207   297A      0.924910   298A      0.928548  
     299A      0.933810   300A      0.941660   301A      0.943701  
     302A      0.946107   303A      0.950989   304A      0.956189  
     305A      0.967099   306A      0.969224   307A      0.972876  
     308A      0.974897   309A      0.981757   310A      0.983821  
     311A      0.990082   312A      0.992199   313A      0.995581  
     314A      1.002257   315A      1.010523   316A      1.014475  
     317A      1.015004   318A      1.020268   319A      1.021636  
     320A      1.025775   321A      1.030875   322A      1.032642  
     323A      1.035884   324A      1.039758   325A      1.043545  
     326A      1.051408   327A      1.055279   328A      1.060286  
     329A      1.061119   330A      1.064361   331A      1.070797  
     332A      1.073297   333A      1.077891   334A      1.081993  
     335A      1.085551   336A      1.090374   337A      1.092763  
     338A      1.095490   339A      1.101982   340A      1.105769  
     341A      1.107341   342A      1.112333   343A      1.119272  
     344A      1.125876   345A      1.130628   346A      1.131360  
     347A      1.135885   348A      1.136028   349A      1.142601  
     350A      1.149120   351A      1.152252   352A      1.160161  
     353A      1.162869   354A      1.166290   355A      1.167987  
     356A      1.178500   357A      1.182381   358A      1.184908  
     359A      1.189704   360A      1.193747   361A      1.196343  
     362A      1.200244   363A      1.205817   364A      1.212155  
     365A      1.215125   366A      1.220283   367A      1.222173  
     368A      1.224022   369A      1.227949   370A      1.231435  
     371A      1.241155   372A      1.244298   373A      1.250240  
     374A      1.252613   375A      1.256502   376A      1.263082  
     377A      1.263755   378A      1.272524   379A      1.277546  
     380A      1.281936   381A      1.288989   382A      1.292512  
     383A      1.298111   384A      1.299742   385A      1.307660  
     386A      1.310796   387A      1.317365   388A      1.326245  
     389A      1.328913   390A      1.339430   391A      1.341658  
     392A      1.346306   393A      1.353430   394A      1.361046  
     395A      1.363869   396A      1.371279   397A      1.376859  
     398A      1.377353   399A      1.385781   400A      1.387299  
     401A      1.396431   402A      1.399641   403A      1.404909  
     404A      1.413239   405A      1.421087   406A      1.425054  
     407A      1.426875   408A      1.430561   409A      1.436519  
     410A      1.440961   411A      1.448860   412A      1.452486  
     413A      1.454504   414A      1.464012   415A      1.469614  
     416A      1.474898   417A      1.480165   418A      1.485557  
     419A      1.490203   420A      1.495590   421A      1.498524  
     422A      1.504863   423A      1.506452   424A      1.515213  
     425A      1.519883   426A      1.524021   427A      1.530947  
     428A      1.535116   429A      1.541117   430A      1.543752  
     431A      1.549736   432A      1.555509   433A      1.558816  
     434A      1.564150   435A      1.569578   436A      1.575461  
     437A      1.577891   438A      1.585420   439A      1.593935  
     440A      1.595291   441A      1.598113   442A      1.606454  
     443A      1.613883   444A      1.615623   445A      1.619565  
     446A      1.629871   447A      1.632873   448A      1.642115  
     449A      1.646991   450A      1.652802   451A      1.658290  
     452A      1.660571   453A      1.670111   454A      1.676197  
     455A      1.681009   456A      1.685398   457A      1.693730  
     458A      1.694556   459A      1.700645   460A      1.709542  
     461A      1.717199   462A      1.720229   463A      1.728239  
     464A      1.732361   465A      1.734113   466A      1.737289  
     467A      1.746743   468A      1.756943   469A      1.759352  
     470A      1.762071   471A      1.767543   472A      1.775543  
     473A      1.780360   474A      1.783563   475A      1.794031  
     476A      1.799755   477A      1.803331   478A      1.806707  
     479A      1.809892   480A      1.816231   481A      1.816760  
     482A      1.826076   483A      1.831339   484A      1.837667  
     485A      1.839839   486A      1.846742   487A      1.856772  
     488A      1.857729   489A      1.860034   490A      1.866653  
     491A      1.871124   492A      1.874791   493A      1.882917  
     494A      1.893239   495A      1.895836   496A      1.908061  
     497A      1.914021   498A      1.915075   499A      1.923877  
     500A      1.935865   501A      1.938038   502A      1.946954  
     503A      1.951812   504A      1.956861   505A      1.958582  
     506A      1.970266   507A      1.978248   508A      1.983950  
     509A      1.987742   510A      1.993696   511A      1.995330  
     512A      2.001145   513A      2.007764   514A      2.012299  
     515A      2.021748   516A      2.029799   517A      2.031630  
     518A      2.035990   519A      2.047887   520A      2.048582  
     521A      2.049820   522A      2.056542   523A      2.060841  
     524A      2.067463   525A      2.069948   526A      2.083625  
     527A      2.088009   528A      2.099721   529A      2.104861  
     530A      2.110786   531A      2.123113   532A      2.126325  
     533A      2.131498   534A      2.135506   535A      2.138788  
     536A      2.143506   537A      2.148563   538A      2.155230  
     539A      2.161698   540A      2.170255   541A      2.177410  
     542A      2.180703   543A      2.191116   544A      2.195030  
     545A      2.209800   546A      2.215273   547A      2.219385  
     548A      2.221613   549A      2.231778   550A      2.239270  
     551A      2.247721   552A      2.251614   553A      2.263777  
     554A      2.268046   555A      2.276055   556A      2.282961  
     557A      2.291356   558A      2.297752   559A      2.309329  
     560A      2.317807   561A      2.324348   562A      2.328173  
     563A      2.342950   564A      2.349831   565A      2.362143  
     566A      2.369015   567A      2.371517   568A      2.374280  
     569A      2.392982   570A      2.402267   571A      2.405918  
     572A      2.413165   573A      2.416194   574A      2.426066  
     575A      2.429870   576A      2.432795   577A      2.439722  
     578A      2.454375   579A      2.455845   580A      2.469255  
     581A      2.487333   582A      2.492103   583A      2.509291  
     584A      2.513999   585A      2.518584   586A      2.523055  
     587A      2.537832   588A      2.541828   589A      2.549350  
     590A      2.551057   591A      2.569709   592A      2.572921  
     593A      2.575851   594A      2.586156   595A      2.595133  
     596A      2.603127   597A      2.609812   598A      2.613972  
     599A      2.629431   600A      2.632573   601A      2.641673  
     602A      2.648404   603A      2.660398   604A      2.665899  
     605A      2.678837   606A      2.681236   607A      2.696285  
     608A      2.701842   609A      2.706213   610A      2.722866  
     611A      2.735575   612A      2.740357   613A      2.745598  
     614A      2.752026   615A      2.755826   616A      2.759829  
     617A      2.775808   618A      2.791193   619A      2.799725  
     620A      2.810080   621A      2.827223   622A      2.828609  
     623A      2.834567   624A      2.845886   625A      2.852642  
     626A      2.861964   627A      2.866035   628A      2.874002  
     629A      2.877495   630A      2.890793   631A      2.893398  
     632A      2.910063   633A      2.914774   634A      2.926741  
     635A      2.930174   636A      2.950057   637A      2.956730  
     638A      2.966083   639A      2.974388   640A      2.985285  
     641A      2.989442   642A      2.999414   643A      3.009302  
     644A      3.010443   645A      3.026216   646A      3.030250  
     647A      3.048773   648A      3.054248   649A      3.056217  
     650A      3.069222   651A      3.082422   652A      3.091359  
     653A      3.100874   654A      3.110303   655A      3.117477  
     656A      3.128464   657A      3.136516   658A      3.139235  
     659A      3.158009   660A      3.170615   661A      3.180438  
     662A      3.190656   663A      3.192614   664A      3.197404  
     665A      3.206625   666A      3.215967   667A      3.229445  
     668A      3.239872   669A      3.248301   670A      3.252636  
     671A      3.269606   672A      3.279343   673A      3.293460  
     674A      3.304271   675A      3.308011   676A      3.322322  
     677A      3.332981   678A      3.342148   679A      3.356793  
     680A      3.361481   681A      3.373631   682A      3.384806  
     683A      3.393936   684A      3.396997   685A      3.421968  
     686A      3.429695   687A      3.436869   688A      3.462317  
     689A      3.467602   690A      3.474878   691A      3.491982  
     692A      3.500498   693A      3.502342   694A      3.519906  
     695A      3.530071   696A      3.535507   697A      3.552047  
     698A      3.555442   699A      3.562211   700A      3.576236  
     701A      3.586168   702A      3.595191   703A      3.622919  
     704A      3.638020   705A      3.645857   706A      3.650515  
     707A      3.663013   708A      3.681039   709A      3.697179  
     710A      3.700025   711A      3.708871   712A      3.714694  
     713A      3.726566   714A      3.734118   715A      3.750171  
     716A      3.755640   717A      3.763077   718A      3.774545  
     719A      3.778736   720A      3.794561   721A      3.798021  
     722A      3.802865   723A      3.805235   724A      3.818986  
     725A      3.827628   726A      3.834861   727A      3.845813  
     728A      3.857435   729A      3.866488   730A      3.871209  
     731A      3.883475   732A      3.889912   733A      3.904120  
     734A      3.917327   735A      3.921480   736A      3.923658  
     737A      3.938930   738A      3.945173   739A      3.950345  
     740A      3.958308   741A      3.970062   742A      3.986319  
     743A      3.989298   744A      3.996057   745A      4.003826  
     746A      4.016425   747A      4.018313   748A      4.023581  
     749A      4.035090   750A      4.046152   751A      4.050661  
     752A      4.059767   753A      4.063806   754A      4.073397  
     755A      4.076911   756A      4.089206   757A      4.097795  
     758A      4.103211   759A      4.111588   760A      4.123702  
     761A      4.137237   762A      4.139257   763A      4.143116  
     764A      4.153735   765A      4.155186   766A      4.168548  
     767A      4.183839   768A      4.187786   769A      4.191376  
     770A      4.205749   771A      4.207457   772A      4.218866  
     773A      4.222242   774A      4.232449   775A      4.250690  
     776A      4.258655   777A      4.269123   778A      4.275910  
     779A      4.279053   780A      4.282927   781A      4.289447  
     782A      4.294503   783A      4.305187   784A      4.310617  
     785A      4.321183   786A      4.328175   787A      4.329499  
     788A      4.342733   789A      4.349166   790A      4.355059  
     791A      4.361533   792A      4.376267   793A      4.379962  
     794A      4.386118   795A      4.394389   796A      4.406213  
     797A      4.408784   798A      4.415368   799A      4.423821  
     800A      4.424679   801A      4.432624   802A      4.443967  
     803A      4.452494   804A      4.456211   805A      4.462847  
     806A      4.469570   807A      4.478194   808A      4.485452  
     809A      4.488410   810A      4.493677   811A      4.507133  
     812A      4.518478   813A      4.527979   814A      4.532980  
     815A      4.542684   816A      4.556892   817A      4.565816  
     818A      4.570972   819A      4.585584   820A      4.593549  
     821A      4.601214   822A      4.608607   823A      4.620267  
     824A      4.632584   825A      4.646911   826A      4.655587  
     827A      4.662494   828A      4.670213   829A      4.676942  
     830A      4.695062   831A      4.698509   832A      4.703620  
     833A      4.710318   834A      4.715607   835A      4.725970  
     836A      4.737938   837A      4.745094   838A      4.749424  
     839A      4.767454   840A      4.778798   841A      4.792072  
     842A      4.798094   843A      4.801217   844A      4.812419  
     845A      4.827958   846A      4.840102   847A      4.845730  
     848A      4.850034   849A      4.865293   850A      4.886172  
     851A      4.888701   852A      4.901773   853A      4.907633  
     854A      4.921685   855A      4.932446   856A      4.946742  
     857A      4.952901   858A      4.964108   859A      4.969031  
     860A      4.977843   861A      4.979550   862A      4.997258  
     863A      5.007697   864A      5.023801   865A      5.031841  
     866A      5.053313   867A      5.057693   868A      5.062441  
     869A      5.074751   870A      5.082026   871A      5.092982  
     872A      5.107700   873A      5.124888   874A      5.127515  
     875A      5.138138   876A      5.141249   877A      5.150366  
     878A      5.152864   879A      5.185626   880A      5.197891  
     881A      5.207767   882A      5.220975   883A      5.228278  
     884A      5.236320   885A      5.240432   886A      5.255551  
     887A      5.263338   888A      5.281633   889A      5.297001  
     890A      5.298857   891A      5.303932   892A      5.309488  
     893A      5.326296   894A      5.326784   895A      5.335994  
     896A      5.348470   897A      5.354264   898A      5.358822  
     899A      5.370185   900A      5.379777   901A      5.394721  
     902A      5.401984   903A      5.406826   904A      5.422419  
     905A      5.427818   906A      5.436338   907A      5.462207  
     908A      5.469018   909A      5.483931   910A      5.485521  
     911A      5.492038   912A      5.519097   913A      5.526025  
     914A      5.528829   915A      5.536306   916A      5.541714  
     917A      5.562946   918A      5.580823   919A      5.591769  
     920A      5.595618   921A      5.599341   922A      5.609013  
     923A      5.623315   924A      5.632131   925A      5.641344  
     926A      5.651113   927A      5.651816   928A      5.678420  
     929A      5.684976   930A      5.694384   931A      5.714734  
     932A      5.720764   933A      5.731717   934A      5.757697  
     935A      5.766729   936A      5.772354   937A      5.780465  
     938A      5.797471   939A      5.810163   940A      5.826330  
     941A      5.845546   942A      5.870492   943A      5.875696  
     944A      5.895463   945A      5.900434   946A      5.906961  
     947A      5.938167   948A      5.954697   949A      5.974118  
     950A      5.979184   951A      5.995598   952A      6.001143  
     953A      6.014352   954A      6.029642   955A      6.046933  
     956A      6.052471   957A      6.062848   958A      6.104349  
     959A      6.128302   960A      6.141248   961A      6.157800  
     962A      6.162872   963A      6.179597   964A      6.191356  
     965A      6.230423   966A      6.244447   967A      6.248432  
     968A      6.264530   969A      6.275122   970A      6.312126  
     971A      6.328774   972A      6.379884   973A      6.424840  
     974A      6.432329   975A      6.468474   976A      6.499645  
     977A      6.523485   978A      6.531764   979A      6.572344  
     980A      6.655344   981A      6.690895   982A      6.703122  
     983A      6.726675   984A      6.749569   985A      6.762509  
     986A      6.796771   987A      6.801402   988A      6.819799  
     989A      6.835573   990A      6.840733   991A      6.875700  
     992A      6.900948   993A      6.907080   994A      6.926272  
     995A      6.955243   996A      6.959664   997A      6.979642  
     998A      6.987768   999A      6.997748  1000A      7.022499  
    1001A      7.048497  1002A      7.065100  1003A      7.080226  
    1004A      7.084419  1005A      7.108274  1006A      7.129757  
    1007A      7.131859  1008A      7.155102  1009A      7.181196  
    1010A      7.203514  1011A      7.212994  1012A      7.222842  
    1013A      7.230814  1014A      7.246733  1015A      7.270798  
    1016A      7.280421  1017A      7.313879  1018A      7.332417  
    1019A      7.349628  1020A      7.355036  1021A      7.396076  
    1022A      7.399437  1023A      7.430445  1024A      7.444554  
    1025A      7.458543  1026A      7.493353  1027A      7.509021  
    1028A      7.514452  1029A      7.525802  1030A      7.539675  
    1031A      7.547954  1032A      7.596940  1033A      7.608380  
    1034A      7.617534  1035A      7.632435  1036A      7.644401  
    1037A      7.652821  1038A      7.684820  1039A      7.718452  
    1040A      7.744794  1041A      7.768890  1042A      7.829463  
    1043A      7.843082  1044A      7.897664  1045A      7.925468  
    1046A      7.941417  1047A      7.953713  1048A      7.965110  
    1049A      7.987606  1050A      7.994319  1051A      8.036077  
    1052A      8.065118  1053A      8.159098  1054A      8.188120  
    1055A      8.218865  1056A      8.260039  1057A      8.284524  
    1058A      8.357901  1059A      8.405132  1060A      8.503732  
    1061A      8.557620  1062A      8.625109  1063A      8.697876  
    1064A      8.874622  1065A     16.000319  1066A     16.213756  
    1067A     16.493265  1068A     16.678616  1069A     17.073702  
    1070A     17.283853  1071A     17.608231  1072A     18.104637  
    1073A     18.569116  1074A     18.865374  1075A     19.246629  
    1076A     19.645925  1077A     20.131011  1078A     20.164229  
    1079A     20.567572  1080A     20.926771  1081A     21.788558  

    Final Occupation by Irrep:
              A 
    DOCC [    64 ]

  @DF-RHF Final Energy:  -886.37362286133805

   => Energetics <=

    Nuclear Repulsion Energy =           1323.8617173069783348
    One-Electron Energy =               -3845.3669174909250614
    Two-Electron Energy =                1635.1315773226087913
    Total Energy =                       -886.3736228613379353

Computation Completed

*** tstop() called on node35.bme.utexas.edu at Thu Nov  5 09:36:19 2020
Module time:
	user time   =    2570.80 seconds =      42.85 minutes
	system time =     497.48 seconds =       8.29 minutes
	total time  =        758 seconds =      12.63 minutes
Total time:
	user time   =    2570.80 seconds =      42.85 minutes
	system time =     497.48 seconds =       8.29 minutes
	total time  =        758 seconds =      12.63 minutes
   => Loading Basis Set <=

    Name: (AUG-CC-PVTZ AUX)
    Role: RIFIT
    Keyword: DF_BASIS_MP2
    atoms 1-5   entry O          line   264 file /home/xy3866/psi4conda/share/psi4/basis/aug-cc-pvtz-ri.gbs 
    atoms 6-8   entry N          line   206 file /home/xy3866/psi4conda/share/psi4/basis/aug-cc-pvtz-ri.gbs 
    atoms 9-17  entry C          line   148 file /home/xy3866/psi4conda/share/psi4/basis/aug-cc-pvtz-ri.gbs 
    atoms 18-30 entry H          line    30 file /home/xy3866/psi4conda/share/psi4/basis/aug-cc-pvtz-ri.gbs 


*** tstart() called on node35.bme.utexas.edu
*** at Thu Nov  5 09:36:19 2020


  //>>>>>>>>>>>>>>>>>>>>>>>>>>>>>>>>>>>//
  //               DFMP2               //
  //<<<<<<<<<<<<<<<<<<<<<<<<<<<<<<<<<<<//

	 --------------------------------------------------------
	                          DF-MP2                         
	      2nd-Order Density-Fitted Moller-Plesset Theory     
	              RMP2 Wavefunction,   8 Threads             
	                                                         
	        Rob Parrish, Justin Turney, Andy Simmonett,      
	           Ed Hohenstein, and C. David Sherrill          
	 --------------------------------------------------------

   => Auxiliary Basis Set <=

  Basis Set: (AUG-CC-PVTZ AUX)
    Blend: AUG-CC-PVTZ-RI
    Number of shells: 658
    Number of basis function: 2400
    Number of Cartesian functions: 3027
    Spherical Harmonics?: true
    Max angular momentum: 4

	 --------------------------------------------------------
	                 NBF =  1081, NAUX =  2400
	 --------------------------------------------------------
	   CLASS    FOCC     OCC    AOCC    AVIR     VIR    FVIR
	   PAIRS       0      64      64    1017    1017       0
	 --------------------------------------------------------

  DFHelper Memory: AOs need 18.209 GiB; user supplied 22.352 GiB. Using in-core AOs.


         ------------------------------------------------------------
                                     CPHF                           
                                  Rob Parrish                       
         ------------------------------------------------------------

  ==> Geometry <==

    Molecular point group: c1
    Full point group: C1

    Geometry (in Angstrom), charge = 0, multiplicity = 1:

       Center              X                  Y                   Z               Mass       
    ------------   -----------------  -----------------  -----------------  -----------------
         O           -1.248489260250    -0.652969473136     1.032059458718    15.994914619570
         O           -1.245363260250     2.482549526864    -0.686618541282    15.994914619570
         O           -3.216918260250     1.520797526864     0.744431458718    15.994914619570
         O           -2.357417260250    -3.067138473136     0.094484458718    15.994914619570
         O            1.360141739750     2.246732526864    -0.076997541282    15.994914619570
         N            0.843015739750     0.044921526864     0.255487458718    14.003074004430
         N            3.056837739750     0.720201526864    -0.294182541282    14.003074004430
         N            4.716074739750    -0.836956473136    -0.572753541282    14.003074004430
         C           -1.289872260250     1.078128526864    -0.592532541282    12.000000000000
         C           -2.715559260250     0.654905526864    -0.257848541282    12.000000000000
         C           -0.525796260250     0.481218526864     0.599638458718    12.000000000000
         C           -2.521876460250    -0.711876873136     0.369905758718    12.000000000000
         C           -2.528732260250    -1.850694473136    -0.639745541282    12.000000000000
         C            1.219386739750    -1.261709473136     0.310818458718    12.000000000000
         C            1.755205739750     1.067133526864    -0.059858541282    12.000000000000
         C            2.510712739750    -1.609441473136     0.046539458718    12.000000000000
         C            3.411594739750    -0.550954473136    -0.259380541282    12.000000000000
         H           -0.937994260250     0.591102526864    -1.515346541282     1.007825032230
         H           -3.361820660250     0.651848326864    -1.147839641282     1.007825032230
         H           -0.440678260250     1.221578526864     1.403542458718     1.007825032230
         H           -3.282345260250    -0.909035473136     1.130327458718     1.007825032230
         H           -1.713696260250    -1.700606473136    -1.369919541282     1.007825032230
         H           -3.485949260250    -1.834305473136    -1.184590541282     1.007825032230
         H           -0.297913260250     2.712877526864    -0.525455541282     1.007825032230
         H           -2.847944260250     2.399441526864     0.508207458718     1.007825032230
         H            0.433922739750    -1.963738473136     0.568612458718     1.007825032230
         H           -2.434262260250    -3.798733473136    -0.543688541282     1.007825032230
         H            2.828723739750    -2.645699473136     0.073466458718     1.007825032230
         H            5.124791739750    -1.671162473136    -0.162869541282     1.007825032230
         H            5.319425739750    -0.020355473136    -0.568749541282     1.007825032230

  Nuclear repulsion = 1323.861717306978107
  Reference energy  = -886.373622861338049

  ==> Basis Set <==

  Basis Set: AUG-CC-PVTZ
    Blend: AUG-CC-PVTZ
    Number of shells: 355
    Number of basis function: 1081
    Number of Cartesian functions: 1260
    Spherical Harmonics?: true
    Max angular momentum: 3

  ==> CGRSolver (by Rob Parrish) <==

   Number of roots    =         1
   Preconditioning    =    JACOBI
   Convergence cutoff =     1E-06
   Maximum iterations =       100

  ==> CPHFRHamiltonian (by Rob Parrish) <== 

  ==> MemDFJK: Density-Fitted J/K Matrices <==

    J tasked:                   Yes
    K tasked:                   Yes
    wK tasked:                   No
    OpenMP threads:               8
    Memory [MiB]:             22888
    Algorithm:                 Disk
    Schwarz Cutoff:           1E-12
    Mask sparsity (%):      13.2842
    Fitting Condition:        1E-10

   => Auxiliary Basis Set <=

  Basis Set: (AUG-CC-PVTZ AUX)
    Blend: AUG-CC-PVTZ-JKFIT
    Number of shells: 692
    Number of basis function: 2366
    Number of Cartesian functions: 2942
    Spherical Harmonics?: true
    Max angular momentum: 4

  ==> CPHF Iterations <==

  => Iterations <=

             Iter  Converged  Remaining    Residual
  CGR           1          0          1   1.201E-01
  CGR           2          0          1   3.822E-02
  CGR           3          0          1   1.974E-02
  CGR           4          0          1   5.884E-03
  CGR           5          0          1   2.613E-03
  CGR           6          0          1   9.993E-04
  CGR           7          0          1   3.135E-04
  CGR           8          0          1   1.199E-04
  CGR           9          0          1   4.172E-05
  CGR          10          0          1   1.634E-05
  CGR          11          0          1   6.605E-06
  CGR          12          0          1   2.398E-06
  CGR          13          1          0   9.190E-07

    CGRSolver converged.

	-----------------------------------------------------------
	 ==================> DF-MP2 Energies <==================== 
	-----------------------------------------------------------
	 Reference Energy          =    -886.3736228613380490 [Eh]
	 Singles Energy            =      -0.0000000000000000 [Eh]
	 Same-Spin Energy          =      -0.9011640350365511 [Eh]
	 Opposite-Spin Energy      =      -2.7147617676913463 [Eh]
	 Correlation Energy        =      -3.6159258027278973 [Eh]
	 Total Energy              =    -889.9895486640659783 [Eh]
	-----------------------------------------------------------
	 ================> DF-SCS-MP2 Energies <================== 
	-----------------------------------------------------------
	 SCS Same-Spin Scale       =       0.3333333333333333 [-]
	 SCS Opposite-Spin Scale   =       1.2000000000000000 [-]
	 SCS Same-Spin Energy      =      -0.3003880116788503 [Eh]
	 SCS Opposite-Spin Energy  =      -3.2577141212296152 [Eh]
	 SCS Correlation Energy    =      -3.5581021329084654 [Eh]
	 SCS Total Energy          =    -889.9317249942465651 [Eh]
	-----------------------------------------------------------



Properties will be evaluated at   0.000000,  -0.000000,   0.000000 [a0]

Properties computed using the MP2 density matrix

  Nuclear Dipole Moment: [e a0]
     X:    -4.8344      Y:    -6.5188      Z:    -3.1187

  Electronic Dipole Moment: [e a0]
     X:     5.5250      Y:     4.1859      Z:     2.4084

  Dipole Moment: [e a0]
     X:     0.6906      Y:    -2.3329      Z:    -0.7103     Total:     2.5345

  Dipole Moment: [D]
     X:     1.7553      Y:    -5.9295      Z:    -1.8055     Total:     6.4421


*** tstop() called on node35.bme.utexas.edu at Thu Nov  5 10:14:09 2020
Module time:
	user time   =   11931.11 seconds =     198.85 minutes
	system time =    1534.49 seconds =      25.57 minutes
	total time  =       2270 seconds =      37.83 minutes
Total time:
	user time   =   14502.47 seconds =     241.71 minutes
	system time =    2031.98 seconds =      33.87 minutes
	total time  =       3028 seconds =      50.47 minutes

    Psi4 stopped on: Thursday, 05 November 2020 10:14AM
    Psi4 wall time for execution: 0:50:29.25

*** Psi4 exiting successfully. Buy a developer a beer!
