
    -----------------------------------------------------------------------
          Psi4: An Open-Source Ab Initio Electronic Structure Package
                               Psi4 1.4a3.dev225 

                         Git: Rev {master} 7105e37 


    D. G. A. Smith, L. A. Burns, A. C. Simmonett, R. M. Parrish,
    M. C. Schieber, R. Galvelis, P. Kraus, H. Kruse, R. Di Remigio,
    A. Alenaizan, A. M. James, S. Lehtola, J. P. Misiewicz, M. Scheurer,
    R. A. Shaw, J. B. Schriber, Y. Xie, Z. L. Glick, D. A. Sirianni,
    J. S. O'Brien, J. M. Waldrop, A. Kumar, E. G. Hohenstein,
    B. P. Pritchard, B. R. Brooks, H. F. Schaefer III, A. Yu. Sokolov,
    K. Patkowski, A. E. DePrince III, U. Bozkaya, R. A. King,
    F. A. Evangelista, J. M. Turney, T. D. Crawford, C. D. Sherrill,
    J. Chem. Phys. 152(18) 184108 (2020). https://doi.org/10.1063/5.0006002

                            Additional Code Authors
    E. T. Seidl, C. L. Janssen, E. F. Valeev, M. L. Leininger,
    J. F. Gonthier, R. M. Richard, H. R. McAlexander, M. Saitow, X. Wang,
    P. Verma, and M. H. Lechner

             Previous Authors, Complete List of Code Contributors,
                       and Citations for Specific Modules
    https://github.com/psi4/psi4/blob/master/codemeta.json
    https://github.com/psi4/psi4/graphs/contributors
    http://psicode.org/psi4manual/master/introduction.html#citing-psifour

    -----------------------------------------------------------------------


    Psi4 started on: Sunday, 21 March 2021 04:14AM

    Process ID: 170222
    Host:       c445-043.stampede2.tacc.utexas.edu
    PSIDATADIR: /home1/07844/xy3866/miniconda3/envs/p4env/share/psi4
    Memory:     500.0 MiB
    Threads:    32
    
  ==> Input File <==

--------------------------------------------------------------------------
#psi4
#
memory 32 gb

molecule  {
0 1
  O       -1.3191770     0.6538360    -1.0992360
  O       -1.5735610    -2.4640850     0.5135810
  O       -3.5606630    -1.0699430    -0.4600060
  O       -1.4399290     3.1254620     0.1265180
  O        1.1065530    -2.3833650     0.0076020
  N        0.7686360    -0.1579440    -0.3706350
  N        2.9363770    -0.9938720     0.1460080
  N        4.7058880     0.4431110     0.3611260
  C       -1.3768610    -1.0680440     0.5552780
  C       -2.7379840    -0.3746360     0.4578480
  C       -0.6377490    -0.5042940    -0.6790150
  C       -2.3707440     0.9655450    -0.1585060
  C       -1.8992030     1.9895750     0.8571380
  C        1.2377674     1.1378580    -0.4453051
  C        1.6104480    -1.2470590    -0.0585760
  C        2.5474650     1.3753690    -0.1998620
  C        3.3802090     0.2523040     0.0808410
  H       -0.8441360    -0.7686950     1.4698480
  H       -3.2257400    -0.2778790     1.4400230
  H       -0.6227070    -1.2428120    -1.4883720
  H       -3.1941750     1.3785730    -0.7472070
  H       -1.0952130     1.5703990     1.4802000
  H       -2.7410530     2.2466610     1.5166010
  H       -0.6710550    -2.8260740     0.3542250
  H       -3.3063470    -2.0105220    -0.3629290
  H        0.4929290     1.8778260    -0.6840360
  H       -1.2098800     3.8154810     0.7720340
  H        2.9334840     2.3875570    -0.2389120
  H        5.1589650     1.2712730    -0.0008400
  H        5.2635310    -0.4031270     0.3606700
units angstrom
no_reorient  #important for SAPT in psi4, default
symmetry c1  #important for SAPT in psi4, default
}

set PROPERTIES_ORIGIN ["COM"]
properties('MP2/aug-cc-pvtz', properties = ['dipole'])
--------------------------------------------------------------------------

  Memory set to  29.802 GiB by Python driver.
    SCF Algorithm Type (re)set to DF.

*** tstart() called on c445-043.stampede2.tacc.utexas.edu
*** at Sun Mar 21 04:14:32 2021

   => Loading Basis Set <=

    Name: AUG-CC-PVTZ
    Role: ORBITAL
    Keyword: BASIS
    atoms 1-5   entry O          line   331 file /home1/07844/xy3866/miniconda3/envs/p4env/share/psi4/basis/aug-cc-pvtz.gbs 
    atoms 6-8   entry N          line   285 file /home1/07844/xy3866/miniconda3/envs/p4env/share/psi4/basis/aug-cc-pvtz.gbs 
    atoms 9-17  entry C          line   239 file /home1/07844/xy3866/miniconda3/envs/p4env/share/psi4/basis/aug-cc-pvtz.gbs 
    atoms 18-30 entry H          line    40 file /home1/07844/xy3866/miniconda3/envs/p4env/share/psi4/basis/aug-cc-pvtz.gbs 


         ---------------------------------------------------------
                                   SCF
               by Justin Turney, Rob Parrish, Andy Simmonett
                          and Daniel G. A. Smith
                              RHF Reference
                       32 Threads,  30517 MiB Core
         ---------------------------------------------------------

  ==> Geometry <==

    Molecular point group: c1
    Full point group: C1

    Geometry (in Angstrom), charge = 0, multiplicity = 1:

       Center              X                  Y                   Z               Mass       
    ------------   -----------------  -----------------  -----------------  -----------------
         O           -1.332256260142     0.681520484344    -1.083402370856    15.994914619570
         O           -1.586640260142    -2.436400515656     0.529414629144    15.994914619570
         O           -3.573742260142    -1.042258515656    -0.444172370856    15.994914619570
         O           -1.453008260142     3.153146484344     0.142351629144    15.994914619570
         O            1.093473739858    -2.355680515656     0.023435629144    15.994914619570
         N            0.755556739858    -0.130259515656    -0.354801370856    14.003074004430
         N            2.923297739858    -0.966187515656     0.161841629144    14.003074004430
         N            4.692808739858     0.470795484344     0.376959629144    14.003074004430
         C           -1.389940260142    -1.040359515656     0.571111629144    12.000000000000
         C           -2.751063260142    -0.346951515656     0.473681629144    12.000000000000
         C           -0.650828260142    -0.476609515656    -0.663181370856    12.000000000000
         C           -2.383823260142     0.993229484344    -0.142672370856    12.000000000000
         C           -1.912282260142     2.017259484344     0.872971629144    12.000000000000
         C            1.224688139858     1.165542484344    -0.429471470856    12.000000000000
         C            1.597368739858    -1.219374515656    -0.042742370856    12.000000000000
         C            2.534385739858     1.403053484344    -0.184028370856    12.000000000000
         C            3.367129739858     0.279988484344     0.096674629144    12.000000000000
         H           -0.857215260142    -0.741010515656     1.485681629144     1.007825032230
         H           -3.238819260142    -0.250194515656     1.455856629144     1.007825032230
         H           -0.635786260142    -1.215127515656    -1.472538370856     1.007825032230
         H           -3.207254260142     1.406257484344    -0.731373370856     1.007825032230
         H           -1.108292260142     1.598083484344     1.496033629144     1.007825032230
         H           -2.754132260142     2.274345484344     1.532434629144     1.007825032230
         H           -0.684134260142    -2.798389515656     0.370058629144     1.007825032230
         H           -3.319426260142    -1.982837515656    -0.347095370856     1.007825032230
         H            0.479849739858     1.905510484344    -0.668202370856     1.007825032230
         H           -1.222959260142     3.843165484344     0.787867629144     1.007825032230
         H            2.920404739858     2.415241484344    -0.223078370856     1.007825032230
         H            5.145885739858     1.298957484344     0.014993629144     1.007825032230
         H            5.250451739858    -0.375442515656     0.376503629144     1.007825032230

  Running in c1 symmetry.

  Rotational constants: A =      0.02640  B =      0.01179  C =      0.00872 [cm^-1]
  Rotational constants: A =    791.46600  B =    353.35454  C =    261.48436 [MHz]
  Nuclear repulsion = 1334.174409162754500

  Charge       = 0
  Multiplicity = 1
  Electrons    = 128
  Nalpha       = 64
  Nbeta        = 64

  ==> Algorithm <==

  SCF Algorithm Type is DF.
  DIIS enabled.
  MOM disabled.
  Fractional occupation disabled.
  Guess Type is SAD.
  Energy threshold   = 1.00e-10
  Density threshold  = 1.00e-10
  Integral threshold = 1.00e-12

  ==> Primary Basis <==

  Basis Set: AUG-CC-PVTZ
    Blend: AUG-CC-PVTZ
    Number of shells: 355
    Number of basis functions: 1081
    Number of Cartesian functions: 1260
    Spherical Harmonics?: true
    Max angular momentum: 3

   => Loading Basis Set <=

    Name: (AUG-CC-PVTZ AUX)
    Role: JKFIT
    Keyword: DF_BASIS_SCF
    atoms 1-5   entry O          line   286 file /home1/07844/xy3866/miniconda3/envs/p4env/share/psi4/basis/aug-cc-pvtz-jkfit.gbs 
    atoms 6-8   entry N          line   224 file /home1/07844/xy3866/miniconda3/envs/p4env/share/psi4/basis/aug-cc-pvtz-jkfit.gbs 
    atoms 9-17  entry C          line   162 file /home1/07844/xy3866/miniconda3/envs/p4env/share/psi4/basis/aug-cc-pvtz-jkfit.gbs 
    atoms 18-30 entry H          line    70 file /home1/07844/xy3866/miniconda3/envs/p4env/share/psi4/basis/aug-cc-pvtz-jkfit.gbs 

  ==> Integral Setup <==

  DFHelper Memory: AOs need 17.303 GiB; user supplied 22.352 GiB. Using in-core AOs.

  ==> MemDFJK: Density-Fitted J/K Matrices <==

    J tasked:                   Yes
    K tasked:                   Yes
    wK tasked:                   No
    OpenMP threads:              32
    Memory [MiB]:             22888
    Algorithm:                 Core
    Schwarz Cutoff:           1E-12
    Mask sparsity (%):      18.6982
    Fitting Condition:        1E-10

   => Auxiliary Basis Set <=

  Basis Set: (AUG-CC-PVTZ AUX)
    Blend: AUG-CC-PVTZ-JKFIT
    Number of shells: 692
    Number of basis functions: 2366
    Number of Cartesian functions: 2942
    Spherical Harmonics?: true
    Max angular momentum: 4

  Minimum eigenvalue in the overlap matrix is 9.6559775395E-07.
  Reciprocal condition number of the overlap matrix is 3.9405234756E-08.
    Using symmetric orthogonalization.

  ==> Pre-Iterations <==

  SCF Guess: Superposition of Atomic Densities via on-the-fly atomic UHF (no occupation information).

   -------------------------
    Irrep   Nso     Nmo    
   -------------------------
     A       1081    1081 
   -------------------------
    Total    1081    1081
   -------------------------

  ==> Iterations <==

                           Total Energy        Delta E     RMS |[F,P]|

   @DF-RHF iter SAD:  -885.97663769388930   -8.85977e+02   0.00000e+00 
   @DF-RHF iter   1:  -885.89653821145021    8.00995e-02   9.13244e-04 DIIS
   @DF-RHF iter   2:  -886.26633237856663   -3.69794e-01   5.00920e-04 DIIS
   @DF-RHF iter   3:  -886.36520421999796   -9.88718e-02   1.02963e-04 DIIS
   @DF-RHF iter   4:  -886.37227569971276   -7.07148e-03   4.19521e-05 DIIS
   @DF-RHF iter   5:  -886.37336332209725   -1.08762e-03   9.21769e-06 DIIS
   @DF-RHF iter   6:  -886.37346773688887   -1.04415e-04   4.41458e-06 DIIS
   @DF-RHF iter   7:  -886.37349263453041   -2.48976e-05   1.61572e-06 DIIS
   @DF-RHF iter   8:  -886.37349804364499   -5.40911e-06   6.37871e-07 DIIS
   @DF-RHF iter   9:  -886.37349881885643   -7.75211e-07   2.41494e-07 DIIS
   @DF-RHF iter  10:  -886.37349892900568   -1.10149e-07   9.36487e-08 DIIS
   @DF-RHF iter  11:  -886.37349894472084   -1.57152e-08   3.39720e-08 DIIS
   @DF-RHF iter  12:  -886.37349894635724   -1.63641e-09   1.33395e-08 DIIS
   @DF-RHF iter  13:  -886.37349894661531   -2.58069e-10   3.95510e-09 DIIS
   @DF-RHF iter  14:  -886.37349894663771   -2.23963e-11   1.62783e-09 DIIS
   @DF-RHF iter  15:  -886.37349894664158   -3.86535e-12   7.73380e-10 DIIS
   @DF-RHF iter  16:  -886.37349894664465   -3.06954e-12   3.06105e-10 DIIS
   @DF-RHF iter  17:  -886.37349894664396    6.82121e-13   1.48198e-10 DIIS
   @DF-RHF iter  18:  -886.37349894664408   -1.13687e-13   5.24787e-11 DIIS
  Energy and wave function converged.


  ==> Post-Iterations <==

    Orbital Energies [Eh]
    ---------------------

    Doubly Occupied:                                                      

       1A    -20.586485     2A    -20.580541     3A    -20.558571  
       4A    -20.555821     5A    -20.519054     6A    -15.630677  
       7A    -15.601012     8A    -15.552374     9A    -11.385300  
      10A    -11.359622    11A    -11.338219    12A    -11.324817  
      13A    -11.303145    14A    -11.297316    15A    -11.295922  
      16A    -11.292795    17A    -11.247838    18A     -1.427869  
      19A     -1.392896    20A     -1.382527    21A     -1.374789  
      22A     -1.345847    23A     -1.302808    24A     -1.267580  
      25A     -1.181268    26A     -1.081821    27A     -1.067370  
      28A     -1.016366    29A     -0.935594    30A     -0.905633  
      31A     -0.876406    32A     -0.829182    33A     -0.811876  
      34A     -0.766320    35A     -0.748716    36A     -0.733996  
      37A     -0.722610    38A     -0.707538    39A     -0.702960  
      40A     -0.685666    41A     -0.674475    42A     -0.652865  
      43A     -0.648455    44A     -0.632318    45A     -0.619700  
      46A     -0.617650    47A     -0.608817    48A     -0.590972  
      49A     -0.577003    50A     -0.564743    51A     -0.555357  
      52A     -0.547619    53A     -0.536046    54A     -0.530782  
      55A     -0.493745    56A     -0.480353    57A     -0.472938  
      58A     -0.462545    59A     -0.457777    60A     -0.452258  
      61A     -0.441624    62A     -0.430183    63A     -0.392134  
      64A     -0.350567  

    Virtual:                                                              

      65A      0.014348    66A      0.021987    67A      0.031808  
      68A      0.037925    69A      0.041367    70A      0.044798  
      71A      0.052946    72A      0.053868    73A      0.055459  
      74A      0.064369    75A      0.065350    76A      0.072722  
      77A      0.082503    78A      0.083700    79A      0.085559  
      80A      0.089586    81A      0.099517    82A      0.102845  
      83A      0.106135    84A      0.109607    85A      0.111598  
      86A      0.112316    87A      0.117816    88A      0.119460  
      89A      0.124547    90A      0.127061    91A      0.129472  
      92A      0.134323    93A      0.138098    94A      0.139699  
      95A      0.144567    96A      0.149141    97A      0.151764  
      98A      0.155362    99A      0.157258   100A      0.161627  
     101A      0.164198   102A      0.164898   103A      0.169872  
     104A      0.172463   105A      0.176958   106A      0.179044  
     107A      0.181376   108A      0.184287   109A      0.197949  
     110A      0.199672   111A      0.204392   112A      0.205796  
     113A      0.211175   114A      0.212276   115A      0.219264  
     116A      0.223937   117A      0.229483   118A      0.234030  
     119A      0.237723   120A      0.240997   121A      0.247588  
     122A      0.249080   123A      0.251095   124A      0.254134  
     125A      0.255620   126A      0.261000   127A      0.265601  
     128A      0.268815   129A      0.273405   130A      0.276083  
     131A      0.278136   132A      0.281922   133A      0.283922  
     134A      0.286007   135A      0.292139   136A      0.293227  
     137A      0.299014   138A      0.302180   139A      0.303135  
     140A      0.307049   141A      0.311008   142A      0.314267  
     143A      0.317192   144A      0.318043   145A      0.323417  
     146A      0.327541   147A      0.329294   148A      0.335623  
     149A      0.338110   150A      0.341867   151A      0.342428  
     152A      0.347422   153A      0.349474   154A      0.355388  
     155A      0.359890   156A      0.363842   157A      0.367890  
     158A      0.370078   159A      0.375815   160A      0.380810  
     161A      0.382366   162A      0.386724   163A      0.389084  
     164A      0.391274   165A      0.393070   166A      0.397900  
     167A      0.402216   168A      0.404225   169A      0.406065  
     170A      0.407220   171A      0.410803   172A      0.419262  
     173A      0.423091   174A      0.426644   175A      0.428997  
     176A      0.432384   177A      0.437038   178A      0.442328  
     179A      0.443922   180A      0.452950   181A      0.455004  
     182A      0.457806   183A      0.462921   184A      0.464936  
     185A      0.465541   186A      0.467736   187A      0.470105  
     188A      0.472655   189A      0.476284   190A      0.481315  
     191A      0.483225   192A      0.488656   193A      0.491910  
     194A      0.493886   195A      0.496892   196A      0.504716  
     197A      0.509266   198A      0.511244   199A      0.513976  
     200A      0.517710   201A      0.519288   202A      0.522929  
     203A      0.526850   204A      0.528009   205A      0.536067  
     206A      0.538055   207A      0.538735   208A      0.542529  
     209A      0.545520   210A      0.548896   211A      0.552426  
     212A      0.552903   213A      0.557022   214A      0.564429  
     215A      0.566658   216A      0.570706   217A      0.575713  
     218A      0.576340   219A      0.580667   220A      0.587757  
     221A      0.589256   222A      0.596339   223A      0.598214  
     224A      0.606517   225A      0.608435   226A      0.610299  
     227A      0.617294   228A      0.619974   229A      0.625839  
     230A      0.628710   231A      0.631277   232A      0.634000  
     233A      0.639083   234A      0.643789   235A      0.648264  
     236A      0.653229   237A      0.655346   238A      0.662047  
     239A      0.663648   240A      0.668878   241A      0.670954  
     242A      0.672199   243A      0.681320   244A      0.683476  
     245A      0.687231   246A      0.693138   247A      0.696448  
     248A      0.698950   249A      0.701565   250A      0.705826  
     251A      0.708938   252A      0.714142   253A      0.717520  
     254A      0.721694   255A      0.731572   256A      0.734748  
     257A      0.743501   258A      0.747914   259A      0.749400  
     260A      0.754489   261A      0.758349   262A      0.759276  
     263A      0.765141   264A      0.767770   265A      0.773738  
     266A      0.779913   267A      0.788187   268A      0.791051  
     269A      0.797982   270A      0.804316   271A      0.809685  
     272A      0.812093   273A      0.817281   274A      0.820226  
     275A      0.829730   276A      0.839101   277A      0.841221  
     278A      0.846529   279A      0.851287   280A      0.854429  
     281A      0.856220   282A      0.862924   283A      0.866120  
     284A      0.869429   285A      0.873676   286A      0.877672  
     287A      0.883642   288A      0.888202   289A      0.895590  
     290A      0.897189   291A      0.902205   292A      0.906772  
     293A      0.912425   294A      0.919942   295A      0.921901  
     296A      0.924883   297A      0.933477   298A      0.936449  
     299A      0.940607   300A      0.945578   301A      0.946393  
     302A      0.951137   303A      0.954692   304A      0.962306  
     305A      0.962525   306A      0.970781   307A      0.975446  
     308A      0.978861   309A      0.981784   310A      0.988547  
     311A      0.992580   312A      0.998133   313A      0.998509  
     314A      1.003753   315A      1.008968   316A      1.011221  
     317A      1.017752   318A      1.022447   319A      1.023999  
     320A      1.026831   321A      1.029392   322A      1.038539  
     323A      1.039586   324A      1.042879   325A      1.048794  
     326A      1.054231   327A      1.056943   328A      1.061677  
     329A      1.064032   330A      1.068550   331A      1.071912  
     332A      1.072908   333A      1.084355   334A      1.087607  
     335A      1.090649   336A      1.091570   337A      1.098097  
     338A      1.099540   339A      1.101799   340A      1.103627  
     341A      1.114402   342A      1.118175   343A      1.124803  
     344A      1.128991   345A      1.134048   346A      1.135000  
     347A      1.143244   348A      1.148391   349A      1.150765  
     350A      1.151382   351A      1.156575   352A      1.161525  
     353A      1.164218   354A      1.171417   355A      1.174934  
     356A      1.177957   357A      1.183028   358A      1.186749  
     359A      1.188370   360A      1.194565   361A      1.199125  
     362A      1.206761   363A      1.212332   364A      1.214607  
     365A      1.217994   366A      1.222608   367A      1.229170  
     368A      1.232512   369A      1.235037   370A      1.239939  
     371A      1.243881   372A      1.247844   373A      1.256015  
     374A      1.262510   375A      1.265449   376A      1.266256  
     377A      1.273567   378A      1.284090   379A      1.286752  
     380A      1.293675   381A      1.297778   382A      1.299528  
     383A      1.302743   384A      1.306651   385A      1.311430  
     386A      1.318048   387A      1.318962   388A      1.325388  
     389A      1.335693   390A      1.341647   391A      1.349154  
     392A      1.353186   393A      1.359919   394A      1.362755  
     395A      1.367426   396A      1.370601   397A      1.378902  
     398A      1.390959   399A      1.392069   400A      1.395039  
     401A      1.400291   402A      1.401809   403A      1.408763  
     404A      1.414470   405A      1.417755   406A      1.430577  
     407A      1.434427   408A      1.436951   409A      1.446275  
     410A      1.448253   411A      1.451796   412A      1.458786  
     413A      1.463685   414A      1.471674   415A      1.478903  
     416A      1.481574   417A      1.488362   418A      1.488978  
     419A      1.497587   420A      1.500546   421A      1.502311  
     422A      1.507258   423A      1.513223   424A      1.519580  
     425A      1.519999   426A      1.521828   427A      1.536083  
     428A      1.542979   429A      1.548596   430A      1.550167  
     431A      1.558415   432A      1.563632   433A      1.568070  
     434A      1.571046   435A      1.579247   436A      1.581877  
     437A      1.587409   438A      1.591308   439A      1.593438  
     440A      1.603339   441A      1.608011   442A      1.614571  
     443A      1.626753   444A      1.634815   445A      1.637847  
     446A      1.640553   447A      1.646920   448A      1.649438  
     449A      1.653247   450A      1.654995   451A      1.661435  
     452A      1.665432   453A      1.670986   454A      1.677375  
     455A      1.683865   456A      1.688214   457A      1.694466  
     458A      1.704140   459A      1.708226   460A      1.714558  
     461A      1.717799   462A      1.722688   463A      1.727592  
     464A      1.729028   465A      1.738496   466A      1.742718  
     467A      1.747571   468A      1.753564   469A      1.762381  
     470A      1.767750   471A      1.769755   472A      1.776993  
     473A      1.786600   474A      1.789466   475A      1.795675  
     476A      1.798169   477A      1.800536   478A      1.805921  
     479A      1.814704   480A      1.820360   481A      1.831441  
     482A      1.833488   483A      1.837521   484A      1.844579  
     485A      1.851656   486A      1.853024   487A      1.861109  
     488A      1.865328   489A      1.867417   490A      1.878112  
     491A      1.883227   492A      1.890516   493A      1.893917  
     494A      1.906976   495A      1.908636   496A      1.913346  
     497A      1.920392   498A      1.929864   499A      1.931705  
     500A      1.945410   501A      1.950588   502A      1.959836  
     503A      1.962211   504A      1.963869   505A      1.970105  
     506A      1.972338   507A      1.980361   508A      1.987057  
     509A      1.989423   510A      1.993750   511A      2.005209  
     512A      2.007125   513A      2.018446   514A      2.023927  
     515A      2.028852   516A      2.033223   517A      2.039706  
     518A      2.046047   519A      2.052518   520A      2.059322  
     521A      2.062776   522A      2.068764   523A      2.070359  
     524A      2.079772   525A      2.083443   526A      2.085529  
     527A      2.090432   528A      2.099528   529A      2.108626  
     530A      2.116405   531A      2.121844   532A      2.131054  
     533A      2.137445   534A      2.144069   535A      2.146271  
     536A      2.155802   537A      2.161420   538A      2.164949  
     539A      2.167403   540A      2.171864   541A      2.186830  
     542A      2.190869   543A      2.197295   544A      2.200951  
     545A      2.209426   546A      2.213999   547A      2.234944  
     548A      2.244233   549A      2.248328   550A      2.253587  
     551A      2.257798   552A      2.263414   553A      2.269195  
     554A      2.275282   555A      2.280351   556A      2.288305  
     557A      2.300737   558A      2.310414   559A      2.311644  
     560A      2.319902   561A      2.331817   562A      2.339544  
     563A      2.349051   564A      2.357438   565A      2.359060  
     566A      2.366946   567A      2.376337   568A      2.379644  
     569A      2.388027   570A      2.404340   571A      2.417900  
     572A      2.423496   573A      2.429397   574A      2.434563  
     575A      2.446185   576A      2.451963   577A      2.460543  
     578A      2.464264   579A      2.472746   580A      2.478734  
     581A      2.482524   582A      2.493202   583A      2.502277  
     584A      2.512604   585A      2.529264   586A      2.533643  
     587A      2.547204   588A      2.554885   589A      2.559940  
     590A      2.566511   591A      2.578995   592A      2.581859  
     593A      2.593562   594A      2.600393   595A      2.603757  
     596A      2.613599   597A      2.622743   598A      2.626743  
     599A      2.638736   600A      2.642892   601A      2.648725  
     602A      2.657425   603A      2.661636   604A      2.672376  
     605A      2.683140   606A      2.692323   607A      2.702360  
     608A      2.716736   609A      2.724357   610A      2.725017  
     611A      2.735682   612A      2.743236   613A      2.752643  
     614A      2.760040   615A      2.763156   616A      2.773678  
     617A      2.779598   618A      2.793752   619A      2.799247  
     620A      2.802771   621A      2.817357   622A      2.826247  
     623A      2.828336   624A      2.848182   625A      2.850140  
     626A      2.864803   627A      2.866273   628A      2.886195  
     629A      2.892149   630A      2.893944   631A      2.905050  
     632A      2.910536   633A      2.915015   634A      2.927636  
     635A      2.944839   636A      2.948140   637A      2.965147  
     638A      2.984429   639A      2.986237   640A      2.991463  
     641A      2.999439   642A      3.001900   643A      3.011122  
     644A      3.017956   645A      3.036729   646A      3.042888  
     647A      3.044402   648A      3.051022   649A      3.069224  
     650A      3.075610   651A      3.085440   652A      3.094845  
     653A      3.098570   654A      3.109166   655A      3.118986  
     656A      3.127797   657A      3.141215   658A      3.146630  
     659A      3.156859   660A      3.163909   661A      3.175121  
     662A      3.184312   663A      3.188231   664A      3.207796  
     665A      3.214372   666A      3.219012   667A      3.238795  
     668A      3.246124   669A      3.255536   670A      3.268688  
     671A      3.278639   672A      3.296229   673A      3.303181  
     674A      3.306273   675A      3.319071   676A      3.325084  
     677A      3.339528   678A      3.348881   679A      3.353398  
     680A      3.366461   681A      3.374408   682A      3.384639  
     683A      3.394116   684A      3.408074   685A      3.411509  
     686A      3.430596   687A      3.440895   688A      3.457226  
     689A      3.479688   690A      3.481296   691A      3.489095  
     692A      3.499107   693A      3.520736   694A      3.527475  
     695A      3.536229   696A      3.546395   697A      3.556755  
     698A      3.567958   699A      3.574434   700A      3.597940  
     701A      3.603165   702A      3.615005   703A      3.632943  
     704A      3.640809   705A      3.653091   706A      3.659381  
     707A      3.672955   708A      3.694209   709A      3.702121  
     710A      3.704182   711A      3.725246   712A      3.728109  
     713A      3.739386   714A      3.744261   715A      3.760380  
     716A      3.766610   717A      3.778465   718A      3.783430  
     719A      3.789892   720A      3.798408   721A      3.799107  
     722A      3.807628   723A      3.833004   724A      3.835730  
     725A      3.844647   726A      3.852423   727A      3.853405  
     728A      3.868365   729A      3.871838   730A      3.881875  
     731A      3.897177   732A      3.898318   733A      3.910697  
     734A      3.927345   735A      3.934698   736A      3.946667  
     737A      3.952620   738A      3.957157   739A      3.963788  
     740A      3.966105   741A      3.977668   742A      3.984167  
     743A      3.995549   744A      4.008961   745A      4.014761  
     746A      4.020558   747A      4.031866   748A      4.040869  
     749A      4.046035   750A      4.056384   751A      4.061895  
     752A      4.071476   753A      4.079018   754A      4.081739  
     755A      4.084848   756A      4.088131   757A      4.099506  
     758A      4.119872   759A      4.124577   760A      4.142438  
     761A      4.144185   762A      4.149959   763A      4.158328  
     764A      4.160108   765A      4.168385   766A      4.173336  
     767A      4.185093   768A      4.192284   769A      4.193369  
     770A      4.204054   771A      4.207289   772A      4.227892  
     773A      4.235743   774A      4.244471   775A      4.253744  
     776A      4.260160   777A      4.266378   778A      4.273753  
     779A      4.284293   780A      4.292723   781A      4.298011  
     782A      4.301963   783A      4.304991   784A      4.313471  
     785A      4.316777   786A      4.332985   787A      4.340548  
     788A      4.354085   789A      4.358567   790A      4.371436  
     791A      4.374744   792A      4.378085   793A      4.382243  
     794A      4.394048   795A      4.402498   796A      4.404305  
     797A      4.409655   798A      4.412237   799A      4.428566  
     800A      4.434145   801A      4.436560   802A      4.447018  
     803A      4.449968   804A      4.458009   805A      4.474126  
     806A      4.483221   807A      4.490517   808A      4.495838  
     809A      4.501801   810A      4.507562   811A      4.511031  
     812A      4.525806   813A      4.534669   814A      4.546076  
     815A      4.551188   816A      4.566103   817A      4.576742  
     818A      4.584303   819A      4.601610   820A      4.603845  
     821A      4.614215   822A      4.618528   823A      4.633074  
     824A      4.638248   825A      4.648925   826A      4.669702  
     827A      4.671801   828A      4.687519   829A      4.690317  
     830A      4.708044   831A      4.712411   832A      4.721004  
     833A      4.727309   834A      4.729289   835A      4.739838  
     836A      4.752193   837A      4.756698   838A      4.763834  
     839A      4.773132   840A      4.783248   841A      4.793742  
     842A      4.809689   843A      4.818679   844A      4.827509  
     845A      4.832830   846A      4.841477   847A      4.844220  
     848A      4.851401   849A      4.864533   850A      4.883063  
     851A      4.899201   852A      4.908266   853A      4.922073  
     854A      4.934775   855A      4.952362   856A      4.954807  
     857A      4.962778   858A      4.969471   859A      4.975376  
     860A      4.978826   861A      4.990484   862A      5.006269  
     863A      5.020162   864A      5.021345   865A      5.040905  
     866A      5.051436   867A      5.060968   868A      5.068341  
     869A      5.094250   870A      5.097588   871A      5.110882  
     872A      5.118173   873A      5.126583   874A      5.136450  
     875A      5.140499   876A      5.155807   877A      5.165710  
     878A      5.172329   879A      5.177752   880A      5.198790  
     881A      5.212014   882A      5.226973   883A      5.243687  
     884A      5.251267   885A      5.262913   886A      5.271073  
     887A      5.285471   888A      5.296347   889A      5.305790  
     890A      5.307194   891A      5.313873   892A      5.326338  
     893A      5.336709   894A      5.343735   895A      5.348305  
     896A      5.355235   897A      5.364865   898A      5.380810  
     899A      5.390385   900A      5.397464   901A      5.407366  
     902A      5.417736   903A      5.425978   904A      5.435726  
     905A      5.440331   906A      5.444624   907A      5.462670  
     908A      5.474226   909A      5.480466   910A      5.487921  
     911A      5.501235   912A      5.507150   913A      5.531786  
     914A      5.535369   915A      5.544731   916A      5.557838  
     917A      5.561086   918A      5.587925   919A      5.591154  
     920A      5.600523   921A      5.603913   922A      5.615268  
     923A      5.642601   924A      5.645858   925A      5.657344  
     926A      5.660065   927A      5.674236   928A      5.682582  
     929A      5.697775   930A      5.709263   931A      5.721395  
     932A      5.723878   933A      5.741595   934A      5.757424  
     935A      5.765121   936A      5.780597   937A      5.787297  
     938A      5.800462   939A      5.819812   940A      5.832798  
     941A      5.844209   942A      5.853191   943A      5.875189  
     944A      5.877377   945A      5.895283   946A      5.911233  
     947A      5.931214   948A      5.948531   949A      5.968427  
     950A      5.984246   951A      5.993765   952A      6.008479  
     953A      6.019715   954A      6.034968   955A      6.050283  
     956A      6.061638   957A      6.082686   958A      6.113462  
     959A      6.136198   960A      6.141915   961A      6.155585  
     962A      6.162014   963A      6.174526   964A      6.189872  
     965A      6.233509   966A      6.245446   967A      6.269643  
     968A      6.272067   969A      6.294751   970A      6.302001  
     971A      6.334837   972A      6.379321   973A      6.416372  
     974A      6.448777   975A      6.464423   976A      6.484840  
     977A      6.533799   978A      6.538539   979A      6.563975  
     980A      6.668225   981A      6.695767   982A      6.722306  
     983A      6.743436   984A      6.749679   985A      6.768984  
     986A      6.792354   987A      6.808385   988A      6.823222  
     989A      6.852695   990A      6.857969   991A      6.876324  
     992A      6.882019   993A      6.902357   994A      6.922861  
     995A      6.963302   996A      6.973203   997A      6.989883  
     998A      7.004510   999A      7.008004  1000A      7.024034  
    1001A      7.053031  1002A      7.061411  1003A      7.067194  
    1004A      7.089473  1005A      7.106582  1006A      7.121367  
    1007A      7.155213  1008A      7.164394  1009A      7.175154  
    1010A      7.189202  1011A      7.211165  1012A      7.216814  
    1013A      7.233595  1014A      7.247881  1015A      7.261318  
    1016A      7.295288  1017A      7.316825  1018A      7.340419  
    1019A      7.350436  1020A      7.365241  1021A      7.389276  
    1022A      7.409600  1023A      7.442367  1024A      7.444375  
    1025A      7.465658  1026A      7.500139  1027A      7.511426  
    1028A      7.524265  1029A      7.545378  1030A      7.554240  
    1031A      7.571892  1032A      7.585779  1033A      7.610375  
    1034A      7.626562  1035A      7.635985  1036A      7.650601  
    1037A      7.665164  1038A      7.691255  1039A      7.724353  
    1040A      7.750570  1041A      7.774785  1042A      7.807987  
    1043A      7.848744  1044A      7.862724  1045A      7.903109  
    1046A      7.939022  1047A      7.946177  1048A      7.964647  
    1049A      7.995594  1050A      8.020589  1051A      8.052814  
    1052A      8.078510  1053A      8.145453  1054A      8.200825  
    1055A      8.220151  1056A      8.240368  1057A      8.296801  
    1058A      8.346949  1059A      8.430579  1060A      8.475521  
    1061A      8.542621  1062A      8.667389  1063A      8.693583  
    1064A      8.828026  1065A     16.138574  1066A     16.244745  
    1067A     16.468959  1068A     16.725475  1069A     17.081840  
    1070A     17.193146  1071A     17.671641  1072A     18.127892  
    1073A     18.559039  1074A     18.780493  1075A     19.417240  
    1076A     19.642521  1077A     20.118987  1078A     20.298817  
    1079A     20.552690  1080A     21.002858  1081A     21.743714  

    Final Occupation by Irrep:
              A 
    DOCC [    64 ]

  @DF-RHF Final Energy:  -886.37349894664408

   => Energetics <=

    Nuclear Repulsion Energy =           1334.1744091627545004
    One-Electron Energy =               -3866.1196740892833077
    Two-Electron Energy =                1645.5717659798845034
    Total Energy =                       -886.3734989466440766

Computation Completed

*** tstop() called on c445-043.stampede2.tacc.utexas.edu at Sun Mar 21 04:16:35 2021
Module time:
	user time   =    2617.23 seconds =      43.62 minutes
	system time =     150.15 seconds =       2.50 minutes
	total time  =        123 seconds =       2.05 minutes
Total time:
	user time   =    2617.23 seconds =      43.62 minutes
	system time =     150.15 seconds =       2.50 minutes
	total time  =        123 seconds =       2.05 minutes
   => Loading Basis Set <=

    Name: (AUG-CC-PVTZ AUX)
    Role: RIFIT
    Keyword: DF_BASIS_MP2
    atoms 1-5   entry O          line   264 file /home1/07844/xy3866/miniconda3/envs/p4env/share/psi4/basis/aug-cc-pvtz-ri.gbs 
    atoms 6-8   entry N          line   206 file /home1/07844/xy3866/miniconda3/envs/p4env/share/psi4/basis/aug-cc-pvtz-ri.gbs 
    atoms 9-17  entry C          line   148 file /home1/07844/xy3866/miniconda3/envs/p4env/share/psi4/basis/aug-cc-pvtz-ri.gbs 
    atoms 18-30 entry H          line    30 file /home1/07844/xy3866/miniconda3/envs/p4env/share/psi4/basis/aug-cc-pvtz-ri.gbs 


*** tstart() called on c445-043.stampede2.tacc.utexas.edu
*** at Sun Mar 21 04:16:37 2021


  //>>>>>>>>>>>>>>>>>>>>>>>>>>>>>>>>>>>//
  //               DFMP2               //
  //<<<<<<<<<<<<<<<<<<<<<<<<<<<<<<<<<<<//

	 --------------------------------------------------------
	                          DF-MP2                         
	      2nd-Order Density-Fitted Moller-Plesset Theory     
	              RMP2 Wavefunction,  32 Threads             
	                                                         
	        Rob Parrish, Justin Turney, Andy Simmonett,      
	           Ed Hohenstein, and C. David Sherrill          
	 --------------------------------------------------------

   => Auxiliary Basis Set <=

  Basis Set: (AUG-CC-PVTZ AUX)
    Blend: AUG-CC-PVTZ-RI
    Number of shells: 658
    Number of basis functions: 2400
    Number of Cartesian functions: 3027
    Spherical Harmonics?: true
    Max angular momentum: 4

	 --------------------------------------------------------
	                 NBF =  1081, NAUX =  2400
	 --------------------------------------------------------
	   CLASS    FOCC     OCC    AOCC    AVIR     VIR    FVIR
	   PAIRS       0      64      64    1017    1017       0
	 --------------------------------------------------------

  DFHelper Memory: AOs need 18.583 GiB; user supplied 22.352 GiB. Using in-core AOs.


         ------------------------------------------------------------
                                     CPHF                           
                                  Rob Parrish                       
         ------------------------------------------------------------

  ==> Geometry <==

    Molecular point group: c1
    Full point group: C1

    Geometry (in Angstrom), charge = 0, multiplicity = 1:

       Center              X                  Y                   Z               Mass       
    ------------   -----------------  -----------------  -----------------  -----------------
         O           -1.332256260142     0.681520484344    -1.083402370856    15.994914619570
         O           -1.586640260142    -2.436400515656     0.529414629144    15.994914619570
         O           -3.573742260142    -1.042258515656    -0.444172370856    15.994914619570
         O           -1.453008260142     3.153146484344     0.142351629144    15.994914619570
         O            1.093473739858    -2.355680515656     0.023435629144    15.994914619570
         N            0.755556739858    -0.130259515656    -0.354801370856    14.003074004430
         N            2.923297739858    -0.966187515656     0.161841629144    14.003074004430
         N            4.692808739858     0.470795484344     0.376959629144    14.003074004430
         C           -1.389940260142    -1.040359515656     0.571111629144    12.000000000000
         C           -2.751063260142    -0.346951515656     0.473681629144    12.000000000000
         C           -0.650828260142    -0.476609515656    -0.663181370856    12.000000000000
         C           -2.383823260142     0.993229484344    -0.142672370856    12.000000000000
         C           -1.912282260142     2.017259484344     0.872971629144    12.000000000000
         C            1.224688139858     1.165542484344    -0.429471470856    12.000000000000
         C            1.597368739858    -1.219374515656    -0.042742370856    12.000000000000
         C            2.534385739858     1.403053484344    -0.184028370856    12.000000000000
         C            3.367129739858     0.279988484344     0.096674629144    12.000000000000
         H           -0.857215260142    -0.741010515656     1.485681629144     1.007825032230
         H           -3.238819260142    -0.250194515656     1.455856629144     1.007825032230
         H           -0.635786260142    -1.215127515656    -1.472538370856     1.007825032230
         H           -3.207254260142     1.406257484344    -0.731373370856     1.007825032230
         H           -1.108292260142     1.598083484344     1.496033629144     1.007825032230
         H           -2.754132260142     2.274345484344     1.532434629144     1.007825032230
         H           -0.684134260142    -2.798389515656     0.370058629144     1.007825032230
         H           -3.319426260142    -1.982837515656    -0.347095370856     1.007825032230
         H            0.479849739858     1.905510484344    -0.668202370856     1.007825032230
         H           -1.222959260142     3.843165484344     0.787867629144     1.007825032230
         H            2.920404739858     2.415241484344    -0.223078370856     1.007825032230
         H            5.145885739858     1.298957484344     0.014993629144     1.007825032230
         H            5.250451739858    -0.375442515656     0.376503629144     1.007825032230

  Nuclear repulsion = 1334.174409162754500
  Reference energy  = -886.373498946644077

  ==> Basis Set <==

  Basis Set: AUG-CC-PVTZ
    Blend: AUG-CC-PVTZ
    Number of shells: 355
    Number of basis functions: 1081
    Number of Cartesian functions: 1260
    Spherical Harmonics?: true
    Max angular momentum: 3

  ==> CGRSolver (by Rob Parrish) <==

   Number of roots    =         1
   Preconditioning    =    JACOBI
   Convergence cutoff =     1E-06
   Maximum iterations =       100

  ==> CPHFRHamiltonian (by Rob Parrish) <== 

  ==> MemDFJK: Density-Fitted J/K Matrices <==

    J tasked:                   Yes
    K tasked:                   Yes
    wK tasked:                   No
    OpenMP threads:              32
    Memory [MiB]:             22888
    Algorithm:                 Core
    Schwarz Cutoff:           1E-12
    Mask sparsity (%):      12.4829
    Fitting Condition:        1E-10

   => Auxiliary Basis Set <=

  Basis Set: (AUG-CC-PVTZ AUX)
    Blend: AUG-CC-PVTZ-JKFIT
    Number of shells: 692
    Number of basis functions: 2366
    Number of Cartesian functions: 2942
    Spherical Harmonics?: true
    Max angular momentum: 4

  ==> CPHF Iterations <==

  => Iterations <=

             Iter  Converged  Remaining    Residual
  CGR           1          0          1   1.210E-01
  CGR           2          0          1   3.844E-02
  CGR           3          0          1   1.992E-02
  CGR           4          0          1   5.922E-03
  CGR           5          0          1   2.605E-03
  CGR           6          0          1   9.941E-04
  CGR           7          0          1   3.165E-04
  CGR           8          0          1   1.186E-04
  CGR           9          0          1   4.102E-05
  CGR          10          0          1   1.584E-05
  CGR          11          0          1   6.447E-06
  CGR          12          0          1   2.322E-06
  CGR          13          1          0   8.778E-07

    CGRSolver converged.

	-----------------------------------------------------------
	 ==================> DF-MP2 Energies <==================== 
	-----------------------------------------------------------
	 Reference Energy          =    -886.3734989466440766 [Eh]
	 Singles Energy            =      -0.0000000000000000 [Eh]
	 Same-Spin Energy          =      -0.9016695232813021 [Eh]
	 Opposite-Spin Energy      =      -2.7160494704896410 [Eh]
	 Correlation Energy        =      -3.6177189937709429 [Eh]
	 Total Energy              =    -889.9912179404150265 [Eh]
	-----------------------------------------------------------
	 ================> DF-SCS-MP2 Energies <================== 
	-----------------------------------------------------------
	 SCS Same-Spin Scale       =       0.3333333333333333 [-]
	 SCS Opposite-Spin Scale   =       1.2000000000000000 [-]
	 SCS Same-Spin Energy      =      -0.3005565077604340 [Eh]
	 SCS Opposite-Spin Energy  =      -3.2592593645875692 [Eh]
	 SCS Correlation Energy    =      -3.5598158723480031 [Eh]
	 SCS Total Energy          =    -889.9333148189921303 [Eh]
	-----------------------------------------------------------



Properties will be evaluated at   0.000000,  -0.000000,  -0.000000 [a0]

Properties computed using the MP2 density matrix

  Nuclear Dipole Moment: [e a0]
     X:    -3.0866      Y:     6.9094      Z:     3.8177

  Electronic Dipole Moment: [e a0]
     X:     4.2022      Y:    -4.6117      Z:    -3.0486

  Dipole Moment: [e a0]
     X:     1.1156      Y:     2.2977      Z:     0.7691     Total:     2.6675

  Dipole Moment: [D]
     X:     2.8357      Y:     5.8401      Z:     1.9548     Total:     6.7801


*** tstop() called on c445-043.stampede2.tacc.utexas.edu at Sun Mar 21 04:29:52 2021
Module time:
	user time   =   10190.89 seconds =     169.85 minutes
	system time =     189.16 seconds =       3.15 minutes
	total time  =        795 seconds =      13.25 minutes
Total time:
	user time   =   12809.64 seconds =     213.49 minutes
	system time =     339.34 seconds =       5.66 minutes
	total time  =        920 seconds =      15.33 minutes

    Psi4 stopped on: Sunday, 21 March 2021 04:29AM
    Psi4 wall time for execution: 0:15:23.11

*** Psi4 exiting successfully. Buy a developer a beer!
