
    -----------------------------------------------------------------------
          Psi4: An Open-Source Ab Initio Electronic Structure Package
                               Psi4 1.3.2 release

                         Git: Rev {HEAD} ecbda83 


    R. M. Parrish, L. A. Burns, D. G. A. Smith, A. C. Simmonett,
    A. E. DePrince III, E. G. Hohenstein, U. Bozkaya, A. Yu. Sokolov,
    R. Di Remigio, R. M. Richard, J. F. Gonthier, A. M. James,
    H. R. McAlexander, A. Kumar, M. Saitow, X. Wang, B. P. Pritchard,
    P. Verma, H. F. Schaefer III, K. Patkowski, R. A. King, E. F. Valeev,
    F. A. Evangelista, J. M. Turney, T. D. Crawford, and C. D. Sherrill,
    J. Chem. Theory Comput. 13(7) pp 3185--3197 (2017).
    (doi: 10.1021/acs.jctc.7b00174)


                         Additional Contributions by
    P. Kraus, H. Kruse, M. H. Lechner, M. C. Schieber, R. A. Shaw,
    A. Alenaizan, R. Galvelis, Z. L. Glick, S. Lehtola, and J. P. Misiewicz

    -----------------------------------------------------------------------


    Psi4 started on: Friday, 06 November 2020 01:28AM

    Process ID: 15185
    Host:       node142.bme.utexas.edu
    PSIDATADIR: /home/xy3866/psi4conda/share/psi4
    Memory:     500.0 MiB
    Threads:    8
    
  ==> Input File <==

--------------------------------------------------------------------------
#psi4
#
memory 32 gb

molecule  {
0 1
  O       -1.2481010    -0.6526680     1.0325150
  O       -1.2329719     2.4822449    -0.6887301
  O       -3.2165300     1.5210990     0.7448870
  O       -2.3570290    -3.0668370     0.0949400
  O        1.3605300     2.2470340    -0.0765420
  N        0.8434040     0.0452230     0.2559430
  N        3.0572260     0.7205030    -0.2937270
  N        4.7164630    -0.8366550    -0.5722980
  C       -1.2894840     1.0784300    -0.5920770
  C       -2.7113423     0.6424674    -0.2574576
  C       -0.5254080     0.4815200     0.6000940
  C       -2.5292560    -0.7168860     0.3610560
  C       -2.5283440    -1.8503930    -0.6392900
  C        1.2197750    -1.2614080     0.3112740
  C        1.7555940     1.0674350    -0.0594030
  C        2.5111010    -1.6091400     0.0469950
  C        3.4119830    -0.5506530    -0.2589250
  H       -0.9376060     0.5914040    -1.5148910
  H       -3.3625820     0.6426650    -1.1464650
  H       -0.4402900     1.2218800     1.4039980
  H       -3.2819570    -0.9087340     1.1307830
  H       -1.7133080    -1.7003050    -1.3694640
  H       -3.4855610    -1.8340040    -1.1841350
  H       -0.2975250     2.7131790    -0.5250000
  H       -2.8475560     2.3997430     0.5086630
  H        0.4343110    -1.9634370     0.5690680
  H       -2.4338740    -3.7984320    -0.5432330
  H        2.8291120    -2.6453980     0.0739220
  H        5.1251800    -1.6708610    -0.1624140
  H        5.3198140    -0.0200540    -0.5682940
units angstrom
no_reorient  #important for SAPT in psi4, default
symmetry c1  #important for SAPT in psi4, default
}

set PROPERTIES_ORIGIN ["COM"]
properties('MP2/aug-cc-pvtz', properties = ['dipole'])
--------------------------------------------------------------------------

  Memory set to  29.802 GiB by Python driver.
    SCF Algorithm Type (re)set to DF.

*** tstart() called on node142.bme.utexas.edu
*** at Fri Nov  6 01:28:38 2020

   => Loading Basis Set <=

    Name: AUG-CC-PVTZ
    Role: ORBITAL
    Keyword: BASIS
    atoms 1-5   entry O          line   327 file /home/xy3866/psi4conda/share/psi4/basis/aug-cc-pvtz.gbs 
    atoms 6-8   entry N          line   281 file /home/xy3866/psi4conda/share/psi4/basis/aug-cc-pvtz.gbs 
    atoms 9-17  entry C          line   235 file /home/xy3866/psi4conda/share/psi4/basis/aug-cc-pvtz.gbs 
    atoms 18-30 entry H          line    36 file /home/xy3866/psi4conda/share/psi4/basis/aug-cc-pvtz.gbs 


         ---------------------------------------------------------
                                   SCF
               by Justin Turney, Rob Parrish, Andy Simmonett
                          and Daniel G. A. Smith
                              RHF Reference
                        8 Threads,  30517 MiB Core
         ---------------------------------------------------------

  ==> Geometry <==

    Molecular point group: c1
    Full point group: C1

    Geometry (in Angstrom), charge = 0, multiplicity = 1:

       Center              X                  Y                   Z               Mass       
    ------------   -----------------  -----------------  -----------------  -----------------
         O           -1.249079837442    -0.651999214044     1.032687110472    15.994914619570
         O           -1.233950737442     2.482913685956    -0.688557989528    15.994914619570
         O           -3.217508837442     1.521767785956     0.745059110472    15.994914619570
         O           -2.358007837442    -3.066168214044     0.095112110472    15.994914619570
         O            1.359551162558     2.247702785956    -0.076369889528    15.994914619570
         N            0.842425162558     0.045891785956     0.256115110472    14.003074004430
         N            3.056247162558     0.721171785956    -0.293554889528    14.003074004430
         N            4.715484162558    -0.835986214044    -0.572125889528    14.003074004430
         C           -1.290462837442     1.079098785956    -0.591904889528    12.000000000000
         C           -2.712321137442     0.643136185956    -0.257285489528    12.000000000000
         C           -0.526386837442     0.482188785956     0.600266110472    12.000000000000
         C           -2.530234837442    -0.716217214044     0.361228110472    12.000000000000
         C           -2.529322837442    -1.849724214044    -0.639117889528    12.000000000000
         C            1.218796162558    -1.260739214044     0.311446110472    12.000000000000
         C            1.754615162558     1.068103785956    -0.059230889528    12.000000000000
         C            2.510122162558    -1.608471214044     0.047167110472    12.000000000000
         C            3.411004162558    -0.549984214044    -0.258752889528    12.000000000000
         H           -0.938584837442     0.592072785956    -1.514718889528     1.007825032230
         H           -3.363560837442     0.643333785956    -1.146292889528     1.007825032230
         H           -0.441268837442     1.222548785956     1.404170110472     1.007825032230
         H           -3.282935837442    -0.908065214044     1.130955110472     1.007825032230
         H           -1.714286837442    -1.699636214044    -1.369291889528     1.007825032230
         H           -3.486539837442    -1.833335214044    -1.183962889528     1.007825032230
         H           -0.298503837442     2.713847785956    -0.524827889528     1.007825032230
         H           -2.848534837442     2.400411785956     0.508835110472     1.007825032230
         H            0.433332162558    -1.962768214044     0.569240110472     1.007825032230
         H           -2.434852837442    -3.797763214044    -0.543060889528     1.007825032230
         H            2.828133162558    -2.644729214044     0.074094110472     1.007825032230
         H            5.124201162558    -1.670192214044    -0.162241889528     1.007825032230
         H            5.318835162558    -0.019385214044    -0.568121889528     1.007825032230

  Running in c1 symmetry.

  Rotational constants: A =      0.02619  B =      0.01119  C =      0.00835 [cm^-1]
  Rotational constants: A =    785.26270  B =    335.55669  C =    250.20619 [MHz]
  Nuclear repulsion = 1323.906622553464103

  Charge       = 0
  Multiplicity = 1
  Electrons    = 128
  Nalpha       = 64
  Nbeta        = 64

  ==> Algorithm <==

  SCF Algorithm Type is DF.
  DIIS enabled.
  MOM disabled.
  Fractional occupation disabled.
  Guess Type is SAD.
  Energy threshold   = 1.00e-10
  Density threshold  = 1.00e-10
  Integral threshold = 0.00e+00

  ==> Primary Basis <==

  Basis Set: AUG-CC-PVTZ
    Blend: AUG-CC-PVTZ
    Number of shells: 355
    Number of basis function: 1081
    Number of Cartesian functions: 1260
    Spherical Harmonics?: true
    Max angular momentum: 3

   => Loading Basis Set <=

    Name: (AUG-CC-PVTZ AUX)
    Role: JKFIT
    Keyword: DF_BASIS_SCF
    atoms 1-5   entry O          line   286 file /home/xy3866/psi4conda/share/psi4/basis/aug-cc-pvtz-jkfit.gbs 
    atoms 6-8   entry N          line   224 file /home/xy3866/psi4conda/share/psi4/basis/aug-cc-pvtz-jkfit.gbs 
    atoms 9-17  entry C          line   162 file /home/xy3866/psi4conda/share/psi4/basis/aug-cc-pvtz-jkfit.gbs 
    atoms 18-30 entry H          line    70 file /home/xy3866/psi4conda/share/psi4/basis/aug-cc-pvtz-jkfit.gbs 

  ==> Pre-Iterations <==

   -------------------------------------------------------
    Irrep   Nso     Nmo     Nalpha   Nbeta   Ndocc  Nsocc
   -------------------------------------------------------
     A       1081    1081       0       0       0       0
   -------------------------------------------------------
    Total    1081    1081      64      64      64       0
   -------------------------------------------------------

  ==> Integral Setup <==

  DFHelper Memory: AOs need 18.210 GiB; user supplied 22.352 GiB. Using in-core AOs.

  ==> MemDFJK: Density-Fitted J/K Matrices <==

    J tasked:                   Yes
    K tasked:                   Yes
    wK tasked:                   No
    OpenMP threads:               8
    Memory [MiB]:             22888
    Algorithm:                 Disk
    Schwarz Cutoff:           1E-12
    Mask sparsity (%):      13.2809
    Fitting Condition:        1E-10

   => Auxiliary Basis Set <=

  Basis Set: (AUG-CC-PVTZ AUX)
    Blend: AUG-CC-PVTZ-JKFIT
    Number of shells: 692
    Number of basis function: 2366
    Number of Cartesian functions: 2942
    Spherical Harmonics?: true
    Max angular momentum: 4

  Minimum eigenvalue in the overlap matrix is 9.5464842724E-07.
  Using Symmetric Orthogonalization.

  SCF Guess: Superposition of Atomic Densities via on-the-fly atomic UHF.

  ==> Iterations <==

                           Total Energy        Delta E     RMS |[F,P]|

   @DF-RHF iter SAD:  -886.00191207417413   -8.86002e+02   0.00000e+00 
   @DF-RHF iter   1:  -885.89474164682781    1.07170e-01   9.16088e-04 DIIS
   @DF-RHF iter   2:  -886.26438143171356   -3.69640e-01   5.05748e-04 DIIS
   @DF-RHF iter   3:  -886.36540516025661   -1.01024e-01   1.03055e-04 DIIS
   @DF-RHF iter   4:  -886.37253218658748   -7.12703e-03   4.17321e-05 DIIS
   @DF-RHF iter   5:  -886.37361769226925   -1.08551e-03   9.10838e-06 DIIS
   @DF-RHF iter   6:  -886.37371993186275   -1.02240e-04   4.42300e-06 DIIS
   @DF-RHF iter   7:  -886.37374450701725   -2.45752e-05   1.61362e-06 DIIS
   @DF-RHF iter   8:  -886.37374995512698   -5.44811e-06   6.32059e-07 DIIS
   @DF-RHF iter   9:  -886.37375073903900   -7.83912e-07   2.43135e-07 DIIS
   @DF-RHF iter  10:  -886.37375085234760   -1.13309e-07   9.41261e-08 DIIS
   @DF-RHF iter  11:  -886.37375086858731   -1.62397e-08   3.44353e-08 DIIS
   @DF-RHF iter  12:  -886.37375087027613   -1.68882e-09   1.32728e-08 DIIS
   @DF-RHF iter  13:  -886.37375087053795   -2.61821e-10   4.00449e-09 DIIS
   @DF-RHF iter  14:  -886.37375087057035   -3.24007e-11   1.66065e-09 DIIS
   @DF-RHF iter  15:  -886.37375087056955    7.95808e-13   7.93746e-10 DIIS
   @DF-RHF iter  16:  -886.37375087057103   -1.47793e-12   3.13536e-10 DIIS
   @DF-RHF iter  17:  -886.37375087057399   -2.95586e-12   1.52208e-10 DIIS
   @DF-RHF iter  18:  -886.37375087056967    4.32010e-12   5.13763e-11 DIIS
  Energy and wave function converged.


  ==> Post-Iterations <==

    Orbital Energies [Eh]
    ---------------------

    Doubly Occupied:                                                      

       1A    -20.582626     2A    -20.581901     3A    -20.557275  
       4A    -20.556449     5A    -20.521447     6A    -15.636783  
       7A    -15.599735     8A    -15.553155     9A    -11.387954  
      10A    -11.357707    11A    -11.341585    12A    -11.328451  
      13A    -11.301711    14A    -11.297343    15A    -11.297195  
      16A    -11.293565    17A    -11.248463    18A     -1.429666  
      19A     -1.396205    20A     -1.379552    21A     -1.373084  
      22A     -1.345429    23A     -1.305855    24A     -1.273703  
      25A     -1.182102    26A     -1.081970    27A     -1.070331  
      28A     -1.022000    29A     -0.935748    30A     -0.909502  
      31A     -0.877816    32A     -0.833440    33A     -0.811725  
      34A     -0.766892    35A     -0.752669    36A     -0.736864  
      37A     -0.720303    38A     -0.703323    39A     -0.698395  
      40A     -0.685589    41A     -0.672611    42A     -0.654582  
      43A     -0.651597    44A     -0.638441    45A     -0.620992  
      46A     -0.614764    47A     -0.606683    48A     -0.593720  
      49A     -0.575340    50A     -0.569990    51A     -0.554011  
      52A     -0.545118    53A     -0.537398    54A     -0.531935  
      55A     -0.498321    56A     -0.478427    57A     -0.475849  
      58A     -0.462404    59A     -0.459916    60A     -0.452946  
      61A     -0.440974    62A     -0.433016    63A     -0.395040  
      64A     -0.349818  

    Virtual:                                                              

      65A      0.015642    66A      0.022127    67A      0.032292  
      68A      0.037599    69A      0.040786    70A      0.044967  
      71A      0.053170    72A      0.054440    73A      0.056511  
      74A      0.062421    75A      0.064287    76A      0.074080  
      77A      0.082200    78A      0.082815    79A      0.085703  
      80A      0.089399    81A      0.100470    82A      0.101451  
      83A      0.104531    84A      0.109519    85A      0.112253  
      86A      0.113450    87A      0.119204    88A      0.120063  
      89A      0.124733    90A      0.126631    91A      0.128969  
      92A      0.134658    93A      0.137687    94A      0.140321  
      95A      0.145757    96A      0.147991    97A      0.150152  
      98A      0.152776    99A      0.155591   100A      0.159506  
     101A      0.164931   102A      0.167642   103A      0.170043  
     104A      0.173791   105A      0.177600   106A      0.179679  
     107A      0.180927   108A      0.183294   109A      0.195221  
     110A      0.197189   111A      0.203045   112A      0.205746  
     113A      0.210986   114A      0.215010   115A      0.221703  
     116A      0.224502   117A      0.227986   118A      0.234241  
     119A      0.235795   120A      0.242192   121A      0.244711  
     122A      0.247220   123A      0.251576   124A      0.251918  
     125A      0.254283   126A      0.263419   127A      0.265390  
     128A      0.269585   129A      0.272547   130A      0.275553  
     131A      0.277171   132A      0.280842   133A      0.283688  
     134A      0.284907   135A      0.288374   136A      0.292297  
     137A      0.295155   138A      0.299729   139A      0.302868  
     140A      0.306497   141A      0.311155   142A      0.315071  
     143A      0.318198   144A      0.319167   145A      0.323558  
     146A      0.326573   147A      0.331110   148A      0.333801  
     149A      0.334484   150A      0.340218   151A      0.347087  
     152A      0.350821   153A      0.352010   154A      0.354636  
     155A      0.358281   156A      0.359320   157A      0.364070  
     158A      0.367940   159A      0.369668   160A      0.379451  
     161A      0.381027   162A      0.384314   163A      0.387699  
     164A      0.391793   165A      0.394450   166A      0.398008  
     167A      0.399552   168A      0.400641   169A      0.406105  
     170A      0.406948   171A      0.412376   172A      0.419220  
     173A      0.423779   174A      0.425417   175A      0.426638  
     176A      0.432057   177A      0.436475   178A      0.443820  
     179A      0.447827   180A      0.450809   181A      0.455134  
     182A      0.456480   183A      0.458847   184A      0.462268  
     185A      0.466392   186A      0.468987   187A      0.473359  
     188A      0.474206   189A      0.477344   190A      0.479455  
     191A      0.484343   192A      0.487170   193A      0.490140  
     194A      0.495643   195A      0.497210   196A      0.501903  
     197A      0.505117   198A      0.510256   199A      0.511112  
     200A      0.517365   201A      0.520896   202A      0.521485  
     203A      0.524812   204A      0.528823   205A      0.530149  
     206A      0.535933   207A      0.537260   208A      0.539817  
     209A      0.541858   210A      0.545786   211A      0.551374  
     212A      0.554130   213A      0.557312   214A      0.557862  
     215A      0.567718   216A      0.571382   217A      0.572713  
     218A      0.579784   219A      0.582629   220A      0.589248  
     221A      0.590678   222A      0.592932   223A      0.595834  
     224A      0.599695   225A      0.610741   226A      0.612865  
     227A      0.615703   228A      0.617498   229A      0.620709  
     230A      0.623011   231A      0.626567   232A      0.628687  
     233A      0.638755   234A      0.642468   235A      0.644229  
     236A      0.645006   237A      0.651916   238A      0.657337  
     239A      0.659427   240A      0.667099   241A      0.669521  
     242A      0.673328   243A      0.676310   244A      0.684262  
     245A      0.689463   246A      0.690682   247A      0.694668  
     248A      0.696137   249A      0.700689   250A      0.707903  
     251A      0.709798   252A      0.713711   253A      0.716417  
     254A      0.721642   255A      0.727203   256A      0.730337  
     257A      0.735202   258A      0.739603   259A      0.746520  
     260A      0.751340   261A      0.758363   262A      0.759802  
     263A      0.764142   264A      0.772023   265A      0.774742  
     266A      0.777109   267A      0.778474   268A      0.786334  
     269A      0.796573   270A      0.801034   271A      0.802148  
     272A      0.810861   273A      0.815495   274A      0.822870  
     275A      0.823785   276A      0.826839   277A      0.839217  
     278A      0.844171   279A      0.845067   280A      0.853160  
     281A      0.858234   282A      0.863779   283A      0.866658  
     284A      0.871234   285A      0.873043   286A      0.875496  
     287A      0.877176   288A      0.886070   289A      0.889242  
     290A      0.892649   291A      0.897853   292A      0.901595  
     293A      0.910131   294A      0.916893   295A      0.918571  
     296A      0.922547   297A      0.925512   298A      0.928706  
     299A      0.933823   300A      0.941477   301A      0.943583  
     302A      0.945867   303A      0.951653   304A      0.956073  
     305A      0.966953   306A      0.968944   307A      0.972806  
     308A      0.974387   309A      0.982032   310A      0.984035  
     311A      0.989988   312A      0.991824   313A      0.995926  
     314A      1.002308   315A      1.010767   316A      1.014340  
     317A      1.015223   318A      1.020478   319A      1.021579  
     320A      1.025822   321A      1.030941   322A      1.032890  
     323A      1.035754   324A      1.039686   325A      1.043999  
     326A      1.050920   327A      1.055495   328A      1.060763  
     329A      1.061905   330A      1.064454   331A      1.070640  
     332A      1.073114   333A      1.077980   334A      1.081820  
     335A      1.085674   336A      1.090972   337A      1.093094  
     338A      1.095330   339A      1.101695   340A      1.105719  
     341A      1.107455   342A      1.112476   343A      1.119324  
     344A      1.125778   345A      1.130557   346A      1.131546  
     347A      1.135861   348A      1.135958   349A      1.142411  
     350A      1.149580   351A      1.151876   352A      1.160653  
     353A      1.162895   354A      1.165986   355A      1.168263  
     356A      1.178588   357A      1.182451   358A      1.185165  
     359A      1.189760   360A      1.193809   361A      1.196398  
     362A      1.200127   363A      1.206098   364A      1.212222  
     365A      1.214998   366A      1.220232   367A      1.221967  
     368A      1.224022   369A      1.227555   370A      1.231151  
     371A      1.241190   372A      1.244040   373A      1.250089  
     374A      1.252429   375A      1.256705   376A      1.263101  
     377A      1.264280   378A      1.272184   379A      1.277690  
     380A      1.282008   381A      1.289154   382A      1.292945  
     383A      1.297913   384A      1.299247   385A      1.308205  
     386A      1.310829   387A      1.317303   388A      1.326760  
     389A      1.329252   390A      1.339344   391A      1.341574  
     392A      1.346272   393A      1.353960   394A      1.360801  
     395A      1.363734   396A      1.371118   397A      1.377075  
     398A      1.378125   399A      1.385736   400A      1.387056  
     401A      1.396482   402A      1.399967   403A      1.405703  
     404A      1.413727   405A      1.421048   406A      1.425385  
     407A      1.426955   408A      1.430154   409A      1.436579  
     410A      1.441411   411A      1.448445   412A      1.452850  
     413A      1.454540   414A      1.464740   415A      1.469928  
     416A      1.474749   417A      1.480481   418A      1.485976  
     419A      1.490698   420A      1.495811   421A      1.498599  
     422A      1.505252   423A      1.506855   424A      1.515592  
     425A      1.520098   426A      1.524420   427A      1.531224  
     428A      1.536021   429A      1.540954   430A      1.543971  
     431A      1.550005   432A      1.555634   433A      1.559062  
     434A      1.564343   435A      1.569748   436A      1.575690  
     437A      1.578137   438A      1.585691   439A      1.594198  
     440A      1.595404   441A      1.598716   442A      1.606410  
     443A      1.614223   444A      1.616098   445A      1.620251  
     446A      1.630087   447A      1.633206   448A      1.642265  
     449A      1.647309   450A      1.653991   451A      1.657914  
     452A      1.661741   453A      1.671057   454A      1.676141  
     455A      1.681378   456A      1.685998   457A      1.694333  
     458A      1.695544   459A      1.701265   460A      1.709613  
     461A      1.717142   462A      1.720624   463A      1.728677  
     464A      1.732786   465A      1.733929   466A      1.737801  
     467A      1.747053   468A      1.757697   469A      1.760266  
     470A      1.762305   471A      1.768071   472A      1.775475  
     473A      1.780198   474A      1.783905   475A      1.794725  
     476A      1.799362   477A      1.803163   478A      1.806856  
     479A      1.809935   480A      1.816820   481A      1.817430  
     482A      1.825124   483A      1.831493   484A      1.837439  
     485A      1.839855   486A      1.846949   487A      1.856943  
     488A      1.857528   489A      1.859928   490A      1.866448  
     491A      1.871852   492A      1.874391   493A      1.883141  
     494A      1.892784   495A      1.896523   496A      1.907826  
     497A      1.913918   498A      1.915442   499A      1.923551  
     500A      1.936433   501A      1.937617   502A      1.946754  
     503A      1.951544   504A      1.957325   505A      1.959104  
     506A      1.970670   507A      1.978895   508A      1.983906  
     509A      1.988180   510A      1.993846   511A      1.995341  
     512A      2.001116   513A      2.007387   514A      2.012053  
     515A      2.021714   516A      2.030063   517A      2.031869  
     518A      2.035949   519A      2.047633   520A      2.048536  
     521A      2.051091   522A      2.055323   523A      2.060824  
     524A      2.066924   525A      2.070024   526A      2.083345  
     527A      2.087481   528A      2.099381   529A      2.104355  
     530A      2.109969   531A      2.123357   532A      2.126718  
     533A      2.131099   534A      2.134763   535A      2.138882  
     536A      2.143608   537A      2.149119   538A      2.154726  
     539A      2.161934   540A      2.169870   541A      2.177773  
     542A      2.180857   543A      2.191774   544A      2.195566  
     545A      2.209879   546A      2.215832   547A      2.220030  
     548A      2.221964   549A      2.232504   550A      2.239450  
     551A      2.248444   552A      2.253100   553A      2.263890  
     554A      2.268734   555A      2.277074   556A      2.283562  
     557A      2.291274   558A      2.299266   559A      2.309051  
     560A      2.316900   561A      2.325261   562A      2.328807  
     563A      2.343712   564A      2.349699   565A      2.362167  
     566A      2.368761   567A      2.371101   568A      2.373950  
     569A      2.393002   570A      2.402532   571A      2.406402  
     572A      2.413060   573A      2.416175   574A      2.426391  
     575A      2.430580   576A      2.433571   577A      2.440589  
     578A      2.455223   579A      2.456003   580A      2.468074  
     581A      2.487903   582A      2.491869   583A      2.510269  
     584A      2.513148   585A      2.517528   586A      2.524070  
     587A      2.537269   588A      2.542106   589A      2.549778  
     590A      2.551255   591A      2.570274   592A      2.573861  
     593A      2.576068   594A      2.586061   595A      2.594986  
     596A      2.602897   597A      2.610929   598A      2.614004  
     599A      2.628429   600A      2.632759   601A      2.642040  
     602A      2.649230   603A      2.659768   604A      2.667504  
     605A      2.679316   606A      2.682177   607A      2.696653  
     608A      2.701886   609A      2.705974   610A      2.723132  
     611A      2.735662   612A      2.740519   613A      2.746683  
     614A      2.752493   615A      2.756760   616A      2.760295  
     617A      2.775686   618A      2.792388   619A      2.800486  
     620A      2.810940   621A      2.827669   622A      2.828588  
     623A      2.834408   624A      2.846496   625A      2.852362  
     626A      2.862248   627A      2.866565   628A      2.874613  
     629A      2.878925   630A      2.889352   631A      2.894302  
     632A      2.910014   633A      2.914480   634A      2.927652  
     635A      2.931120   636A      2.951650   637A      2.956162  
     638A      2.964321   639A      2.975243   640A      2.986052  
     641A      2.991087   642A      3.000654   643A      3.009655  
     644A      3.011212   645A      3.026678   646A      3.031287  
     647A      3.050000   648A      3.055007   649A      3.058318  
     650A      3.069891   651A      3.082531   652A      3.092863  
     653A      3.100278   654A      3.109747   655A      3.118509  
     656A      3.129456   657A      3.136878   658A      3.141706  
     659A      3.157191   660A      3.170615   661A      3.179698  
     662A      3.190761   663A      3.192080   664A      3.197350  
     665A      3.208232   666A      3.217253   667A      3.228645  
     668A      3.239353   669A      3.247929   670A      3.251790  
     671A      3.267848   672A      3.280040   673A      3.293465  
     674A      3.302626   675A      3.307451   676A      3.322528  
     677A      3.331778   678A      3.341055   679A      3.357448  
     680A      3.361772   681A      3.373801   682A      3.384641  
     683A      3.392435   684A      3.397565   685A      3.424950  
     686A      3.428366   687A      3.437660   688A      3.462966  
     689A      3.469415   690A      3.473622   691A      3.491048  
     692A      3.500443   693A      3.501492   694A      3.519977  
     695A      3.529615   696A      3.534820   697A      3.551757  
     698A      3.554699   699A      3.561763   700A      3.574647  
     701A      3.586448   702A      3.596330   703A      3.623763  
     704A      3.638207   705A      3.646215   706A      3.650536  
     707A      3.663697   708A      3.680060   709A      3.697230  
     710A      3.700635   711A      3.708958   712A      3.714032  
     713A      3.727459   714A      3.731859   715A      3.750173  
     716A      3.755809   717A      3.765247   718A      3.775143  
     719A      3.779301   720A      3.795159   721A      3.797414  
     722A      3.802581   723A      3.805941   724A      3.819443  
     725A      3.828017   726A      3.834322   727A      3.846039  
     728A      3.858094   729A      3.867405   730A      3.870950  
     731A      3.884244   732A      3.889903   733A      3.904593  
     734A      3.916068   735A      3.922537   736A      3.923651  
     737A      3.939515   738A      3.946333   739A      3.949847  
     740A      3.959630   741A      3.969854   742A      3.985749  
     743A      3.989171   744A      3.996882   745A      4.003661  
     746A      4.015221   747A      4.017372   748A      4.024778  
     749A      4.034478   750A      4.046275   751A      4.051824  
     752A      4.059126   753A      4.064819   754A      4.073949  
     755A      4.077172   756A      4.089247   757A      4.097632  
     758A      4.102123   759A      4.109658   760A      4.125165  
     761A      4.137769   762A      4.139111   763A      4.144183  
     764A      4.154377   765A      4.156527   766A      4.170075  
     767A      4.184300   768A      4.187958   769A      4.190329  
     770A      4.206815   771A      4.208389   772A      4.219720  
     773A      4.222383   774A      4.231610   775A      4.250642  
     776A      4.257966   777A      4.269022   778A      4.276148  
     779A      4.279435   780A      4.282899   781A      4.289166  
     782A      4.295413   783A      4.304728   784A      4.309833  
     785A      4.323261   786A      4.327118   787A      4.329701  
     788A      4.345410   789A      4.349465   790A      4.355717  
     791A      4.362430   792A      4.376157   793A      4.380651  
     794A      4.386563   795A      4.393805   796A      4.406222  
     797A      4.409121   798A      4.415935   799A      4.423909  
     800A      4.424836   801A      4.432076   802A      4.444131  
     803A      4.454337   804A      4.457241   805A      4.465000  
     806A      4.470531   807A      4.479008   808A      4.487098  
     809A      4.490032   810A      4.493825   811A      4.506995  
     812A      4.517863   813A      4.529090   814A      4.532919  
     815A      4.542230   816A      4.556189   817A      4.566369  
     818A      4.570615   819A      4.586533   820A      4.593841  
     821A      4.600214   822A      4.609377   823A      4.620450  
     824A      4.633344   825A      4.647848   826A      4.656005  
     827A      4.663236   828A      4.671213   829A      4.679212  
     830A      4.695265   831A      4.698850   832A      4.704600  
     833A      4.711633   834A      4.715951   835A      4.728090  
     836A      4.740061   837A      4.746659   838A      4.751646  
     839A      4.766988   840A      4.779984   841A      4.791172  
     842A      4.797946   843A      4.802538   844A      4.811133  
     845A      4.828009   846A      4.840481   847A      4.848885  
     848A      4.852258   849A      4.866112   850A      4.885657  
     851A      4.890517   852A      4.901845   853A      4.908426  
     854A      4.921952   855A      4.934144   856A      4.947965  
     857A      4.954852   858A      4.964316   859A      4.969693  
     860A      4.978858   861A      4.980318   862A      4.997867  
     863A      5.008544   864A      5.024885   865A      5.031661  
     866A      5.053706   867A      5.058303   868A      5.061535  
     869A      5.075110   870A      5.082994   871A      5.091980  
     872A      5.109362   873A      5.125810   874A      5.128727  
     875A      5.138912   876A      5.141986   877A      5.151476  
     878A      5.156030   879A      5.186054   880A      5.197631  
     881A      5.208653   882A      5.222392   883A      5.230357  
     884A      5.236465   885A      5.241060   886A      5.254191  
     887A      5.263556   888A      5.280744   889A      5.297935  
     890A      5.300004   891A      5.303282   892A      5.310418  
     893A      5.325755   894A      5.328898   895A      5.335933  
     896A      5.347514   897A      5.354464   898A      5.363087  
     899A      5.370065   900A      5.380292   901A      5.394848  
     902A      5.401974   903A      5.406848   904A      5.421176  
     905A      5.428532   906A      5.438903   907A      5.463738  
     908A      5.470529   909A      5.483992   910A      5.486944  
     911A      5.493393   912A      5.519951   913A      5.524523  
     914A      5.527495   915A      5.539311   916A      5.542705  
     917A      5.567188   918A      5.581666   919A      5.594442  
     920A      5.597983   921A      5.600833   922A      5.612245  
     923A      5.629062   924A      5.633753   925A      5.646971  
     926A      5.653501   927A      5.653772   928A      5.680954  
     929A      5.688610   930A      5.695993   931A      5.718004  
     932A      5.721240   933A      5.732022   934A      5.759438  
     935A      5.769777   936A      5.778168   937A      5.780360  
     938A      5.798426   939A      5.811524   940A      5.828173  
     941A      5.845675   942A      5.871105   943A      5.877352  
     944A      5.897470   945A      5.904379   946A      5.911922  
     947A      5.938504   948A      5.954624   949A      5.974861  
     950A      5.981008   951A      5.997343   952A      6.002883  
     953A      6.017360   954A      6.034028   955A      6.050740  
     956A      6.059336   957A      6.069337   958A      6.105159  
     959A      6.127816   960A      6.141669   961A      6.156790  
     962A      6.163653   963A      6.181184   964A      6.195403  
     965A      6.231938   966A      6.244635   967A      6.248431  
     968A      6.265047   969A      6.275866   970A      6.312723  
     971A      6.327832   972A      6.378448   973A      6.420891  
     974A      6.432468   975A      6.466039   976A      6.493290  
     977A      6.524290   978A      6.541099   979A      6.572676  
     980A      6.656345   981A      6.690205   982A      6.705168  
     983A      6.727510   984A      6.749357   985A      6.763659  
     986A      6.795670   987A      6.801254   988A      6.821286  
     989A      6.833052   990A      6.845968   991A      6.878647  
     992A      6.901381   993A      6.909277   994A      6.926799  
     995A      6.955291   996A      6.958629   997A      6.979268  
     998A      6.989079   999A      6.997208  1000A      7.023661  
    1001A      7.047636  1002A      7.063394  1003A      7.080543  
    1004A      7.083254  1005A      7.109996  1006A      7.130069  
    1007A      7.132194  1008A      7.153658  1009A      7.180885  
    1010A      7.202508  1011A      7.214078  1012A      7.222570  
    1013A      7.227751  1014A      7.246356  1015A      7.271666  
    1016A      7.279512  1017A      7.313939  1018A      7.332831  
    1019A      7.349314  1020A      7.354672  1021A      7.394806  
    1022A      7.399299  1023A      7.431132  1024A      7.442347  
    1025A      7.461402  1026A      7.497244  1027A      7.509110  
    1028A      7.512975  1029A      7.525821  1030A      7.541434  
    1031A      7.548785  1032A      7.596548  1033A      7.606708  
    1034A      7.614848  1035A      7.628497  1036A      7.637265  
    1037A      7.654805  1038A      7.683510  1039A      7.713654  
    1040A      7.744339  1041A      7.767548  1042A      7.829665  
    1043A      7.843686  1044A      7.899915  1045A      7.926106  
    1046A      7.939853  1047A      7.952250  1048A      7.959255  
    1049A      7.988407  1050A      7.994118  1051A      8.036866  
    1052A      8.065828  1053A      8.159648  1054A      8.187487  
    1055A      8.225150  1056A      8.264265  1057A      8.285467  
    1058A      8.354768  1059A      8.405001  1060A      8.507708  
    1061A      8.552118  1062A      8.625175  1063A      8.693897  
    1064A      8.895961  1065A     16.005198  1066A     16.214386  
    1067A     16.492574  1068A     16.672019  1069A     17.085775  
    1070A     17.346939  1071A     17.633221  1072A     18.104256  
    1073A     18.570646  1074A     18.930062  1075A     19.317897  
    1076A     19.641491  1077A     20.132470  1078A     20.172455  
    1079A     20.599605  1080A     20.926812  1081A     21.788640  

    Final Occupation by Irrep:
              A 
    DOCC [    64 ]

  @DF-RHF Final Energy:  -886.37375087056967

   => Energetics <=

    Nuclear Repulsion Energy =           1323.9066225534641035
    One-Electron Energy =               -3845.4619477259534506
    Two-Electron Energy =                1635.1815743019199090
    Total Energy =                       -886.3737508705696655

Computation Completed

*** tstop() called on node142.bme.utexas.edu at Fri Nov  6 01:38:53 2020
Module time:
	user time   =    3065.24 seconds =      51.09 minutes
	system time =     218.44 seconds =       3.64 minutes
	total time  =        615 seconds =      10.25 minutes
Total time:
	user time   =    3065.24 seconds =      51.09 minutes
	system time =     218.44 seconds =       3.64 minutes
	total time  =        615 seconds =      10.25 minutes
   => Loading Basis Set <=

    Name: (AUG-CC-PVTZ AUX)
    Role: RIFIT
    Keyword: DF_BASIS_MP2
    atoms 1-5   entry O          line   264 file /home/xy3866/psi4conda/share/psi4/basis/aug-cc-pvtz-ri.gbs 
    atoms 6-8   entry N          line   206 file /home/xy3866/psi4conda/share/psi4/basis/aug-cc-pvtz-ri.gbs 
    atoms 9-17  entry C          line   148 file /home/xy3866/psi4conda/share/psi4/basis/aug-cc-pvtz-ri.gbs 
    atoms 18-30 entry H          line    30 file /home/xy3866/psi4conda/share/psi4/basis/aug-cc-pvtz-ri.gbs 


*** tstart() called on node142.bme.utexas.edu
*** at Fri Nov  6 01:38:53 2020


  //>>>>>>>>>>>>>>>>>>>>>>>>>>>>>>>>>>>//
  //               DFMP2               //
  //<<<<<<<<<<<<<<<<<<<<<<<<<<<<<<<<<<<//

	 --------------------------------------------------------
	                          DF-MP2                         
	      2nd-Order Density-Fitted Moller-Plesset Theory     
	              RMP2 Wavefunction,   8 Threads             
	                                                         
	        Rob Parrish, Justin Turney, Andy Simmonett,      
	           Ed Hohenstein, and C. David Sherrill          
	 --------------------------------------------------------

   => Auxiliary Basis Set <=

  Basis Set: (AUG-CC-PVTZ AUX)
    Blend: AUG-CC-PVTZ-RI
    Number of shells: 658
    Number of basis function: 2400
    Number of Cartesian functions: 3027
    Spherical Harmonics?: true
    Max angular momentum: 4

	 --------------------------------------------------------
	                 NBF =  1081, NAUX =  2400
	 --------------------------------------------------------
	   CLASS    FOCC     OCC    AOCC    AVIR     VIR    FVIR
	   PAIRS       0      64      64    1017    1017       0
	 --------------------------------------------------------

  DFHelper Memory: AOs need 18.210 GiB; user supplied 22.352 GiB. Using in-core AOs.


         ------------------------------------------------------------
                                     CPHF                           
                                  Rob Parrish                       
         ------------------------------------------------------------

  ==> Geometry <==

    Molecular point group: c1
    Full point group: C1

    Geometry (in Angstrom), charge = 0, multiplicity = 1:

       Center              X                  Y                   Z               Mass       
    ------------   -----------------  -----------------  -----------------  -----------------
         O           -1.249079837442    -0.651999214044     1.032687110472    15.994914619570
         O           -1.233950737442     2.482913685956    -0.688557989528    15.994914619570
         O           -3.217508837442     1.521767785956     0.745059110472    15.994914619570
         O           -2.358007837442    -3.066168214044     0.095112110472    15.994914619570
         O            1.359551162558     2.247702785956    -0.076369889528    15.994914619570
         N            0.842425162558     0.045891785956     0.256115110472    14.003074004430
         N            3.056247162558     0.721171785956    -0.293554889528    14.003074004430
         N            4.715484162558    -0.835986214044    -0.572125889528    14.003074004430
         C           -1.290462837442     1.079098785956    -0.591904889528    12.000000000000
         C           -2.712321137442     0.643136185956    -0.257285489528    12.000000000000
         C           -0.526386837442     0.482188785956     0.600266110472    12.000000000000
         C           -2.530234837442    -0.716217214044     0.361228110472    12.000000000000
         C           -2.529322837442    -1.849724214044    -0.639117889528    12.000000000000
         C            1.218796162558    -1.260739214044     0.311446110472    12.000000000000
         C            1.754615162558     1.068103785956    -0.059230889528    12.000000000000
         C            2.510122162558    -1.608471214044     0.047167110472    12.000000000000
         C            3.411004162558    -0.549984214044    -0.258752889528    12.000000000000
         H           -0.938584837442     0.592072785956    -1.514718889528     1.007825032230
         H           -3.363560837442     0.643333785956    -1.146292889528     1.007825032230
         H           -0.441268837442     1.222548785956     1.404170110472     1.007825032230
         H           -3.282935837442    -0.908065214044     1.130955110472     1.007825032230
         H           -1.714286837442    -1.699636214044    -1.369291889528     1.007825032230
         H           -3.486539837442    -1.833335214044    -1.183962889528     1.007825032230
         H           -0.298503837442     2.713847785956    -0.524827889528     1.007825032230
         H           -2.848534837442     2.400411785956     0.508835110472     1.007825032230
         H            0.433332162558    -1.962768214044     0.569240110472     1.007825032230
         H           -2.434852837442    -3.797763214044    -0.543060889528     1.007825032230
         H            2.828133162558    -2.644729214044     0.074094110472     1.007825032230
         H            5.124201162558    -1.670192214044    -0.162241889528     1.007825032230
         H            5.318835162558    -0.019385214044    -0.568121889528     1.007825032230

  Nuclear repulsion = 1323.906622553464103
  Reference energy  = -886.373750870569665

  ==> Basis Set <==

  Basis Set: AUG-CC-PVTZ
    Blend: AUG-CC-PVTZ
    Number of shells: 355
    Number of basis function: 1081
    Number of Cartesian functions: 1260
    Spherical Harmonics?: true
    Max angular momentum: 3

  ==> CGRSolver (by Rob Parrish) <==

   Number of roots    =         1
   Preconditioning    =    JACOBI
   Convergence cutoff =     1E-06
   Maximum iterations =       100

  ==> CPHFRHamiltonian (by Rob Parrish) <== 

  ==> MemDFJK: Density-Fitted J/K Matrices <==

    J tasked:                   Yes
    K tasked:                   Yes
    wK tasked:                   No
    OpenMP threads:               8
    Memory [MiB]:             22888
    Algorithm:                 Disk
    Schwarz Cutoff:           1E-12
    Mask sparsity (%):      13.2809
    Fitting Condition:        1E-10

   => Auxiliary Basis Set <=

  Basis Set: (AUG-CC-PVTZ AUX)
    Blend: AUG-CC-PVTZ-JKFIT
    Number of shells: 692
    Number of basis function: 2366
    Number of Cartesian functions: 2942
    Spherical Harmonics?: true
    Max angular momentum: 4

  ==> CPHF Iterations <==

  => Iterations <=

             Iter  Converged  Remaining    Residual
  CGR           1          0          1   1.202E-01
  CGR           2          0          1   3.821E-02
  CGR           3          0          1   1.974E-02
  CGR           4          0          1   5.885E-03
  CGR           5          0          1   2.613E-03
  CGR           6          0          1   1.001E-03
  CGR           7          0          1   3.158E-04
  CGR           8          0          1   1.210E-04
  CGR           9          0          1   4.216E-05
  CGR          10          0          1   1.648E-05
  CGR          11          0          1   6.663E-06
  CGR          12          0          1   2.409E-06
  CGR          13          1          0   9.294E-07

    CGRSolver converged.

	-----------------------------------------------------------
	 ==================> DF-MP2 Energies <==================== 
	-----------------------------------------------------------
	 Reference Energy          =    -886.3737508705696655 [Eh]
	 Singles Energy            =      -0.0000000000000000 [Eh]
	 Same-Spin Energy          =      -0.9010862586727864 [Eh]
	 Opposite-Spin Energy      =      -2.7147007933571436 [Eh]
	 Correlation Energy        =      -3.6157870520299298 [Eh]
	 Total Energy              =    -889.9895379225995384 [Eh]
	-----------------------------------------------------------
	 ================> DF-SCS-MP2 Energies <================== 
	-----------------------------------------------------------
	 SCS Same-Spin Scale       =       0.3333333333333333 [-]
	 SCS Opposite-Spin Scale   =       1.2000000000000000 [-]
	 SCS Same-Spin Energy      =      -0.3003620862242621 [Eh]
	 SCS Opposite-Spin Energy  =      -3.2576409520285723 [Eh]
	 SCS Correlation Energy    =      -3.5580030382528345 [Eh]
	 SCS Total Energy          =    -889.9317539088225431 [Eh]
	-----------------------------------------------------------



Properties will be evaluated at  -0.000000,  -0.000000,  -0.000000 [a0]

Properties computed using the MP2 density matrix

  Nuclear Dipole Moment: [e a0]
     X:    -4.8426      Y:    -6.5158      Z:    -3.1102

  Electronic Dipole Moment: [e a0]
     X:     5.5028      Y:     4.1627      Z:     2.3900

  Dipole Moment: [e a0]
     X:     0.6602      Y:    -2.3531      Z:    -0.7202     Total:     2.5479

  Dipole Moment: [D]
     X:     1.6780      Y:    -5.9810      Z:    -1.8306     Total:     6.4760


*** tstop() called on node142.bme.utexas.edu at Fri Nov  6 02:17:07 2020
Module time:
	user time   =   14118.79 seconds =     235.31 minutes
	system time =     320.23 seconds =       5.34 minutes
	total time  =       2294 seconds =      38.23 minutes
Total time:
	user time   =   17184.51 seconds =     286.41 minutes
	system time =     538.67 seconds =       8.98 minutes
	total time  =       2909 seconds =      48.48 minutes

    Psi4 stopped on: Friday, 06 November 2020 02:17AM
    Psi4 wall time for execution: 0:48:30.31

*** Psi4 exiting successfully. Buy a developer a beer!
