
    -----------------------------------------------------------------------
          Psi4: An Open-Source Ab Initio Electronic Structure Package
                               Psi4 1.3.2 release

                         Git: Rev {HEAD} ecbda83 


    R. M. Parrish, L. A. Burns, D. G. A. Smith, A. C. Simmonett,
    A. E. DePrince III, E. G. Hohenstein, U. Bozkaya, A. Yu. Sokolov,
    R. Di Remigio, R. M. Richard, J. F. Gonthier, A. M. James,
    H. R. McAlexander, A. Kumar, M. Saitow, X. Wang, B. P. Pritchard,
    P. Verma, H. F. Schaefer III, K. Patkowski, R. A. King, E. F. Valeev,
    F. A. Evangelista, J. M. Turney, T. D. Crawford, and C. D. Sherrill,
    J. Chem. Theory Comput. 13(7) pp 3185--3197 (2017).
    (doi: 10.1021/acs.jctc.7b00174)


                         Additional Contributions by
    P. Kraus, H. Kruse, M. H. Lechner, M. C. Schieber, R. A. Shaw,
    A. Alenaizan, R. Galvelis, Z. L. Glick, S. Lehtola, and J. P. Misiewicz

    -----------------------------------------------------------------------


    Psi4 started on: Thursday, 05 November 2020 05:44AM

    Process ID: 8239
    Host:       node35.bme.utexas.edu
    PSIDATADIR: /home/xy3866/psi4conda/share/psi4
    Memory:     500.0 MiB
    Threads:    8
    
  ==> Input File <==

--------------------------------------------------------------------------
#psi4
#
memory 32 gb

molecule  {
0 1
  O       -1.2481010    -0.6526680     1.0325150
  O       -1.2449750     2.4828510    -0.6861630
  O       -3.2165300     1.5210990     0.7448870
  O       -2.3570290    -3.0668370     0.0949400
  O        1.3605300     2.2470340    -0.0765420
  N        0.8434040     0.0452230     0.2559430
  N        3.0572260     0.7205030    -0.2937270
  N        4.7164630    -0.8366550    -0.5722980
  C       -1.2894840     1.0784300    -0.5920770
  C       -2.7151710     0.6552070    -0.2573930
  C       -0.5254080     0.4815200     0.6000940
  C       -2.5370380    -0.7220921     0.3517036
  C       -2.5283440    -1.8503930    -0.6392900
  C        1.2197750    -1.2614080     0.3112740
  C        1.7555940     1.0674350    -0.0594030
  C        2.5111010    -1.6091400     0.0469950
  C        3.4119830    -0.5506530    -0.2589250
  H       -0.9376060     0.5914040    -1.5148910
  H       -3.3636823     0.6331812    -1.1454782
  H       -0.4402900     1.2218800     1.4039980
  H       -3.2819570    -0.9087340     1.1307830
  H       -1.7133080    -1.7003050    -1.3694640
  H       -3.4855610    -1.8340040    -1.1841350
  H       -0.2975250     2.7131790    -0.5250000
  H       -2.8475560     2.3997430     0.5086630
  H        0.4343110    -1.9634370     0.5690680
  H       -2.4338740    -3.7984320    -0.5432330
  H        2.8291120    -2.6453980     0.0739220
  H        5.1251800    -1.6708610    -0.1624140
  H        5.3198140    -0.0200540    -0.5682940
units angstrom
no_reorient  #important for SAPT in psi4, default
symmetry c1  #important for SAPT in psi4, default
}

set PROPERTIES_ORIGIN ["COM"]
properties('MP2/aug-cc-pvtz', properties = ['dipole'])
--------------------------------------------------------------------------

  Memory set to  29.802 GiB by Python driver.
    SCF Algorithm Type (re)set to DF.

*** tstart() called on node35.bme.utexas.edu
*** at Thu Nov  5 05:44:01 2020

   => Loading Basis Set <=

    Name: AUG-CC-PVTZ
    Role: ORBITAL
    Keyword: BASIS
    atoms 1-5   entry O          line   327 file /home/xy3866/psi4conda/share/psi4/basis/aug-cc-pvtz.gbs 
    atoms 6-8   entry N          line   281 file /home/xy3866/psi4conda/share/psi4/basis/aug-cc-pvtz.gbs 
    atoms 9-17  entry C          line   235 file /home/xy3866/psi4conda/share/psi4/basis/aug-cc-pvtz.gbs 
    atoms 18-30 entry H          line    36 file /home/xy3866/psi4conda/share/psi4/basis/aug-cc-pvtz.gbs 


         ---------------------------------------------------------
                                   SCF
               by Justin Turney, Rob Parrish, Andy Simmonett
                          and Daniel G. A. Smith
                              RHF Reference
                        8 Threads,  30517 MiB Core
         ---------------------------------------------------------

  ==> Geometry <==

    Molecular point group: c1
    Full point group: C1

    Geometry (in Angstrom), charge = 0, multiplicity = 1:

       Center              X                  Y                   Z               Mass       
    ------------   -----------------  -----------------  -----------------  -----------------
         O           -1.247712311031    -0.652371669410     1.032972600669    15.994914619570
         O           -1.244586311031     2.483147330590    -0.685705399331    15.994914619570
         O           -3.216141311031     1.521395330590     0.745344600669    15.994914619570
         O           -2.356640311031    -3.066540669410     0.095397600669    15.994914619570
         O            1.360918688969     2.247330330590    -0.076084399331    15.994914619570
         N            0.843792688969     0.045519330590     0.256400600669    14.003074004430
         N            3.057614688969     0.720799330590    -0.293269399331    14.003074004430
         N            4.716851688969    -0.836358669410    -0.571840399331    14.003074004430
         C           -1.289095311031     1.078726330590    -0.591619399331    12.000000000000
         C           -2.714782311031     0.655503330590    -0.256935399331    12.000000000000
         C           -0.525019311031     0.481816330590     0.600551600669    12.000000000000
         C           -2.536649311031    -0.721795769410     0.352161200669    12.000000000000
         C           -2.527955311031    -1.850096669410    -0.638832399331    12.000000000000
         C            1.220163688969    -1.261111669410     0.311731600669    12.000000000000
         C            1.755982688969     1.067731330590    -0.058945399331    12.000000000000
         C            2.511489688969    -1.608843669410     0.047452600669    12.000000000000
         C            3.412371688969    -0.550356669410    -0.258467399331    12.000000000000
         H           -0.937217311031     0.591700330590    -1.514433399331     1.007825032230
         H           -3.363293611031     0.633477530590    -1.145020599331     1.007825032230
         H           -0.439901311031     1.222176330590     1.404455600669     1.007825032230
         H           -3.281568311031    -0.908437669410     1.131240600669     1.007825032230
         H           -1.712919311031    -1.700008669410    -1.369006399331     1.007825032230
         H           -3.485172311031    -1.833707669410    -1.183677399331     1.007825032230
         H           -0.297136311031     2.713475330590    -0.524542399331     1.007825032230
         H           -2.847167311031     2.400039330590     0.509120600669     1.007825032230
         H            0.434699688969    -1.963140669410     0.569525600669     1.007825032230
         H           -2.433485311031    -3.798135669410    -0.542775399331     1.007825032230
         H            2.829500688969    -2.645101669410     0.074379600669     1.007825032230
         H            5.125568688969    -1.670564669410    -0.161956399331     1.007825032230
         H            5.320202688969    -0.019757669410    -0.567836399331     1.007825032230

  Running in c1 symmetry.

  Rotational constants: A =      0.02618  B =      0.01118  C =      0.00834 [cm^-1]
  Rotational constants: A =    785.00239  B =    335.31440  C =    250.02296 [MHz]
  Nuclear repulsion = 1323.560881039800051

  Charge       = 0
  Multiplicity = 1
  Electrons    = 128
  Nalpha       = 64
  Nbeta        = 64

  ==> Algorithm <==

  SCF Algorithm Type is DF.
  DIIS enabled.
  MOM disabled.
  Fractional occupation disabled.
  Guess Type is SAD.
  Energy threshold   = 1.00e-10
  Density threshold  = 1.00e-10
  Integral threshold = 0.00e+00

  ==> Primary Basis <==

  Basis Set: AUG-CC-PVTZ
    Blend: AUG-CC-PVTZ
    Number of shells: 355
    Number of basis function: 1081
    Number of Cartesian functions: 1260
    Spherical Harmonics?: true
    Max angular momentum: 3

   => Loading Basis Set <=

    Name: (AUG-CC-PVTZ AUX)
    Role: JKFIT
    Keyword: DF_BASIS_SCF
    atoms 1-5   entry O          line   286 file /home/xy3866/psi4conda/share/psi4/basis/aug-cc-pvtz-jkfit.gbs 
    atoms 6-8   entry N          line   224 file /home/xy3866/psi4conda/share/psi4/basis/aug-cc-pvtz-jkfit.gbs 
    atoms 9-17  entry C          line   162 file /home/xy3866/psi4conda/share/psi4/basis/aug-cc-pvtz-jkfit.gbs 
    atoms 18-30 entry H          line    70 file /home/xy3866/psi4conda/share/psi4/basis/aug-cc-pvtz-jkfit.gbs 

  ==> Pre-Iterations <==

   -------------------------------------------------------
    Irrep   Nso     Nmo     Nalpha   Nbeta   Ndocc  Nsocc
   -------------------------------------------------------
     A       1081    1081       0       0       0       0
   -------------------------------------------------------
    Total    1081    1081      64      64      64       0
   -------------------------------------------------------

  ==> Integral Setup <==

  DFHelper Memory: AOs need 18.209 GiB; user supplied 22.352 GiB. Using in-core AOs.

  ==> MemDFJK: Density-Fitted J/K Matrices <==

    J tasked:                   Yes
    K tasked:                   Yes
    wK tasked:                   No
    OpenMP threads:               8
    Memory [MiB]:             22888
    Algorithm:                 Disk
    Schwarz Cutoff:           1E-12
    Mask sparsity (%):      13.2887
    Fitting Condition:        1E-10

   => Auxiliary Basis Set <=

  Basis Set: (AUG-CC-PVTZ AUX)
    Blend: AUG-CC-PVTZ-JKFIT
    Number of shells: 692
    Number of basis function: 2366
    Number of Cartesian functions: 2942
    Spherical Harmonics?: true
    Max angular momentum: 4

  Minimum eigenvalue in the overlap matrix is 9.6173437373E-07.
  Using Symmetric Orthogonalization.

  SCF Guess: Superposition of Atomic Densities via on-the-fly atomic UHF.

  ==> Iterations <==

                           Total Energy        Delta E     RMS |[F,P]|

   @DF-RHF iter SAD:  -885.99059856534711   -8.85991e+02   0.00000e+00 
   @DF-RHF iter   1:  -885.89425912036984    9.63394e-02   9.15375e-04 DIIS
   @DF-RHF iter   2:  -886.26383183792245   -3.69573e-01   5.04987e-04 DIIS
   @DF-RHF iter   3:  -886.36459984777298   -1.00768e-01   1.02955e-04 DIIS
   @DF-RHF iter   4:  -886.37172199350232   -7.12215e-03   4.16831e-05 DIIS
   @DF-RHF iter   5:  -886.37280618196553   -1.08419e-03   9.11691e-06 DIIS
   @DF-RHF iter   6:  -886.37290875648239   -1.02575e-04   4.42149e-06 DIIS
   @DF-RHF iter   7:  -886.37293339554822   -2.46391e-05   1.61511e-06 DIIS
   @DF-RHF iter   8:  -886.37293885679503   -5.46125e-06   6.33122e-07 DIIS
   @DF-RHF iter   9:  -886.37293964282890   -7.86034e-07   2.43850e-07 DIIS
   @DF-RHF iter  10:  -886.37293975655962   -1.13731e-07   9.47274e-08 DIIS
   @DF-RHF iter  11:  -886.37293977290994   -1.63503e-08   3.45738e-08 DIIS
   @DF-RHF iter  12:  -886.37293977462173   -1.71178e-09   1.32978e-08 DIIS
   @DF-RHF iter  13:  -886.37293977488230   -2.60570e-10   3.98520e-09 DIIS
   @DF-RHF iter  14:  -886.37293977490970   -2.73985e-11   1.66038e-09 DIIS
   @DF-RHF iter  15:  -886.37293977491402   -4.32010e-12   7.95051e-10 DIIS
   @DF-RHF iter  16:  -886.37293977491413   -1.13687e-13   3.13386e-10 DIIS
   @DF-RHF iter  17:  -886.37293977491083    3.29692e-12   1.52330e-10 DIIS
   @DF-RHF iter  18:  -886.37293977491186   -1.02318e-12   5.13413e-11 DIIS
  Energy and wave function converged.


  ==> Post-Iterations <==

    Orbital Energies [Eh]
    ---------------------

    Doubly Occupied:                                                      

       1A    -20.582836     2A    -20.580212     3A    -20.558266  
       4A    -20.557159     5A    -20.521747     6A    -15.636539  
       7A    -15.599672     8A    -15.553114     9A    -11.387982  
      10A    -11.357634    11A    -11.340862    12A    -11.328224  
      13A    -11.301663    14A    -11.297274    15A    -11.296705  
      16A    -11.293492    17A    -11.248303    18A     -1.427082  
      19A     -1.395626    20A     -1.380203    21A     -1.372683  
      22A     -1.346380    23A     -1.305710    24A     -1.273286  
      25A     -1.181976    26A     -1.081631    27A     -1.069358  
      28A     -1.021373    29A     -0.936060    30A     -0.909057  
      31A     -0.877349    32A     -0.832036    33A     -0.811234  
      34A     -0.766762    35A     -0.751810    36A     -0.736157  
      37A     -0.719966    38A     -0.703526    39A     -0.698322  
      40A     -0.685335    41A     -0.673113    42A     -0.654421  
      43A     -0.651270    44A     -0.637855    45A     -0.620444  
      46A     -0.613999    47A     -0.606399    48A     -0.593809  
      49A     -0.575699    50A     -0.568507    51A     -0.553966  
      52A     -0.546299    53A     -0.536817    54A     -0.531949  
      55A     -0.498021    56A     -0.477989    57A     -0.474652  
      58A     -0.463119    59A     -0.459905    60A     -0.452547  
      61A     -0.440947    62A     -0.432990    63A     -0.395005  
      64A     -0.349760  

    Virtual:                                                              

      65A      0.015660    66A      0.022127    67A      0.032316  
      68A      0.037605    69A      0.040804    70A      0.044997  
      71A      0.053214    72A      0.054474    73A      0.056520  
      74A      0.062435    75A      0.064263    76A      0.074093  
      77A      0.082246    78A      0.082812    79A      0.085765  
      80A      0.089418    81A      0.100472    82A      0.101479  
      83A      0.104497    84A      0.109518    85A      0.112237  
      86A      0.113503    87A      0.119159    88A      0.120114  
      89A      0.124816    90A      0.126687    91A      0.128918  
      92A      0.134538    93A      0.137767    94A      0.140369  
      95A      0.145763    96A      0.148052    97A      0.150193  
      98A      0.152803    99A      0.155566   100A      0.159299  
     101A      0.165066   102A      0.167568   103A      0.170043  
     104A      0.173803   105A      0.177609   106A      0.179784  
     107A      0.180900   108A      0.183280   109A      0.195207  
     110A      0.197155   111A      0.203007   112A      0.205622  
     113A      0.210957   114A      0.215080   115A      0.221597  
     116A      0.224204   117A      0.227778   118A      0.234419  
     119A      0.235966   120A      0.242064   121A      0.244654  
     122A      0.247240   123A      0.251546   124A      0.251991  
     125A      0.254416   126A      0.263542   127A      0.265399  
     128A      0.270133   129A      0.272373   130A      0.275268  
     131A      0.277236   132A      0.280661   133A      0.283933  
     134A      0.284975   135A      0.288559   136A      0.292213  
     137A      0.295352   138A      0.299759   139A      0.302959  
     140A      0.306689   141A      0.310996   142A      0.315263  
     143A      0.318241   144A      0.319123   145A      0.323402  
     146A      0.326693   147A      0.330757   148A      0.333859  
     149A      0.334539   150A      0.340267   151A      0.347069  
     152A      0.350604   153A      0.352223   154A      0.354424  
     155A      0.358239   156A      0.359102   157A      0.364173  
     158A      0.367832   159A      0.369839   160A      0.379489  
     161A      0.381018   162A      0.384284   163A      0.387555  
     164A      0.391826   165A      0.394258   166A      0.397882  
     167A      0.399788   168A      0.400622   169A      0.405956  
     170A      0.406936   171A      0.412393   172A      0.419069  
     173A      0.423512   174A      0.426003   175A      0.426943  
     176A      0.432080   177A      0.436256   178A      0.443746  
     179A      0.447712   180A      0.451011   181A      0.454465  
     182A      0.456722   183A      0.458632   184A      0.462506  
     185A      0.465615   186A      0.468407   187A      0.473236  
     188A      0.474341   189A      0.477314   190A      0.479577  
     191A      0.484283   192A      0.487031   193A      0.490123  
     194A      0.495682   195A      0.497189   196A      0.501443  
     197A      0.505151   198A      0.510428   199A      0.510924  
     200A      0.517432   201A      0.520875   202A      0.521975  
     203A      0.524729   204A      0.529295   205A      0.529837  
     206A      0.536245   207A      0.537410   208A      0.539858  
     209A      0.542062   210A      0.545962   211A      0.551323  
     212A      0.554271   213A      0.557223   214A      0.558478  
     215A      0.567626   216A      0.571599   217A      0.572778  
     218A      0.579777   219A      0.582828   220A      0.589423  
     221A      0.590804   222A      0.592975   223A      0.595695  
     224A      0.599947   225A      0.610520   226A      0.612468  
     227A      0.615906   228A      0.617445   229A      0.620539  
     230A      0.623729   231A      0.626798   232A      0.628799  
     233A      0.638769   234A      0.642494   235A      0.644117  
     236A      0.645171   237A      0.652233   238A      0.656603  
     239A      0.659413   240A      0.666567   241A      0.669073  
     242A      0.673222   243A      0.675779   244A      0.684061  
     245A      0.689136   246A      0.691137   247A      0.694328  
     248A      0.695589   249A      0.700555   250A      0.707507  
     251A      0.710040   252A      0.713634   253A      0.716288  
     254A      0.721913   255A      0.727136   256A      0.730122  
     257A      0.735162   258A      0.739916   259A      0.746532  
     260A      0.751255   261A      0.757951   262A      0.760188  
     263A      0.764210   264A      0.771660   265A      0.774608  
     266A      0.776835   267A      0.778543   268A      0.786410  
     269A      0.796048   270A      0.800829   271A      0.802356  
     272A      0.810759   273A      0.815359   274A      0.822821  
     275A      0.823614   276A      0.826886   277A      0.839280  
     278A      0.844157   279A      0.844870   280A      0.852801  
     281A      0.857725   282A      0.863608   283A      0.866523  
     284A      0.870996   285A      0.872709   286A      0.875598  
     287A      0.877056   288A      0.886067   289A      0.888789  
     290A      0.892888   291A      0.898631   292A      0.901866  
     293A      0.909714   294A      0.916731   295A      0.918590  
     296A      0.922578   297A      0.925632   298A      0.929213  
     299A      0.934007   300A      0.942046   301A      0.943486  
     302A      0.945971   303A      0.951333   304A      0.956546  
     305A      0.967086   306A      0.968724   307A      0.972539  
     308A      0.974244   309A      0.982052   310A      0.984266  
     311A      0.989949   312A      0.992328   313A      0.996461  
     314A      1.002274   315A      1.010824   316A      1.014339  
     317A      1.015673   318A      1.020795   319A      1.021768  
     320A      1.026203   321A      1.031174   322A      1.032566  
     323A      1.035306   324A      1.040145   325A      1.043801  
     326A      1.050996   327A      1.055591   328A      1.060614  
     329A      1.061964   330A      1.064467   331A      1.070315  
     332A      1.073164   333A      1.077482   334A      1.082071  
     335A      1.086082   336A      1.090937   337A      1.093159  
     338A      1.095251   339A      1.101314   340A      1.105312  
     341A      1.107577   342A      1.112693   343A      1.119290  
     344A      1.125750   345A      1.130445   346A      1.131515  
     347A      1.136168   348A      1.136948   349A      1.142390  
     350A      1.149658   351A      1.152134   352A      1.160324  
     353A      1.162751   354A      1.165895   355A      1.168316  
     356A      1.178737   357A      1.182264   358A      1.184877  
     359A      1.190210   360A      1.193943   361A      1.196710  
     362A      1.200373   363A      1.206127   364A      1.211630  
     365A      1.214372   366A      1.219993   367A      1.221900  
     368A      1.224098   369A      1.227981   370A      1.230792  
     371A      1.241132   372A      1.243686   373A      1.249871  
     374A      1.253077   375A      1.256421   376A      1.262758  
     377A      1.264528   378A      1.272163   379A      1.277746  
     380A      1.282058   381A      1.289203   382A      1.291778  
     383A      1.297756   384A      1.299320   385A      1.308074  
     386A      1.310581   387A      1.316978   388A      1.327121  
     389A      1.329289   390A      1.338939   391A      1.341719  
     392A      1.346140   393A      1.353577   394A      1.361115  
     395A      1.363470   396A      1.370596   397A      1.377162  
     398A      1.377364   399A      1.385898   400A      1.386815  
     401A      1.396779   402A      1.400064   403A      1.404793  
     404A      1.414029   405A      1.420947   406A      1.425199  
     407A      1.426867   408A      1.430723   409A      1.436514  
     410A      1.441916   411A      1.447716   412A      1.452360  
     413A      1.454780   414A      1.465445   415A      1.469624  
     416A      1.474255   417A      1.481394   418A      1.485795  
     419A      1.490323   420A      1.496472   421A      1.498911  
     422A      1.505191   423A      1.507443   424A      1.515713  
     425A      1.520053   426A      1.524276   427A      1.531404  
     428A      1.535929   429A      1.540798   430A      1.543728  
     431A      1.550218   432A      1.555105   433A      1.559035  
     434A      1.563837   435A      1.569614   436A      1.575548  
     437A      1.578219   438A      1.585766   439A      1.594496  
     440A      1.595540   441A      1.598694   442A      1.606347  
     443A      1.613684   444A      1.616439   445A      1.621078  
     446A      1.630940   447A      1.633009   448A      1.641973  
     449A      1.646837   450A      1.653409   451A      1.657600  
     452A      1.661710   453A      1.670615   454A      1.675625  
     455A      1.680552   456A      1.685910   457A      1.694393  
     458A      1.695698   459A      1.700483   460A      1.709399  
     461A      1.717682   462A      1.720789   463A      1.727957  
     464A      1.732447   465A      1.734172   466A      1.737833  
     467A      1.747496   468A      1.758400   469A      1.758873  
     470A      1.761892   471A      1.767874   472A      1.775696  
     473A      1.779023   474A      1.783454   475A      1.794506  
     476A      1.799381   477A      1.802241   478A      1.806742  
     479A      1.809986   480A      1.816603   481A      1.817424  
     482A      1.824575   483A      1.830411   484A      1.836928  
     485A      1.839735   486A      1.846350   487A      1.857148  
     488A      1.857537   489A      1.860631   490A      1.867315  
     491A      1.872384   492A      1.873612   493A      1.883233  
     494A      1.892370   495A      1.896754   496A      1.907863  
     497A      1.913495   498A      1.915823   499A      1.924088  
     500A      1.936500   501A      1.937907   502A      1.947148  
     503A      1.951053   504A      1.957008   505A      1.958923  
     506A      1.970282   507A      1.978387   508A      1.983872  
     509A      1.988307   510A      1.993748   511A      1.994975  
     512A      2.001174   513A      2.008044   514A      2.011872  
     515A      2.021675   516A      2.029106   517A      2.032282  
     518A      2.035848   519A      2.047877   520A      2.048266  
     521A      2.050865   522A      2.056214   523A      2.059811  
     524A      2.066607   525A      2.070034   526A      2.083520  
     527A      2.087041   528A      2.099298   529A      2.104938  
     530A      2.109709   531A      2.123110   532A      2.126966  
     533A      2.131360   534A      2.134177   535A      2.138780  
     536A      2.143886   537A      2.149065   538A      2.154152  
     539A      2.161999   540A      2.170269   541A      2.178100  
     542A      2.181319   543A      2.192273   544A      2.194890  
     545A      2.209950   546A      2.216386   547A      2.220707  
     548A      2.222363   549A      2.233142   550A      2.239453  
     551A      2.248967   552A      2.251851   553A      2.264212  
     554A      2.268396   555A      2.277555   556A      2.283381  
     557A      2.291889   558A      2.298488   559A      2.309419  
     560A      2.316575   561A      2.324466   562A      2.328087  
     563A      2.344267   564A      2.348879   565A      2.363521  
     566A      2.368162   567A      2.370959   568A      2.374766  
     569A      2.392611   570A      2.402347   571A      2.406266  
     572A      2.412973   573A      2.416802   574A      2.426812  
     575A      2.430038   576A      2.432990   577A      2.442047  
     578A      2.454675   579A      2.455244   580A      2.469280  
     581A      2.487628   582A      2.492317   583A      2.508461  
     584A      2.512902   585A      2.516832   586A      2.522302  
     587A      2.536532   588A      2.541794   589A      2.550167  
     590A      2.551909   591A      2.569761   592A      2.573663  
     593A      2.575659   594A      2.585887   595A      2.594648  
     596A      2.603462   597A      2.610271   598A      2.613891  
     599A      2.627434   600A      2.631891   601A      2.641404  
     602A      2.648375   603A      2.659236   604A      2.668323  
     605A      2.679332   606A      2.682850   607A      2.697247  
     608A      2.700965   609A      2.705162   610A      2.724769  
     611A      2.735383   612A      2.740339   613A      2.746992  
     614A      2.752641   615A      2.755259   616A      2.761012  
     617A      2.774498   618A      2.791521   619A      2.799057  
     620A      2.810863   621A      2.826826   622A      2.828477  
     623A      2.834508   624A      2.846634   625A      2.852126  
     626A      2.862231   627A      2.866180   628A      2.874395  
     629A      2.879087   630A      2.886954   631A      2.895774  
     632A      2.910351   633A      2.914937   634A      2.927301  
     635A      2.929792   636A      2.952999   637A      2.957931  
     638A      2.965422   639A      2.975747   640A      2.986142  
     641A      2.990750   642A      2.999945   643A      3.010128  
     644A      3.011439   645A      3.026102   646A      3.032135  
     647A      3.050095   648A      3.055365   649A      3.056622  
     650A      3.069874   651A      3.081783   652A      3.091466  
     653A      3.101950   654A      3.109455   655A      3.118687  
     656A      3.128655   657A      3.136292   658A      3.140092  
     659A      3.152607   660A      3.170681   661A      3.179168  
     662A      3.188848   663A      3.191889   664A      3.196506  
     665A      3.205865   666A      3.216871   667A      3.229724  
     668A      3.241088   669A      3.249378   670A      3.252056  
     671A      3.268497   672A      3.279971   673A      3.292487  
     674A      3.300352   675A      3.307333   676A      3.319907  
     677A      3.333310   678A      3.341819   679A      3.357787  
     680A      3.361943   681A      3.368381   682A      3.383987  
     683A      3.391691   684A      3.396618   685A      3.425306  
     686A      3.429098   687A      3.437155   688A      3.462644  
     689A      3.467760   690A      3.474880   691A      3.487797  
     692A      3.500107   693A      3.501018   694A      3.519141  
     695A      3.529890   696A      3.533623   697A      3.552428  
     698A      3.554968   699A      3.560432   700A      3.576442  
     701A      3.586245   702A      3.595626   703A      3.623634  
     704A      3.637910   705A      3.647000   706A      3.648275  
     707A      3.663254   708A      3.681943   709A      3.695998  
     710A      3.700701   711A      3.707483   712A      3.714298  
     713A      3.727844   714A      3.732117   715A      3.749463  
     716A      3.754433   717A      3.764309   718A      3.776019  
     719A      3.779442   720A      3.795097   721A      3.797396  
     722A      3.802903   723A      3.806412   724A      3.819759  
     725A      3.829158   726A      3.834614   727A      3.846059  
     728A      3.857386   729A      3.866918   730A      3.870970  
     731A      3.884721   732A      3.889088   733A      3.905363  
     734A      3.917072   735A      3.921474   736A      3.924142  
     737A      3.939381   738A      3.946366   739A      3.950625  
     740A      3.959325   741A      3.970495   742A      3.985839  
     743A      3.989597   744A      3.997363   745A      4.001832  
     746A      4.014664   747A      4.016747   748A      4.024244  
     749A      4.034807   750A      4.044349   751A      4.051635  
     752A      4.059679   753A      4.064252   754A      4.073446  
     755A      4.076907   756A      4.086822   757A      4.098116  
     758A      4.101666   759A      4.110287   760A      4.125319  
     761A      4.136109   762A      4.139399   763A      4.144957  
     764A      4.153239   765A      4.154994   766A      4.169636  
     767A      4.182111   768A      4.188419   769A      4.189542  
     770A      4.206397   771A      4.208478   772A      4.218153  
     773A      4.224883   774A      4.231951   775A      4.250653  
     776A      4.257369   777A      4.270293   778A      4.276642  
     779A      4.279957   780A      4.282598   781A      4.288702  
     782A      4.297053   783A      4.304357   784A      4.309217  
     785A      4.321010   786A      4.324229   787A      4.330129  
     788A      4.344887   789A      4.349594   790A      4.355326  
     791A      4.360393   792A      4.376002   793A      4.379628  
     794A      4.386852   795A      4.392983   796A      4.404724  
     797A      4.409061   798A      4.413783   799A      4.423154  
     800A      4.424432   801A      4.431208   802A      4.445096  
     803A      4.453747   804A      4.458384   805A      4.462635  
     806A      4.470372   807A      4.477524   808A      4.487177  
     809A      4.490417   810A      4.493012   811A      4.506034  
     812A      4.518923   813A      4.529160   814A      4.532982  
     815A      4.541441   816A      4.556687   817A      4.567157  
     818A      4.571274   819A      4.584170   820A      4.592926  
     821A      4.597486   822A      4.608067   823A      4.621656  
     824A      4.633791   825A      4.647483   826A      4.655188  
     827A      4.662557   828A      4.671640   829A      4.679563  
     830A      4.692779   831A      4.698830   832A      4.704124  
     833A      4.711247   834A      4.717910   835A      4.727093  
     836A      4.737733   837A      4.746180   838A      4.750341  
     839A      4.765463   840A      4.779185   841A      4.790836  
     842A      4.797649   843A      4.800283   844A      4.809797  
     845A      4.824930   846A      4.838820   847A      4.848883  
     848A      4.853541   849A      4.864134   850A      4.885026  
     851A      4.891106   852A      4.900421   853A      4.908608  
     854A      4.921647   855A      4.933705   856A      4.949840  
     857A      4.955975   858A      4.964539   859A      4.969230  
     860A      4.978947   861A      4.979894   862A      4.996868  
     863A      5.008061   864A      5.024840   865A      5.031770  
     866A      5.052430   867A      5.057853   868A      5.062810  
     869A      5.075338   870A      5.084487   871A      5.091453  
     872A      5.108751   873A      5.126154   874A      5.127898  
     875A      5.138286   876A      5.142629   877A      5.151486  
     878A      5.158746   879A      5.183739   880A      5.198313  
     881A      5.209029   882A      5.222182   883A      5.229518  
     884A      5.236542   885A      5.243811   886A      5.254403  
     887A      5.261638   888A      5.281080   889A      5.295803  
     890A      5.299875   891A      5.302800   892A      5.308441  
     893A      5.325623   894A      5.326185   895A      5.335399  
     896A      5.347576   897A      5.354644   898A      5.362090  
     899A      5.369640   900A      5.380051   901A      5.394609  
     902A      5.400698   903A      5.406751   904A      5.419880  
     905A      5.429097   906A      5.438189   907A      5.462189  
     908A      5.470768   909A      5.481951   910A      5.486674  
     911A      5.492069   912A      5.517821   913A      5.520848  
     914A      5.527208   915A      5.540712   916A      5.541806  
     917A      5.567632   918A      5.580102   919A      5.591260  
     920A      5.594597   921A      5.602360   922A      5.610681  
     923A      5.624438   924A      5.632538   925A      5.642418  
     926A      5.652516   927A      5.655380   928A      5.682525  
     929A      5.683607   930A      5.695453   931A      5.717112  
     932A      5.719082   933A      5.732472   934A      5.758348  
     935A      5.766202   936A      5.776106   937A      5.782613  
     938A      5.797707   939A      5.810230   940A      5.827915  
     941A      5.844807   942A      5.871546   943A      5.877030  
     944A      5.896200   945A      5.904119   946A      5.909096  
     947A      5.936454   948A      5.951889   949A      5.974635  
     950A      5.980108   951A      5.996593   952A      6.002158  
     953A      6.016315   954A      6.034127   955A      6.049786  
     956A      6.060021   957A      6.069261   958A      6.104060  
     959A      6.130584   960A      6.141341   961A      6.157049  
     962A      6.163474   963A      6.181355   964A      6.193918  
     965A      6.234146   966A      6.244473   967A      6.248471  
     968A      6.264609   969A      6.276604   970A      6.311660  
     971A      6.324882   972A      6.376765   973A      6.424822  
     974A      6.432881   975A      6.468541   976A      6.499130  
     977A      6.523800   978A      6.548811   979A      6.572857  
     980A      6.656495   981A      6.689458   982A      6.703183  
     983A      6.724236   984A      6.749132   985A      6.761596  
     986A      6.793183   987A      6.799924   988A      6.819298  
     989A      6.833809   990A      6.840987   991A      6.875878  
     992A      6.900794   993A      6.906941   994A      6.925806  
     995A      6.955304   996A      6.957512   997A      6.978979  
     998A      6.988147   999A      6.997059  1000A      7.022690  
    1001A      7.046808  1002A      7.061138  1003A      7.080217  
    1004A      7.083547  1005A      7.109689  1006A      7.129597  
    1007A      7.131210  1008A      7.155400  1009A      7.180870  
    1010A      7.203762  1011A      7.213123  1012A      7.223581  
    1013A      7.230750  1014A      7.247139  1015A      7.273167  
    1016A      7.280032  1017A      7.313855  1018A      7.331607  
    1019A      7.349376  1020A      7.354376  1021A      7.391976  
    1022A      7.398694  1023A      7.428964  1024A      7.442786  
    1025A      7.457847  1026A      7.491915  1027A      7.508354  
    1028A      7.514722  1029A      7.526013  1030A      7.539019  
    1031A      7.543976  1032A      7.597067  1033A      7.606583  
    1034A      7.612018  1035A      7.625817  1036A      7.634757  
    1037A      7.651247  1038A      7.682227  1039A      7.716329  
    1040A      7.744327  1041A      7.767656  1042A      7.829446  
    1043A      7.842624  1044A      7.896774  1045A      7.925654  
    1046A      7.940929  1047A      7.950748  1048A      7.959003  
    1049A      7.987165  1050A      7.992759  1051A      8.037442  
    1052A      8.065318  1053A      8.159266  1054A      8.186018  
    1055A      8.218280  1056A      8.259829  1057A      8.285813  
    1058A      8.357344  1059A      8.404459  1060A      8.501481  
    1061A      8.545572  1062A      8.625462  1063A      8.695366  
    1064A      8.874774  1065A     16.009946  1066A     16.212187  
    1067A     16.491154  1068A     16.655256  1069A     17.074938  
    1070A     17.265940  1071A     17.600335  1072A     18.103502  
    1073A     18.570110  1074A     18.897175  1075A     19.372528  
    1076A     19.630961  1077A     20.130211  1078A     20.160565  
    1079A     20.588113  1080A     20.924318  1081A     21.784139  

    Final Occupation by Irrep:
              A 
    DOCC [    64 ]

  @DF-RHF Final Energy:  -886.37293977491186

   => Energetics <=

    Nuclear Repulsion Energy =           1323.5608810398000514
    One-Electron Energy =               -3844.7994631969413604
    Two-Electron Energy =                1634.8656423822296802
    Total Energy =                       -886.3729397749118561

Computation Completed

*** tstop() called on node35.bme.utexas.edu at Thu Nov  5 05:58:29 2020
Module time:
	user time   =    2864.75 seconds =      47.75 minutes
	system time =     543.43 seconds =       9.06 minutes
	total time  =        868 seconds =      14.47 minutes
Total time:
	user time   =    2864.75 seconds =      47.75 minutes
	system time =     543.43 seconds =       9.06 minutes
	total time  =        868 seconds =      14.47 minutes
   => Loading Basis Set <=

    Name: (AUG-CC-PVTZ AUX)
    Role: RIFIT
    Keyword: DF_BASIS_MP2
    atoms 1-5   entry O          line   264 file /home/xy3866/psi4conda/share/psi4/basis/aug-cc-pvtz-ri.gbs 
    atoms 6-8   entry N          line   206 file /home/xy3866/psi4conda/share/psi4/basis/aug-cc-pvtz-ri.gbs 
    atoms 9-17  entry C          line   148 file /home/xy3866/psi4conda/share/psi4/basis/aug-cc-pvtz-ri.gbs 
    atoms 18-30 entry H          line    30 file /home/xy3866/psi4conda/share/psi4/basis/aug-cc-pvtz-ri.gbs 


*** tstart() called on node35.bme.utexas.edu
*** at Thu Nov  5 05:58:29 2020


  //>>>>>>>>>>>>>>>>>>>>>>>>>>>>>>>>>>>//
  //               DFMP2               //
  //<<<<<<<<<<<<<<<<<<<<<<<<<<<<<<<<<<<//

	 --------------------------------------------------------
	                          DF-MP2                         
	      2nd-Order Density-Fitted Moller-Plesset Theory     
	              RMP2 Wavefunction,   8 Threads             
	                                                         
	        Rob Parrish, Justin Turney, Andy Simmonett,      
	           Ed Hohenstein, and C. David Sherrill          
	 --------------------------------------------------------

   => Auxiliary Basis Set <=

  Basis Set: (AUG-CC-PVTZ AUX)
    Blend: AUG-CC-PVTZ-RI
    Number of shells: 658
    Number of basis function: 2400
    Number of Cartesian functions: 3027
    Spherical Harmonics?: true
    Max angular momentum: 4

	 --------------------------------------------------------
	                 NBF =  1081, NAUX =  2400
	 --------------------------------------------------------
	   CLASS    FOCC     OCC    AOCC    AVIR     VIR    FVIR
	   PAIRS       0      64      64    1017    1017       0
	 --------------------------------------------------------

  DFHelper Memory: AOs need 18.209 GiB; user supplied 22.352 GiB. Using in-core AOs.


         ------------------------------------------------------------
                                     CPHF                           
                                  Rob Parrish                       
         ------------------------------------------------------------

  ==> Geometry <==

    Molecular point group: c1
    Full point group: C1

    Geometry (in Angstrom), charge = 0, multiplicity = 1:

       Center              X                  Y                   Z               Mass       
    ------------   -----------------  -----------------  -----------------  -----------------
         O           -1.247712311031    -0.652371669410     1.032972600669    15.994914619570
         O           -1.244586311031     2.483147330590    -0.685705399331    15.994914619570
         O           -3.216141311031     1.521395330590     0.745344600669    15.994914619570
         O           -2.356640311031    -3.066540669410     0.095397600669    15.994914619570
         O            1.360918688969     2.247330330590    -0.076084399331    15.994914619570
         N            0.843792688969     0.045519330590     0.256400600669    14.003074004430
         N            3.057614688969     0.720799330590    -0.293269399331    14.003074004430
         N            4.716851688969    -0.836358669410    -0.571840399331    14.003074004430
         C           -1.289095311031     1.078726330590    -0.591619399331    12.000000000000
         C           -2.714782311031     0.655503330590    -0.256935399331    12.000000000000
         C           -0.525019311031     0.481816330590     0.600551600669    12.000000000000
         C           -2.536649311031    -0.721795769410     0.352161200669    12.000000000000
         C           -2.527955311031    -1.850096669410    -0.638832399331    12.000000000000
         C            1.220163688969    -1.261111669410     0.311731600669    12.000000000000
         C            1.755982688969     1.067731330590    -0.058945399331    12.000000000000
         C            2.511489688969    -1.608843669410     0.047452600669    12.000000000000
         C            3.412371688969    -0.550356669410    -0.258467399331    12.000000000000
         H           -0.937217311031     0.591700330590    -1.514433399331     1.007825032230
         H           -3.363293611031     0.633477530590    -1.145020599331     1.007825032230
         H           -0.439901311031     1.222176330590     1.404455600669     1.007825032230
         H           -3.281568311031    -0.908437669410     1.131240600669     1.007825032230
         H           -1.712919311031    -1.700008669410    -1.369006399331     1.007825032230
         H           -3.485172311031    -1.833707669410    -1.183677399331     1.007825032230
         H           -0.297136311031     2.713475330590    -0.524542399331     1.007825032230
         H           -2.847167311031     2.400039330590     0.509120600669     1.007825032230
         H            0.434699688969    -1.963140669410     0.569525600669     1.007825032230
         H           -2.433485311031    -3.798135669410    -0.542775399331     1.007825032230
         H            2.829500688969    -2.645101669410     0.074379600669     1.007825032230
         H            5.125568688969    -1.670564669410    -0.161956399331     1.007825032230
         H            5.320202688969    -0.019757669410    -0.567836399331     1.007825032230

  Nuclear repulsion = 1323.560881039800051
  Reference energy  = -886.372939774911856

  ==> Basis Set <==

  Basis Set: AUG-CC-PVTZ
    Blend: AUG-CC-PVTZ
    Number of shells: 355
    Number of basis function: 1081
    Number of Cartesian functions: 1260
    Spherical Harmonics?: true
    Max angular momentum: 3

  ==> CGRSolver (by Rob Parrish) <==

   Number of roots    =         1
   Preconditioning    =    JACOBI
   Convergence cutoff =     1E-06
   Maximum iterations =       100

  ==> CPHFRHamiltonian (by Rob Parrish) <== 

  ==> MemDFJK: Density-Fitted J/K Matrices <==

    J tasked:                   Yes
    K tasked:                   Yes
    wK tasked:                   No
    OpenMP threads:               8
    Memory [MiB]:             22888
    Algorithm:                 Disk
    Schwarz Cutoff:           1E-12
    Mask sparsity (%):      13.2887
    Fitting Condition:        1E-10

   => Auxiliary Basis Set <=

  Basis Set: (AUG-CC-PVTZ AUX)
    Blend: AUG-CC-PVTZ-JKFIT
    Number of shells: 692
    Number of basis function: 2366
    Number of Cartesian functions: 2942
    Spherical Harmonics?: true
    Max angular momentum: 4

  ==> CPHF Iterations <==

  => Iterations <=

             Iter  Converged  Remaining    Residual
  CGR           1          0          1   1.203E-01
  CGR           2          0          1   3.820E-02
  CGR           3          0          1   1.974E-02
  CGR           4          0          1   5.886E-03
  CGR           5          0          1   2.614E-03
  CGR           6          0          1   1.001E-03
  CGR           7          0          1   3.161E-04
  CGR           8          0          1   1.212E-04
  CGR           9          0          1   4.226E-05
  CGR          10          0          1   1.652E-05
  CGR          11          0          1   6.711E-06
  CGR          12          0          1   2.416E-06
  CGR          13          1          0   9.369E-07

    CGRSolver converged.

	-----------------------------------------------------------
	 ==================> DF-MP2 Energies <==================== 
	-----------------------------------------------------------
	 Reference Energy          =    -886.3729397749118561 [Eh]
	 Singles Energy            =      -0.0000000000000000 [Eh]
	 Same-Spin Energy          =      -0.9013418372026429 [Eh]
	 Opposite-Spin Energy      =      -2.7151514783126007 [Eh]
	 Correlation Energy        =      -3.6164933155152434 [Eh]
	 Total Energy              =    -889.9894330904271555 [Eh]
	-----------------------------------------------------------
	 ================> DF-SCS-MP2 Energies <================== 
	-----------------------------------------------------------
	 SCS Same-Spin Scale       =       0.3333333333333333 [-]
	 SCS Opposite-Spin Scale   =       1.2000000000000000 [-]
	 SCS Same-Spin Energy      =      -0.3004472790675476 [Eh]
	 SCS Opposite-Spin Energy  =      -3.2581817739751209 [Eh]
	 SCS Correlation Energy    =      -3.5586290530426687 [Eh]
	 SCS Total Energy          =    -889.9315688279544929 [Eh]
	-----------------------------------------------------------



Properties will be evaluated at  -0.000000,   0.000000,  -0.000000 [a0]

Properties computed using the MP2 density matrix

  Nuclear Dipole Moment: [e a0]
     X:    -4.8270      Y:    -6.5293      Z:    -3.1058

  Electronic Dipole Moment: [e a0]
     X:     5.4822      Y:     4.1801      Z:     2.3820

  Dipole Moment: [e a0]
     X:     0.6552      Y:    -2.3492      Z:    -0.7238     Total:     2.5440

  Dipole Moment: [D]
     X:     1.6654      Y:    -5.9710      Z:    -1.8398     Total:     6.4661


*** tstop() called on node35.bme.utexas.edu at Thu Nov  5 06:38:35 2020
Module time:
	user time   =   13084.49 seconds =     218.07 minutes
	system time =    1540.10 seconds =      25.67 minutes
	total time  =       2406 seconds =      40.10 minutes
Total time:
	user time   =   15949.62 seconds =     265.83 minutes
	system time =    2083.53 seconds =      34.73 minutes
	total time  =       3274 seconds =      54.57 minutes

    Psi4 stopped on: Thursday, 05 November 2020 06:38AM
    Psi4 wall time for execution: 0:54:35.51

*** Psi4 exiting successfully. Buy a developer a beer!
