
    -----------------------------------------------------------------------
          Psi4: An Open-Source Ab Initio Electronic Structure Package
                               Psi4 1.4a3.dev225 

                         Git: Rev {master} 7105e37 


    D. G. A. Smith, L. A. Burns, A. C. Simmonett, R. M. Parrish,
    M. C. Schieber, R. Galvelis, P. Kraus, H. Kruse, R. Di Remigio,
    A. Alenaizan, A. M. James, S. Lehtola, J. P. Misiewicz, M. Scheurer,
    R. A. Shaw, J. B. Schriber, Y. Xie, Z. L. Glick, D. A. Sirianni,
    J. S. O'Brien, J. M. Waldrop, A. Kumar, E. G. Hohenstein,
    B. P. Pritchard, B. R. Brooks, H. F. Schaefer III, A. Yu. Sokolov,
    K. Patkowski, A. E. DePrince III, U. Bozkaya, R. A. King,
    F. A. Evangelista, J. M. Turney, T. D. Crawford, C. D. Sherrill,
    J. Chem. Phys. 152(18) 184108 (2020). https://doi.org/10.1063/5.0006002

                            Additional Code Authors
    E. T. Seidl, C. L. Janssen, E. F. Valeev, M. L. Leininger,
    J. F. Gonthier, R. M. Richard, H. R. McAlexander, M. Saitow, X. Wang,
    P. Verma, and M. H. Lechner

             Previous Authors, Complete List of Code Contributors,
                       and Citations for Specific Modules
    https://github.com/psi4/psi4/blob/master/codemeta.json
    https://github.com/psi4/psi4/graphs/contributors
    http://psicode.org/psi4manual/master/introduction.html#citing-psifour

    -----------------------------------------------------------------------


    Psi4 started on: Saturday, 20 March 2021 12:18PM

    Process ID: 86336
    Host:       c445-043.stampede2.tacc.utexas.edu
    PSIDATADIR: /home1/07844/xy3866/miniconda3/envs/p4env/share/psi4
    Memory:     500.0 MiB
    Threads:    32
    
  ==> Input File <==

--------------------------------------------------------------------------
#psi4
#
memory 32 gb

molecule  {
0 1
  O       -1.3191770     0.6538360    -1.0992360
  O       -1.5735610    -2.4640850     0.5135810
  O       -3.5606630    -1.0699430    -0.4600060
  O       -1.4399290     3.1254620     0.1265180
  O        1.1065530    -2.3833650     0.0076020
  N        0.7686360    -0.1579440    -0.3706350
  N        2.9363770    -0.9938720     0.1460080
  N        4.7058880     0.4431110     0.3611260
  C       -1.3768610    -1.0680440     0.5552780
  C       -2.7379840    -0.3746360     0.4578480
  C       -0.6377490    -0.5042940    -0.6790150
  C       -2.3707440     0.9655450    -0.1585060
  C       -1.8992030     1.9895750     0.8571380
  C        1.2309690     1.1190800    -0.4442230
  C        1.6104480    -1.2470590    -0.0585760
  C        2.5474650     1.3753690    -0.1998620
  C        3.3802090     0.2523040     0.0808410
  H       -0.8441360    -0.7686950     1.4698480
  H       -3.2257400    -0.2778790     1.4400230
  H       -0.6227070    -1.2428120    -1.4883720
  H       -3.1941750     1.3785730    -0.7472070
  H       -1.1317532     1.5894500     1.4518827
  H       -2.7410530     2.2466610     1.5166010
  H       -0.6710550    -2.8260740     0.3542250
  H       -3.3063470    -2.0105220    -0.3629290
  H        0.4929290     1.8778260    -0.6840360
  H       -1.2098800     3.8154810     0.7720340
  H        2.9334840     2.3875570    -0.2389120
  H        5.1589650     1.2712730    -0.0008400
  H        5.2635310    -0.4031270     0.3606700
units angstrom
no_reorient  #important for SAPT in psi4, default
symmetry c1  #important for SAPT in psi4, default
}

set PROPERTIES_ORIGIN ["COM"]
properties('MP2/aug-cc-pvtz', properties = ['dipole'])
--------------------------------------------------------------------------

  Memory set to  29.802 GiB by Python driver.
    SCF Algorithm Type (re)set to DF.

*** tstart() called on c445-043.stampede2.tacc.utexas.edu
*** at Sat Mar 20 12:18:39 2021

   => Loading Basis Set <=

    Name: AUG-CC-PVTZ
    Role: ORBITAL
    Keyword: BASIS
    atoms 1-5   entry O          line   331 file /home1/07844/xy3866/miniconda3/envs/p4env/share/psi4/basis/aug-cc-pvtz.gbs 
    atoms 6-8   entry N          line   285 file /home1/07844/xy3866/miniconda3/envs/p4env/share/psi4/basis/aug-cc-pvtz.gbs 
    atoms 9-17  entry C          line   239 file /home1/07844/xy3866/miniconda3/envs/p4env/share/psi4/basis/aug-cc-pvtz.gbs 
    atoms 18-30 entry H          line    40 file /home1/07844/xy3866/miniconda3/envs/p4env/share/psi4/basis/aug-cc-pvtz.gbs 


         ---------------------------------------------------------
                                   SCF
               by Justin Turney, Rob Parrish, Andy Simmonett
                          and Daniel G. A. Smith
                              RHF Reference
                       32 Threads,  30517 MiB Core
         ---------------------------------------------------------

  ==> Geometry <==

    Molecular point group: c1
    Full point group: C1

    Geometry (in Angstrom), charge = 0, multiplicity = 1:

       Center              X                  Y                   Z               Mass       
    ------------   -----------------  -----------------  -----------------  -----------------
         O           -1.331769160260     0.682368481892    -1.083338386445    15.994914619570
         O           -1.586153160260    -2.435552518108     0.529478613555    15.994914619570
         O           -3.573255160260    -1.041410518108    -0.444108386445    15.994914619570
         O           -1.452521160260     3.153994481892     0.142415613555    15.994914619570
         O            1.093960839740    -2.354832518108     0.023499613555    15.994914619570
         N            0.756043839740    -0.129411518108    -0.354737386445    14.003074004430
         N            2.923784839740    -0.965339518108     0.161905613555    14.003074004430
         N            4.693295839740     0.471643481892     0.377023613555    14.003074004430
         C           -1.389453160260    -1.039511518108     0.571175613555    12.000000000000
         C           -2.750576160260    -0.346103518108     0.473745613555    12.000000000000
         C           -0.650341160260    -0.475761518108    -0.663117386445    12.000000000000
         C           -2.383336160260     0.994077481892    -0.142608386445    12.000000000000
         C           -1.911795160260     2.018107481892     0.873035613555    12.000000000000
         C            1.218376839740     1.147612481892    -0.428325386445    12.000000000000
         C            1.597855839740    -1.218526518108    -0.042678386445    12.000000000000
         C            2.534872839740     1.403901481892    -0.183964386445    12.000000000000
         C            3.367616839740     0.280836481892     0.096738613555    12.000000000000
         H           -0.856728160260    -0.740162518108     1.485745613555     1.007825032230
         H           -3.238332160260    -0.249346518108     1.455920613555     1.007825032230
         H           -0.635299160260    -1.214279518108    -1.472474386445     1.007825032230
         H           -3.206767160260     1.407105481892    -0.731309386445     1.007825032230
         H           -1.144345360260     1.617982481892     1.467780313555     1.007825032230
         H           -2.753645160260     2.275193481892     1.532498613555     1.007825032230
         H           -0.683647160260    -2.797541518108     0.370122613555     1.007825032230
         H           -3.318939160260    -1.981989518108    -0.347031386445     1.007825032230
         H            0.480336839740     1.906358481892    -0.668138386445     1.007825032230
         H           -1.222472160260     3.844013481892     0.787931613555     1.007825032230
         H            2.920891839740     2.416089481892    -0.223014386445     1.007825032230
         H            5.146372839740     1.299805481892     0.015057613555     1.007825032230
         H            5.250938839740    -0.374594518108     0.376567613555     1.007825032230

  Running in c1 symmetry.

  Rotational constants: A =      0.02642  B =      0.01179  C =      0.00872 [cm^-1]
  Rotational constants: A =    792.16374  B =    353.40470  C =    261.56254 [MHz]
  Nuclear repulsion = 1334.772754193654919

  Charge       = 0
  Multiplicity = 1
  Electrons    = 128
  Nalpha       = 64
  Nbeta        = 64

  ==> Algorithm <==

  SCF Algorithm Type is DF.
  DIIS enabled.
  MOM disabled.
  Fractional occupation disabled.
  Guess Type is SAD.
  Energy threshold   = 1.00e-10
  Density threshold  = 1.00e-10
  Integral threshold = 1.00e-12

  ==> Primary Basis <==

  Basis Set: AUG-CC-PVTZ
    Blend: AUG-CC-PVTZ
    Number of shells: 355
    Number of basis functions: 1081
    Number of Cartesian functions: 1260
    Spherical Harmonics?: true
    Max angular momentum: 3

   => Loading Basis Set <=

    Name: (AUG-CC-PVTZ AUX)
    Role: JKFIT
    Keyword: DF_BASIS_SCF
    atoms 1-5   entry O          line   286 file /home1/07844/xy3866/miniconda3/envs/p4env/share/psi4/basis/aug-cc-pvtz-jkfit.gbs 
    atoms 6-8   entry N          line   224 file /home1/07844/xy3866/miniconda3/envs/p4env/share/psi4/basis/aug-cc-pvtz-jkfit.gbs 
    atoms 9-17  entry C          line   162 file /home1/07844/xy3866/miniconda3/envs/p4env/share/psi4/basis/aug-cc-pvtz-jkfit.gbs 
    atoms 18-30 entry H          line    70 file /home1/07844/xy3866/miniconda3/envs/p4env/share/psi4/basis/aug-cc-pvtz-jkfit.gbs 

  ==> Integral Setup <==

  DFHelper Memory: AOs need 17.303 GiB; user supplied 22.352 GiB. Using in-core AOs.

  ==> MemDFJK: Density-Fitted J/K Matrices <==

    J tasked:                   Yes
    K tasked:                   Yes
    wK tasked:                   No
    OpenMP threads:              32
    Memory [MiB]:             22888
    Algorithm:                 Core
    Schwarz Cutoff:           1E-12
    Mask sparsity (%):      18.7011
    Fitting Condition:        1E-10

   => Auxiliary Basis Set <=

  Basis Set: (AUG-CC-PVTZ AUX)
    Blend: AUG-CC-PVTZ-JKFIT
    Number of shells: 692
    Number of basis functions: 2366
    Number of Cartesian functions: 2942
    Spherical Harmonics?: true
    Max angular momentum: 4

  Minimum eigenvalue in the overlap matrix is 9.5408617165E-07.
  Reciprocal condition number of the overlap matrix is 3.8915206624E-08.
    Using symmetric orthogonalization.

  ==> Pre-Iterations <==

  SCF Guess: Superposition of Atomic Densities via on-the-fly atomic UHF (no occupation information).

   -------------------------
    Irrep   Nso     Nmo    
   -------------------------
     A       1081    1081 
   -------------------------
    Total    1081    1081
   -------------------------

  ==> Iterations <==

                           Total Energy        Delta E     RMS |[F,P]|

   @DF-RHF iter SAD:  -886.02022653164840   -8.86020e+02   0.00000e+00 
   @DF-RHF iter   1:  -885.89717236333126    1.23054e-01   9.13150e-04 DIIS
   @DF-RHF iter   2:  -886.26676721618321   -3.69595e-01   4.99856e-04 DIIS
   @DF-RHF iter   3:  -886.36524959194833   -9.84824e-02   1.03083e-04 DIIS
   @DF-RHF iter   4:  -886.37230393479524   -7.05434e-03   4.19173e-05 DIIS
   @DF-RHF iter   5:  -886.37338915160058   -1.08522e-03   9.17010e-06 DIIS
   @DF-RHF iter   6:  -886.37349178209820   -1.02630e-04   4.36786e-06 DIIS
   @DF-RHF iter   7:  -886.37351608847678   -2.43064e-05   1.60276e-06 DIIS
   @DF-RHF iter   8:  -886.37352139278403   -5.30431e-06   6.31007e-07 DIIS
   @DF-RHF iter   9:  -886.37352215793135   -7.65147e-07   2.40307e-07 DIIS
   @DF-RHF iter  10:  -886.37352226738051   -1.09449e-07   9.36862e-08 DIIS
   @DF-RHF iter  11:  -886.37352228313262   -1.57521e-08   3.38792e-08 DIIS
   @DF-RHF iter  12:  -886.37352228475368   -1.62106e-09   1.33610e-08 DIIS
   @DF-RHF iter  13:  -886.37352228501140   -2.57728e-10   3.97095e-09 DIIS
   @DF-RHF iter  14:  -886.37352228503505   -2.36469e-11   1.64385e-09 DIIS
   @DF-RHF iter  15:  -886.37352228504017   -5.11591e-12   7.83262e-10 DIIS
   @DF-RHF iter  16:  -886.37352228504085   -6.82121e-13   3.09620e-10 DIIS
   @DF-RHF iter  17:  -886.37352228504312   -2.27374e-12   1.51022e-10 DIIS
   @DF-RHF iter  18:  -886.37352228504142    1.70530e-12   5.24986e-11 DIIS
  Energy and wave function converged.


  ==> Post-Iterations <==

    Orbital Energies [Eh]
    ---------------------

    Doubly Occupied:                                                      

       1A    -20.585683     2A    -20.581346     3A    -20.559505  
       4A    -20.556393     5A    -20.519815     6A    -15.633092  
       7A    -15.599742     8A    -15.551853     9A    -11.386058  
      10A    -11.358153    11A    -11.339654    12A    -11.325210  
      13A    -11.297640    14A    -11.297179    15A    -11.296971  
      16A    -11.293457    17A    -11.246667    18A     -1.429229  
      19A     -1.394107    20A     -1.382688    21A     -1.375365  
      22A     -1.346568    23A     -1.303747    24A     -1.271421  
      25A     -1.181280    26A     -1.079458    27A     -1.068857  
      28A     -1.017695    29A     -0.938921    30A     -0.907252  
      31A     -0.877603    32A     -0.830377    33A     -0.813664  
      34A     -0.766805    35A     -0.750576    36A     -0.736095  
      37A     -0.722569    38A     -0.707473    39A     -0.703291  
      40A     -0.686073    41A     -0.676007    42A     -0.655605  
      43A     -0.649076    44A     -0.633558    45A     -0.620474  
      46A     -0.615327    47A     -0.607827    48A     -0.593210  
      49A     -0.577095    50A     -0.565054    51A     -0.555980  
      52A     -0.548175    53A     -0.536760    54A     -0.531350  
      55A     -0.495760    56A     -0.482306    57A     -0.474203  
      58A     -0.463287    59A     -0.458041    60A     -0.453398  
      61A     -0.442108    62A     -0.430328    63A     -0.392339  
      64A     -0.348325  

    Virtual:                                                              

      65A      0.014539    66A      0.022099    67A      0.031852  
      68A      0.037844    69A      0.041386    70A      0.044749  
      71A      0.052832    72A      0.053738    73A      0.055481  
      74A      0.064426    75A      0.065295    76A      0.072649  
      77A      0.082374    78A      0.084413    79A      0.086322  
      80A      0.089705    81A      0.099833    82A      0.103023  
      83A      0.106204    84A      0.109598    85A      0.111730  
      86A      0.112317    87A      0.117782    88A      0.119391  
      89A      0.124576    90A      0.127288    91A      0.129174  
      92A      0.134228    93A      0.138016    94A      0.139811  
      95A      0.144417    96A      0.148954    97A      0.151814  
      98A      0.154925    99A      0.157066   100A      0.161725  
     101A      0.163859   102A      0.164885   103A      0.169777  
     104A      0.172444   105A      0.177154   106A      0.178993  
     107A      0.181415   108A      0.184170   109A      0.197978  
     110A      0.199862   111A      0.204539   112A      0.205790  
     113A      0.211184   114A      0.212086   115A      0.219165  
     116A      0.223861   117A      0.229548   118A      0.233962  
     119A      0.237706   120A      0.241039   121A      0.247502  
     122A      0.248893   123A      0.251141   124A      0.254106  
     125A      0.255736   126A      0.260892   127A      0.265310  
     128A      0.268619   129A      0.273222   130A      0.275954  
     131A      0.278076   132A      0.282762   133A      0.284056  
     134A      0.285884   135A      0.292020   136A      0.293193  
     137A      0.298992   138A      0.301902   139A      0.302773  
     140A      0.307064   141A      0.311247   142A      0.314419  
     143A      0.317123   144A      0.318049   145A      0.323640  
     146A      0.327706   147A      0.329324   148A      0.335516  
     149A      0.337886   150A      0.341764   151A      0.342551  
     152A      0.346900   153A      0.349361   154A      0.355416  
     155A      0.359672   156A      0.364671   157A      0.367961  
     158A      0.370365   159A      0.375893   160A      0.381433  
     161A      0.382041   162A      0.386828   163A      0.389119  
     164A      0.391459   165A      0.392945   166A      0.397692  
     167A      0.401918   168A      0.404264   169A      0.406357  
     170A      0.407628   171A      0.410919   172A      0.419417  
     173A      0.424284   174A      0.426301   175A      0.429127  
     176A      0.432552   177A      0.436986   178A      0.442281  
     179A      0.443996   180A      0.452859   181A      0.454718  
     182A      0.458218   183A      0.463338   184A      0.465140  
     185A      0.465928   186A      0.468515   187A      0.469985  
     188A      0.472380   189A      0.476417   190A      0.481598  
     191A      0.483862   192A      0.488287   193A      0.491890  
     194A      0.494840   195A      0.496815   196A      0.504619  
     197A      0.508837   198A      0.511211   199A      0.513999  
     200A      0.517676   201A      0.520041   202A      0.522904  
     203A      0.527113   204A      0.528358   205A      0.535946  
     206A      0.537884   207A      0.538858   208A      0.542641  
     209A      0.545313   210A      0.549096   211A      0.551885  
     212A      0.552878   213A      0.556943   214A      0.564778  
     215A      0.566733   216A      0.570981   217A      0.575116  
     218A      0.576489   219A      0.580671   220A      0.587869  
     221A      0.589341   222A      0.596244   223A      0.597913  
     224A      0.607137   225A      0.608573   226A      0.610551  
     227A      0.617483   228A      0.619868   229A      0.625810  
     230A      0.630206   231A      0.630988   232A      0.633956  
     233A      0.639164   234A      0.644113   235A      0.648651  
     236A      0.653076   237A      0.655006   238A      0.662575  
     239A      0.664374   240A      0.668915   241A      0.671317  
     242A      0.672321   243A      0.681243   244A      0.683464  
     245A      0.687947   246A      0.693153   247A      0.696575  
     248A      0.698679   249A      0.701687   250A      0.706124  
     251A      0.708369   252A      0.713814   253A      0.717160  
     254A      0.721643   255A      0.731347   256A      0.735048  
     257A      0.743420   258A      0.748062   259A      0.749466  
     260A      0.754290   261A      0.758141   262A      0.759355  
     263A      0.766020   264A      0.768987   265A      0.773225  
     266A      0.780029   267A      0.787617   268A      0.790675  
     269A      0.797834   270A      0.804315   271A      0.809347  
     272A      0.812146   273A      0.817318   274A      0.820499  
     275A      0.829452   276A      0.839657   277A      0.841501  
     278A      0.846628   279A      0.851058   280A      0.854671  
     281A      0.856413   282A      0.863043   283A      0.866269  
     284A      0.868736   285A      0.873927   286A      0.877349  
     287A      0.884765   288A      0.888159   289A      0.896554  
     290A      0.897323   291A      0.903001   292A      0.906851  
     293A      0.912213   294A      0.920631   295A      0.922808  
     296A      0.924921   297A      0.933190   298A      0.937561  
     299A      0.940339   300A      0.945493   301A      0.946919  
     302A      0.951196   303A      0.954620   304A      0.962104  
     305A      0.962964   306A      0.970242   307A      0.975398  
     308A      0.979075   309A      0.982078   310A      0.988604  
     311A      0.992697   312A      0.997836   313A      0.999475  
     314A      1.003592   315A      1.008780   316A      1.011227  
     317A      1.017387   318A      1.022268   319A      1.024902  
     320A      1.026968   321A      1.031480   322A      1.038590  
     323A      1.039760   324A      1.043435   325A      1.049428  
     326A      1.054835   327A      1.056947   328A      1.062102  
     329A      1.064098   330A      1.069432   331A      1.071948  
     332A      1.073028   333A      1.084252   334A      1.087770  
     335A      1.090522   336A      1.092300   337A      1.098708  
     338A      1.099820   339A      1.101813   340A      1.104288  
     341A      1.114030   342A      1.118657   343A      1.125123  
     344A      1.129170   345A      1.134088   346A      1.134316  
     347A      1.144374   348A      1.147897   349A      1.150412  
     350A      1.151159   351A      1.156473   352A      1.161499  
     353A      1.164398   354A      1.172606   355A      1.174747  
     356A      1.178148   357A      1.183929   358A      1.186809  
     359A      1.188882   360A      1.194741   361A      1.200330  
     362A      1.206962   363A      1.212335   364A      1.215907  
     365A      1.218245   366A      1.223866   367A      1.229302  
     368A      1.232060   369A      1.234983   370A      1.240373  
     371A      1.244335   372A      1.248370   373A      1.255878  
     374A      1.263219   375A      1.265239   376A      1.266244  
     377A      1.273962   378A      1.284007   379A      1.286430  
     380A      1.293639   381A      1.297685   382A      1.298899  
     383A      1.302540   384A      1.306779   385A      1.311378  
     386A      1.318133   387A      1.318777   388A      1.325782  
     389A      1.335383   390A      1.342532   391A      1.348570  
     392A      1.352915   393A      1.360402   394A      1.362790  
     395A      1.367478   396A      1.370339   397A      1.378482  
     398A      1.390884   399A      1.393463   400A      1.395527  
     401A      1.399716   402A      1.402653   403A      1.408861  
     404A      1.415335   405A      1.417122   406A      1.430395  
     407A      1.433547   408A      1.437816   409A      1.446012  
     410A      1.447806   411A      1.450599   412A      1.457752  
     413A      1.464353   414A      1.471488   415A      1.478375  
     416A      1.481393   417A      1.487152   418A      1.488925  
     419A      1.497611   420A      1.500816   421A      1.501726  
     422A      1.506674   423A      1.512308   424A      1.519221  
     425A      1.520294   426A      1.522133   427A      1.536541  
     428A      1.542748   429A      1.549735   430A      1.550120  
     431A      1.558694   432A      1.563282   433A      1.567497  
     434A      1.570647   435A      1.579614   436A      1.581924  
     437A      1.587330   438A      1.591193   439A      1.594173  
     440A      1.603097   441A      1.607631   442A      1.615384  
     443A      1.626135   444A      1.635430   445A      1.638595  
     446A      1.640981   447A      1.646805   448A      1.649671  
     449A      1.653391   450A      1.655878   451A      1.661134  
     452A      1.665419   453A      1.670582   454A      1.677269  
     455A      1.684296   456A      1.687473   457A      1.695031  
     458A      1.704970   459A      1.707735   460A      1.714103  
     461A      1.718172   462A      1.724697   463A      1.727104  
     464A      1.729540   465A      1.738658   466A      1.743818  
     467A      1.747008   468A      1.753964   469A      1.763764  
     470A      1.767428   471A      1.769319   472A      1.776927  
     473A      1.786167   474A      1.791356   475A      1.796180  
     476A      1.797802   477A      1.800538   478A      1.806807  
     479A      1.814622   480A      1.819554   481A      1.830709  
     482A      1.834460   483A      1.837987   484A      1.844814  
     485A      1.850274   486A      1.853435   487A      1.860833  
     488A      1.865431   489A      1.867302   490A      1.876764  
     491A      1.883340   492A      1.890299   493A      1.894058  
     494A      1.907123   495A      1.909124   496A      1.914471  
     497A      1.920867   498A      1.930270   499A      1.934730  
     500A      1.946442   501A      1.951432   502A      1.959457  
     503A      1.962546   504A      1.965035   505A      1.971590  
     506A      1.973582   507A      1.981168   508A      1.987404  
     509A      1.989491   510A      1.993725   511A      2.005677  
     512A      2.007545   513A      2.019274   514A      2.024015  
     515A      2.029549   516A      2.033418   517A      2.039854  
     518A      2.047971   519A      2.052384   520A      2.058862  
     521A      2.063317   522A      2.071083   523A      2.071349  
     524A      2.079131   525A      2.083259   526A      2.086189  
     527A      2.090855   528A      2.098725   529A      2.110181  
     530A      2.117641   531A      2.124088   532A      2.133047  
     533A      2.137420   534A      2.145474   535A      2.147711  
     536A      2.157629   537A      2.162622   538A      2.166541  
     539A      2.169165   540A      2.175047   541A      2.186765  
     542A      2.189694   543A      2.198007   544A      2.203278  
     545A      2.212046   546A      2.214445   547A      2.234241  
     548A      2.244481   549A      2.249578   550A      2.255073  
     551A      2.258680   552A      2.263606   553A      2.270067  
     554A      2.276499   555A      2.281893   556A      2.290113  
     557A      2.302801   558A      2.309565   559A      2.312353  
     560A      2.320820   561A      2.332743   562A      2.342064  
     563A      2.352148   564A      2.358909   565A      2.360695  
     566A      2.370092   567A      2.375158   568A      2.383731  
     569A      2.388476   570A      2.409004   571A      2.419266  
     572A      2.425895   573A      2.431826   574A      2.437676  
     575A      2.445264   576A      2.451163   577A      2.460695  
     578A      2.465847   579A      2.474435   580A      2.478762  
     581A      2.484206   582A      2.494502   583A      2.502482  
     584A      2.512963   585A      2.529590   586A      2.535773  
     587A      2.546415   588A      2.556907   589A      2.560521  
     590A      2.567662   591A      2.579551   592A      2.582288  
     593A      2.591935   594A      2.600648   595A      2.604618  
     596A      2.615165   597A      2.621960   598A      2.625087  
     599A      2.638987   600A      2.643741   601A      2.648139  
     602A      2.659106   603A      2.662267   604A      2.675129  
     605A      2.684844   606A      2.693413   607A      2.702226  
     608A      2.717226   609A      2.724453   610A      2.725616  
     611A      2.735888   612A      2.744801   613A      2.751662  
     614A      2.759074   615A      2.762930   616A      2.773834  
     617A      2.781296   618A      2.792933   619A      2.800711  
     620A      2.804049   621A      2.817124   622A      2.827300  
     623A      2.828992   624A      2.849074   625A      2.852255  
     626A      2.866079   627A      2.867619   628A      2.886249  
     629A      2.893876   630A      2.896774   631A      2.906511  
     632A      2.911295   633A      2.914919   634A      2.929354  
     635A      2.944875   636A      2.948200   637A      2.966558  
     638A      2.984596   639A      2.987748   640A      2.991269  
     641A      2.997540   642A      3.002765   643A      3.013141  
     644A      3.017446   645A      3.038076   646A      3.042665  
     647A      3.045503   648A      3.054402   649A      3.070019  
     650A      3.075204   651A      3.086586   652A      3.094894  
     653A      3.096872   654A      3.111509   655A      3.115382  
     656A      3.126848   657A      3.139033   658A      3.146470  
     659A      3.156414   660A      3.165910   661A      3.176203  
     662A      3.185719   663A      3.187824   664A      3.207259  
     665A      3.214361   666A      3.220155   667A      3.238759  
     668A      3.247255   669A      3.254656   670A      3.268677  
     671A      3.280255   672A      3.296623   673A      3.301765  
     674A      3.307930   675A      3.317844   676A      3.327365  
     677A      3.340163   678A      3.347877   679A      3.354866  
     680A      3.366409   681A      3.372848   682A      3.383530  
     683A      3.393736   684A      3.405793   685A      3.410008  
     686A      3.429001   687A      3.441544   688A      3.457851  
     689A      3.475903   690A      3.482027   691A      3.487191  
     692A      3.502113   693A      3.521561   694A      3.526085  
     695A      3.538978   696A      3.546172   697A      3.558933  
     698A      3.566696   699A      3.570696   700A      3.598609  
     701A      3.602555   702A      3.615058   703A      3.632748  
     704A      3.638337   705A      3.653427   706A      3.661178  
     707A      3.676660   708A      3.696361   709A      3.704453  
     710A      3.707741   711A      3.725914   712A      3.729481  
     713A      3.739932   714A      3.746286   715A      3.759032  
     716A      3.767839   717A      3.779943   718A      3.782950  
     719A      3.791023   720A      3.799750   721A      3.803160  
     722A      3.808546   723A      3.828059   724A      3.834706  
     725A      3.843568   726A      3.847905   727A      3.854876  
     728A      3.868299   729A      3.874844   730A      3.882031  
     731A      3.894658   732A      3.899572   733A      3.909617  
     734A      3.926773   735A      3.934206   736A      3.947633  
     737A      3.954793   738A      3.958681   739A      3.964910  
     740A      3.972115   741A      3.978625   742A      3.989149  
     743A      3.996005   744A      4.011625   745A      4.016826  
     746A      4.019442   747A      4.034357   748A      4.041505  
     749A      4.047005   750A      4.056606   751A      4.063736  
     752A      4.071779   753A      4.079881   754A      4.083823  
     755A      4.086645   756A      4.088018   757A      4.102427  
     758A      4.118337   759A      4.123234   760A      4.140107  
     761A      4.143860   762A      4.150618   763A      4.158028  
     764A      4.165366   765A      4.167267   766A      4.173318  
     767A      4.186427   768A      4.191927   769A      4.194469  
     770A      4.206604   771A      4.211595   772A      4.231215  
     773A      4.235461   774A      4.248373   775A      4.255284  
     776A      4.262517   777A      4.267838   778A      4.272983  
     779A      4.284499   780A      4.293348   781A      4.301210  
     782A      4.303089   783A      4.306399   784A      4.312556  
     785A      4.316388   786A      4.334572   787A      4.340181  
     788A      4.358568   789A      4.361682   790A      4.372915  
     791A      4.374597   792A      4.379372   793A      4.386408  
     794A      4.395912   795A      4.402945   796A      4.408662  
     797A      4.412184   798A      4.414186   799A      4.433503  
     800A      4.433957   801A      4.439500   802A      4.447288  
     803A      4.449818   804A      4.459738   805A      4.476026  
     806A      4.486382   807A      4.495065   808A      4.502634  
     809A      4.505007   810A      4.510073   811A      4.515080  
     812A      4.527259   813A      4.540086   814A      4.547343  
     815A      4.555166   816A      4.571210   817A      4.581734  
     818A      4.584228   819A      4.601916   820A      4.605184  
     821A      4.615959   822A      4.622060   823A      4.635517  
     824A      4.639313   825A      4.652087   826A      4.672905  
     827A      4.675186   828A      4.687577   829A      4.693602  
     830A      4.708938   831A      4.714401   832A      4.723772  
     833A      4.724787   834A      4.733267   835A      4.739566  
     836A      4.753211   837A      4.758723   838A      4.764261  
     839A      4.779118   840A      4.787439   841A      4.797794  
     842A      4.807794   843A      4.825531   844A      4.827387  
     845A      4.836524   846A      4.846300   847A      4.846611  
     848A      4.853616   849A      4.868172   850A      4.883041  
     851A      4.901646   852A      4.908529   853A      4.923753  
     854A      4.939136   855A      4.953897   856A      4.959107  
     857A      4.962154   858A      4.973452   859A      4.979822  
     860A      4.987105   861A      4.990051   862A      5.006482  
     863A      5.021782   864A      5.024945   865A      5.042431  
     866A      5.061152   867A      5.065196   868A      5.070409  
     869A      5.093831   870A      5.095982   871A      5.113963  
     872A      5.116589   873A      5.126763   874A      5.136736  
     875A      5.143762   876A      5.156067   877A      5.171841  
     878A      5.173914   879A      5.185192   880A      5.198734  
     881A      5.212236   882A      5.226391   883A      5.247260  
     884A      5.254348   885A      5.269169   886A      5.273938  
     887A      5.285949   888A      5.295026   889A      5.305739  
     890A      5.312813   891A      5.320862   892A      5.334211  
     893A      5.340425   894A      5.346837   895A      5.352328  
     896A      5.359506   897A      5.372225   898A      5.382220  
     899A      5.395097   900A      5.400245   901A      5.409613  
     902A      5.419441   903A      5.430370   904A      5.441741  
     905A      5.444761   906A      5.448138   907A      5.465043  
     908A      5.475440   909A      5.488109   910A      5.490978  
     911A      5.504881   912A      5.513267   913A      5.533907  
     914A      5.538666   915A      5.546480   916A      5.557702  
     917A      5.569658   918A      5.591469   919A      5.597215  
     920A      5.608982   921A      5.611393   922A      5.615872  
     923A      5.643389   924A      5.653963   925A      5.669422  
     926A      5.671773   927A      5.677356   928A      5.686752  
     929A      5.705586   930A      5.714934   931A      5.722718  
     932A      5.734629   933A      5.750774   934A      5.759670  
     935A      5.767130   936A      5.787640   937A      5.793495  
     938A      5.799174   939A      5.819947   940A      5.843102  
     941A      5.852674   942A      5.855055   943A      5.877476  
     944A      5.882928   945A      5.904481   946A      5.921032  
     947A      5.938654   948A      5.950355   949A      5.971722  
     950A      5.990196   951A      5.995361   952A      6.011108  
     953A      6.025200   954A      6.036696   955A      6.054747  
     956A      6.077391   957A      6.093208   958A      6.125364  
     959A      6.142495   960A      6.153415   961A      6.160889  
     962A      6.169027   963A      6.180375   964A      6.199325  
     965A      6.238232   966A      6.249811   967A      6.274731  
     968A      6.289082   969A      6.300302   970A      6.331702  
     971A      6.365934   972A      6.388370   973A      6.417814  
     974A      6.447291   975A      6.465152   976A      6.485361  
     977A      6.527524   978A      6.533630   979A      6.565278  
     980A      6.668497   981A      6.696482   982A      6.724097  
     983A      6.741457   984A      6.748749   985A      6.775940  
     986A      6.791235   987A      6.810751   988A      6.822999  
     989A      6.857394   990A      6.859205   991A      6.875841  
     992A      6.881786   993A      6.903833   994A      6.925238  
     995A      6.964539   996A      6.976511   997A      6.992495  
     998A      7.006604   999A      7.008684  1000A      7.026091  
    1001A      7.052579  1002A      7.061863  1003A      7.067959  
    1004A      7.088788  1005A      7.105903  1006A      7.121151  
    1007A      7.154231  1008A      7.165853  1009A      7.174696  
    1010A      7.188853  1011A      7.213505  1012A      7.217012  
    1013A      7.235469  1014A      7.252525  1015A      7.263940  
    1016A      7.294452  1017A      7.318819  1018A      7.341728  
    1019A      7.352387  1020A      7.364620  1021A      7.388767  
    1022A      7.407868  1023A      7.441716  1024A      7.443677  
    1025A      7.465288  1026A      7.500524  1027A      7.511779  
    1028A      7.526074  1029A      7.547181  1030A      7.554207  
    1031A      7.572503  1032A      7.586008  1033A      7.610900  
    1034A      7.627377  1035A      7.635935  1036A      7.650121  
    1037A      7.667286  1038A      7.690406  1039A      7.723765  
    1040A      7.751642  1041A      7.775274  1042A      7.808165  
    1043A      7.857954  1044A      7.862834  1045A      7.902796  
    1046A      7.939541  1047A      7.945871  1048A      7.967788  
    1049A      7.995091  1050A      8.020713  1051A      8.058676  
    1052A      8.078951  1053A      8.145472  1054A      8.200338  
    1055A      8.220124  1056A      8.239915  1057A      8.300237  
    1058A      8.346673  1059A      8.430674  1060A      8.475057  
    1061A      8.543998  1062A      8.671901  1063A      8.693839  
    1064A      8.826971  1065A     16.156011  1066A     16.284074  
    1067A     16.453593  1068A     16.763870  1069A     17.081396  
    1070A     17.188314  1071A     17.666270  1072A     18.133981  
    1073A     18.570802  1074A     18.855921  1075A     19.638917  
    1076A     19.677113  1077A     20.131109  1078A     20.307790  
    1079A     20.571924  1080A     21.006981  1081A     21.810227  

    Final Occupation by Irrep:
              A 
    DOCC [    64 ]

  @DF-RHF Final Energy:  -886.37352228504142

   => Energetics <=

    Nuclear Repulsion Energy =           1334.7727541936549187
    One-Electron Energy =               -3867.2423058477334052
    Two-Electron Energy =                1646.0960293690372964
    Total Energy =                       -886.3735222850414175

Computation Completed

*** tstop() called on c445-043.stampede2.tacc.utexas.edu at Sat Mar 20 12:20:45 2021
Module time:
	user time   =    2670.58 seconds =      44.51 minutes
	system time =     152.29 seconds =       2.54 minutes
	total time  =        126 seconds =       2.10 minutes
Total time:
	user time   =    2670.58 seconds =      44.51 minutes
	system time =     152.29 seconds =       2.54 minutes
	total time  =        126 seconds =       2.10 minutes
   => Loading Basis Set <=

    Name: (AUG-CC-PVTZ AUX)
    Role: RIFIT
    Keyword: DF_BASIS_MP2
    atoms 1-5   entry O          line   264 file /home1/07844/xy3866/miniconda3/envs/p4env/share/psi4/basis/aug-cc-pvtz-ri.gbs 
    atoms 6-8   entry N          line   206 file /home1/07844/xy3866/miniconda3/envs/p4env/share/psi4/basis/aug-cc-pvtz-ri.gbs 
    atoms 9-17  entry C          line   148 file /home1/07844/xy3866/miniconda3/envs/p4env/share/psi4/basis/aug-cc-pvtz-ri.gbs 
    atoms 18-30 entry H          line    30 file /home1/07844/xy3866/miniconda3/envs/p4env/share/psi4/basis/aug-cc-pvtz-ri.gbs 


*** tstart() called on c445-043.stampede2.tacc.utexas.edu
*** at Sat Mar 20 12:20:47 2021


  //>>>>>>>>>>>>>>>>>>>>>>>>>>>>>>>>>>>//
  //               DFMP2               //
  //<<<<<<<<<<<<<<<<<<<<<<<<<<<<<<<<<<<//

	 --------------------------------------------------------
	                          DF-MP2                         
	      2nd-Order Density-Fitted Moller-Plesset Theory     
	              RMP2 Wavefunction,  32 Threads             
	                                                         
	        Rob Parrish, Justin Turney, Andy Simmonett,      
	           Ed Hohenstein, and C. David Sherrill          
	 --------------------------------------------------------

   => Auxiliary Basis Set <=

  Basis Set: (AUG-CC-PVTZ AUX)
    Blend: AUG-CC-PVTZ-RI
    Number of shells: 658
    Number of basis functions: 2400
    Number of Cartesian functions: 3027
    Spherical Harmonics?: true
    Max angular momentum: 4

	 --------------------------------------------------------
	                 NBF =  1081, NAUX =  2400
	 --------------------------------------------------------
	   CLASS    FOCC     OCC    AOCC    AVIR     VIR    FVIR
	   PAIRS       0      64      64    1017    1017       0
	 --------------------------------------------------------

  DFHelper Memory: AOs need 18.583 GiB; user supplied 22.352 GiB. Using in-core AOs.


         ------------------------------------------------------------
                                     CPHF                           
                                  Rob Parrish                       
         ------------------------------------------------------------

  ==> Geometry <==

    Molecular point group: c1
    Full point group: C1

    Geometry (in Angstrom), charge = 0, multiplicity = 1:

       Center              X                  Y                   Z               Mass       
    ------------   -----------------  -----------------  -----------------  -----------------
         O           -1.331769160260     0.682368481892    -1.083338386445    15.994914619570
         O           -1.586153160260    -2.435552518108     0.529478613555    15.994914619570
         O           -3.573255160260    -1.041410518108    -0.444108386445    15.994914619570
         O           -1.452521160260     3.153994481892     0.142415613555    15.994914619570
         O            1.093960839740    -2.354832518108     0.023499613555    15.994914619570
         N            0.756043839740    -0.129411518108    -0.354737386445    14.003074004430
         N            2.923784839740    -0.965339518108     0.161905613555    14.003074004430
         N            4.693295839740     0.471643481892     0.377023613555    14.003074004430
         C           -1.389453160260    -1.039511518108     0.571175613555    12.000000000000
         C           -2.750576160260    -0.346103518108     0.473745613555    12.000000000000
         C           -0.650341160260    -0.475761518108    -0.663117386445    12.000000000000
         C           -2.383336160260     0.994077481892    -0.142608386445    12.000000000000
         C           -1.911795160260     2.018107481892     0.873035613555    12.000000000000
         C            1.218376839740     1.147612481892    -0.428325386445    12.000000000000
         C            1.597855839740    -1.218526518108    -0.042678386445    12.000000000000
         C            2.534872839740     1.403901481892    -0.183964386445    12.000000000000
         C            3.367616839740     0.280836481892     0.096738613555    12.000000000000
         H           -0.856728160260    -0.740162518108     1.485745613555     1.007825032230
         H           -3.238332160260    -0.249346518108     1.455920613555     1.007825032230
         H           -0.635299160260    -1.214279518108    -1.472474386445     1.007825032230
         H           -3.206767160260     1.407105481892    -0.731309386445     1.007825032230
         H           -1.144345360260     1.617982481892     1.467780313555     1.007825032230
         H           -2.753645160260     2.275193481892     1.532498613555     1.007825032230
         H           -0.683647160260    -2.797541518108     0.370122613555     1.007825032230
         H           -3.318939160260    -1.981989518108    -0.347031386445     1.007825032230
         H            0.480336839740     1.906358481892    -0.668138386445     1.007825032230
         H           -1.222472160260     3.844013481892     0.787931613555     1.007825032230
         H            2.920891839740     2.416089481892    -0.223014386445     1.007825032230
         H            5.146372839740     1.299805481892     0.015057613555     1.007825032230
         H            5.250938839740    -0.374594518108     0.376567613555     1.007825032230

  Nuclear repulsion = 1334.772754193654919
  Reference energy  = -886.373522285041417

  ==> Basis Set <==

  Basis Set: AUG-CC-PVTZ
    Blend: AUG-CC-PVTZ
    Number of shells: 355
    Number of basis functions: 1081
    Number of Cartesian functions: 1260
    Spherical Harmonics?: true
    Max angular momentum: 3

  ==> CGRSolver (by Rob Parrish) <==

   Number of roots    =         1
   Preconditioning    =    JACOBI
   Convergence cutoff =     1E-06
   Maximum iterations =       100

  ==> CPHFRHamiltonian (by Rob Parrish) <== 

  ==> MemDFJK: Density-Fitted J/K Matrices <==

    J tasked:                   Yes
    K tasked:                   Yes
    wK tasked:                   No
    OpenMP threads:              32
    Memory [MiB]:             22888
    Algorithm:                 Core
    Schwarz Cutoff:           1E-12
    Mask sparsity (%):      12.4875
    Fitting Condition:        1E-10

   => Auxiliary Basis Set <=

  Basis Set: (AUG-CC-PVTZ AUX)
    Blend: AUG-CC-PVTZ-JKFIT
    Number of shells: 692
    Number of basis functions: 2366
    Number of Cartesian functions: 2942
    Spherical Harmonics?: true
    Max angular momentum: 4

  ==> CPHF Iterations <==

  => Iterations <=

             Iter  Converged  Remaining    Residual
  CGR           1          0          1   1.211E-01
  CGR           2          0          1   3.851E-02
  CGR           3          0          1   1.992E-02
  CGR           4          0          1   5.913E-03
  CGR           5          0          1   2.598E-03
  CGR           6          0          1   9.902E-04
  CGR           7          0          1   3.139E-04
  CGR           8          0          1   1.175E-04
  CGR           9          0          1   4.084E-05
  CGR          10          0          1   1.575E-05
  CGR          11          0          1   6.414E-06
  CGR          12          0          1   2.318E-06
  CGR          13          1          0   8.901E-07

    CGRSolver converged.

	-----------------------------------------------------------
	 ==================> DF-MP2 Energies <==================== 
	-----------------------------------------------------------
	 Reference Energy          =    -886.3735222850414175 [Eh]
	 Singles Energy            =      -0.0000000000000000 [Eh]
	 Same-Spin Energy          =      -0.9017128961133924 [Eh]
	 Opposite-Spin Energy      =      -2.7155188313903436 [Eh]
	 Correlation Energy        =      -3.6172317275037358 [Eh]
	 Total Energy              =    -889.9907540125451533 [Eh]
	-----------------------------------------------------------
	 ================> DF-SCS-MP2 Energies <================== 
	-----------------------------------------------------------
	 SCS Same-Spin Scale       =       0.3333333333333333 [-]
	 SCS Opposite-Spin Scale   =       1.2000000000000000 [-]
	 SCS Same-Spin Energy      =      -0.3005709653711308 [Eh]
	 SCS Opposite-Spin Energy  =      -3.2586225976684120 [Eh]
	 SCS Correlation Energy    =      -3.5591935630395426 [Eh]
	 SCS Total Energy          =    -889.9327158480809885 [Eh]
	-----------------------------------------------------------



Properties will be evaluated at   0.000000,  -0.000000,  -0.000000 [a0]

Properties computed using the MP2 density matrix

  Nuclear Dipole Moment: [e a0]
     X:    -3.1149      Y:     6.9376      Z:     3.7919

  Electronic Dipole Moment: [e a0]
     X:     4.1988      Y:    -4.6650      Z:    -3.0177

  Dipole Moment: [e a0]
     X:     1.0839      Y:     2.2726      Z:     0.7742     Total:     2.6342

  Dipole Moment: [D]
     X:     2.7550      Y:     5.7765      Z:     1.9679     Total:     6.6955


*** tstop() called on c445-043.stampede2.tacc.utexas.edu at Sat Mar 20 12:34:08 2021
Module time:
	user time   =   10363.47 seconds =     172.72 minutes
	system time =     190.42 seconds =       3.17 minutes
	total time  =        801 seconds =      13.35 minutes
Total time:
	user time   =   13035.55 seconds =     217.26 minutes
	system time =     342.75 seconds =       5.71 minutes
	total time  =        929 seconds =      15.48 minutes

    Psi4 stopped on: Saturday, 20 March 2021 12:34PM
    Psi4 wall time for execution: 0:15:32.52

*** Psi4 exiting successfully. Buy a developer a beer!
