
    -----------------------------------------------------------------------
          Psi4: An Open-Source Ab Initio Electronic Structure Package
                               Psi4 1.3.2 release

                         Git: Rev {HEAD} ecbda83 


    R. M. Parrish, L. A. Burns, D. G. A. Smith, A. C. Simmonett,
    A. E. DePrince III, E. G. Hohenstein, U. Bozkaya, A. Yu. Sokolov,
    R. Di Remigio, R. M. Richard, J. F. Gonthier, A. M. James,
    H. R. McAlexander, A. Kumar, M. Saitow, X. Wang, B. P. Pritchard,
    P. Verma, H. F. Schaefer III, K. Patkowski, R. A. King, E. F. Valeev,
    F. A. Evangelista, J. M. Turney, T. D. Crawford, and C. D. Sherrill,
    J. Chem. Theory Comput. 13(7) pp 3185--3197 (2017).
    (doi: 10.1021/acs.jctc.7b00174)


                         Additional Contributions by
    P. Kraus, H. Kruse, M. H. Lechner, M. C. Schieber, R. A. Shaw,
    A. Alenaizan, R. Galvelis, Z. L. Glick, S. Lehtola, and J. P. Misiewicz

    -----------------------------------------------------------------------


    Psi4 started on: Tuesday, 03 November 2020 09:08PM

    Process ID: 43828
    Host:       node35.bme.utexas.edu
    PSIDATADIR: /home/xy3866/psi4conda/share/psi4
    Memory:     500.0 MiB
    Threads:    8
    
  ==> Input File <==

--------------------------------------------------------------------------
#psi4
#
memory 32 gb

molecule  {
0 1
  O       -1.2481010    -0.6526680     1.0325150
  O       -1.2449750     2.4828510    -0.6861630
  O       -3.2165300     1.5210990     0.7448870
  O       -2.3570290    -3.0668370     0.0949400
  O        1.3605300     2.2470340    -0.0765420
  N        0.8434040     0.0452230     0.2559430
  N        3.0572260     0.7205030    -0.2937270
  N        4.7164630    -0.8366550    -0.5722980
  C       -1.2894840     1.0784300    -0.5920770
  C       -2.7151710     0.6552070    -0.2573930
  C       -0.5161359     0.4784058     0.6075978
  C       -2.5319700    -0.7274900     0.3673674
  C       -2.5283440    -1.8503930    -0.6392900
  C        1.2197750    -1.2614080     0.3112740
  C        1.7555940     1.0674350    -0.0594030
  C        2.5111010    -1.6091400     0.0469950
  C        3.4119830    -0.5506530    -0.2589250
  H       -0.9376060     0.5914040    -1.5148910
  H       -3.3625820     0.6426650    -1.1464650
  H       -0.4402900     1.2218800     1.4039980
  H       -3.2819570    -0.9087340     1.1307830
  H       -1.7133080    -1.7003050    -1.3694640
  H       -3.4855610    -1.8340040    -1.1841350
  H       -0.2975250     2.7131790    -0.5250000
  H       -2.8475560     2.3997430     0.5086630
  H        0.4343110    -1.9634370     0.5690680
  H       -2.4338740    -3.7984320    -0.5432330
  H        2.8291120    -2.6453980     0.0739220
  H        5.1251800    -1.6708610    -0.1624140
  H        5.3198140    -0.0200540    -0.5682940
units angstrom
no_reorient  #important for SAPT in psi4, default
symmetry c1  #important for SAPT in psi4, default
}

set PROPERTIES_ORIGIN ["COM"]
properties('MP2/aug-cc-pvtz', properties = ['dipole'])
--------------------------------------------------------------------------

  Memory set to  29.802 GiB by Python driver.
    SCF Algorithm Type (re)set to DF.

*** tstart() called on node35.bme.utexas.edu
*** at Tue Nov  3 21:08:20 2020

   => Loading Basis Set <=

    Name: AUG-CC-PVTZ
    Role: ORBITAL
    Keyword: BASIS
    atoms 1-5   entry O          line   327 file /home/xy3866/psi4conda/share/psi4/basis/aug-cc-pvtz.gbs 
    atoms 6-8   entry N          line   281 file /home/xy3866/psi4conda/share/psi4/basis/aug-cc-pvtz.gbs 
    atoms 9-17  entry C          line   235 file /home/xy3866/psi4conda/share/psi4/basis/aug-cc-pvtz.gbs 
    atoms 18-30 entry H          line    36 file /home/xy3866/psi4conda/share/psi4/basis/aug-cc-pvtz.gbs 


         ---------------------------------------------------------
                                   SCF
               by Justin Turney, Rob Parrish, Andy Simmonett
                          and Daniel G. A. Smith
                              RHF Reference
                        8 Threads,  30517 MiB Core
         ---------------------------------------------------------

  ==> Geometry <==

    Molecular point group: c1
    Full point group: C1

    Geometry (in Angstrom), charge = 0, multiplicity = 1:

       Center              X                  Y                   Z               Mass       
    ------------   -----------------  -----------------  -----------------  -----------------
         O           -1.248424776790    -0.651990786218     1.031833015400    15.994914619570
         O           -1.245298776790     2.483528213782    -0.686844984600    15.994914619570
         O           -3.216853776790     1.521776213782     0.744205015400    15.994914619570
         O           -2.357352776790    -3.066159786218     0.094258015400    15.994914619570
         O            1.360206223210     2.247711213782    -0.077223984600    15.994914619570
         N            0.843080223210     0.045900213782     0.255261015400    14.003074004430
         N            3.056902223210     0.721180213782    -0.294408984600    14.003074004430
         N            4.716139223210    -0.835977786218    -0.572979984600    14.003074004430
         C           -1.289807776790     1.079107213782    -0.592758984600    12.000000000000
         C           -2.715494776790     0.655884213782    -0.258074984600    12.000000000000
         C           -0.516459676790     0.479083013782     0.606915815400    12.000000000000
         C           -2.532293776790    -0.726812786218     0.366685415400    12.000000000000
         C           -2.528667776790    -1.849715786218    -0.639971984600    12.000000000000
         C            1.219451223210    -1.260730786218     0.310592015400    12.000000000000
         C            1.755270223210     1.068112213782    -0.060084984600    12.000000000000
         C            2.510777223210    -1.608462786218     0.046313015400    12.000000000000
         C            3.411659223210    -0.549975786218    -0.259606984600    12.000000000000
         H           -0.937929776790     0.592081213782    -1.515572984600     1.007825032230
         H           -3.362905776790     0.643342213782    -1.147146984600     1.007825032230
         H           -0.440613776790     1.222557213782     1.403316015400     1.007825032230
         H           -3.282280776790    -0.908056786218     1.130101015400     1.007825032230
         H           -1.713631776790    -1.699627786218    -1.370145984600     1.007825032230
         H           -3.485884776790    -1.833326786218    -1.184816984600     1.007825032230
         H           -0.297848776790     2.713856213782    -0.525681984600     1.007825032230
         H           -2.847879776790     2.400420213782     0.507981015400     1.007825032230
         H            0.433987223210    -1.962759786218     0.568386015400     1.007825032230
         H           -2.434197776790    -3.797754786218    -0.543914984600     1.007825032230
         H            2.828788223210    -2.644720786218     0.073240015400     1.007825032230
         H            5.124856223210    -1.670183786218    -0.163095984600     1.007825032230
         H            5.319490223210    -0.019376786218    -0.568975984600     1.007825032230

  Running in c1 symmetry.

  Rotational constants: A =      0.02617  B =      0.01119  C =      0.00834 [cm^-1]
  Rotational constants: A =    784.67429  B =    335.35895  C =    250.06003 [MHz]
  Nuclear repulsion = 1323.459987201264084

  Charge       = 0
  Multiplicity = 1
  Electrons    = 128
  Nalpha       = 64
  Nbeta        = 64

  ==> Algorithm <==

  SCF Algorithm Type is DF.
  DIIS enabled.
  MOM disabled.
  Fractional occupation disabled.
  Guess Type is SAD.
  Energy threshold   = 1.00e-10
  Density threshold  = 1.00e-10
  Integral threshold = 0.00e+00

  ==> Primary Basis <==

  Basis Set: AUG-CC-PVTZ
    Blend: AUG-CC-PVTZ
    Number of shells: 355
    Number of basis function: 1081
    Number of Cartesian functions: 1260
    Spherical Harmonics?: true
    Max angular momentum: 3

   => Loading Basis Set <=

    Name: (AUG-CC-PVTZ AUX)
    Role: JKFIT
    Keyword: DF_BASIS_SCF
    atoms 1-5   entry O          line   286 file /home/xy3866/psi4conda/share/psi4/basis/aug-cc-pvtz-jkfit.gbs 
    atoms 6-8   entry N          line   224 file /home/xy3866/psi4conda/share/psi4/basis/aug-cc-pvtz-jkfit.gbs 
    atoms 9-17  entry C          line   162 file /home/xy3866/psi4conda/share/psi4/basis/aug-cc-pvtz-jkfit.gbs 
    atoms 18-30 entry H          line    70 file /home/xy3866/psi4conda/share/psi4/basis/aug-cc-pvtz-jkfit.gbs 

  ==> Pre-Iterations <==

   -------------------------------------------------------
    Irrep   Nso     Nmo     Nalpha   Nbeta   Ndocc  Nsocc
   -------------------------------------------------------
     A       1081    1081       0       0       0       0
   -------------------------------------------------------
    Total    1081    1081      64      64      64       0
   -------------------------------------------------------

  ==> Integral Setup <==

  DFHelper Memory: AOs need 18.209 GiB; user supplied 22.352 GiB. Using in-core AOs.

  ==> MemDFJK: Density-Fitted J/K Matrices <==

    J tasked:                   Yes
    K tasked:                   Yes
    wK tasked:                   No
    OpenMP threads:               8
    Memory [MiB]:             22888
    Algorithm:                 Disk
    Schwarz Cutoff:           1E-12
    Mask sparsity (%):      13.2880
    Fitting Condition:        1E-10

   => Auxiliary Basis Set <=

  Basis Set: (AUG-CC-PVTZ AUX)
    Blend: AUG-CC-PVTZ-JKFIT
    Number of shells: 692
    Number of basis function: 2366
    Number of Cartesian functions: 2942
    Spherical Harmonics?: true
    Max angular momentum: 4

  Minimum eigenvalue in the overlap matrix is 9.6692217414E-07.
  Using Symmetric Orthogonalization.

  SCF Guess: Superposition of Atomic Densities via on-the-fly atomic UHF.

  ==> Iterations <==

                           Total Energy        Delta E     RMS |[F,P]|

   @DF-RHF iter SAD:  -885.98109098905684   -8.85981e+02   0.00000e+00 
   @DF-RHF iter   1:  -885.89521947575815    8.58715e-02   9.15521e-04 DIIS
   @DF-RHF iter   2:  -886.26416519729412   -3.68946e-01   5.05660e-04 DIIS
   @DF-RHF iter   3:  -886.36518739954749   -1.01022e-01   1.02930e-04 DIIS
   @DF-RHF iter   4:  -886.37230872391558   -7.12132e-03   4.16184e-05 DIIS
   @DF-RHF iter   5:  -886.37338991525371   -1.08119e-03   9.11720e-06 DIIS
   @DF-RHF iter   6:  -886.37349262578869   -1.02711e-04   4.43367e-06 DIIS
   @DF-RHF iter   7:  -886.37351739333781   -2.47675e-05   1.61588e-06 DIIS
   @DF-RHF iter   8:  -886.37352287967599   -5.48634e-06   6.32179e-07 DIIS
   @DF-RHF iter   9:  -886.37352366540574   -7.85730e-07   2.43174e-07 DIIS
   @DF-RHF iter  10:  -886.37352377859827   -1.13193e-07   9.43830e-08 DIIS
   @DF-RHF iter  11:  -886.37352379482559   -1.62273e-08   3.45857e-08 DIIS
   @DF-RHF iter  12:  -886.37352379652827   -1.70269e-09   1.32912e-08 DIIS
   @DF-RHF iter  13:  -886.37352379679226   -2.63981e-10   4.00937e-09 DIIS
   @DF-RHF iter  14:  -886.37352379681749   -2.52385e-11   1.66825e-09 DIIS
   @DF-RHF iter  15:  -886.37352379681863   -1.13687e-12   7.97552e-10 DIIS
   @DF-RHF iter  16:  -886.37352379682125   -2.61480e-12   3.15230e-10 DIIS
   @DF-RHF iter  17:  -886.37352379682306   -1.81899e-12   1.52541e-10 DIIS
   @DF-RHF iter  18:  -886.37352379682375   -6.82121e-13   5.14095e-11 DIIS
  Energy and wave function converged.


  ==> Post-Iterations <==

    Orbital Energies [Eh]
    ---------------------

    Doubly Occupied:                                                      

       1A    -20.581960     2A    -20.580585     3A    -20.557199  
       4A    -20.556681     5A    -20.522330     6A    -15.637438  
       7A    -15.600115     8A    -15.553682     9A    -11.388706  
      10A    -11.358175    11A    -11.341045    12A    -11.328830  
      13A    -11.300851    14A    -11.296633    15A    -11.296331  
      16A    -11.292758    17A    -11.248896    18A     -1.428509  
      19A     -1.396484    20A     -1.379615    21A     -1.372538  
      22A     -1.345590    23A     -1.306532    24A     -1.274735  
      25A     -1.182746    26A     -1.082431    27A     -1.065715  
      28A     -1.019979    29A     -0.935772    30A     -0.910018  
      31A     -0.877047    32A     -0.832148    33A     -0.811446  
      34A     -0.767651    35A     -0.752378    36A     -0.736106  
      37A     -0.720133    38A     -0.702880    39A     -0.697938  
      40A     -0.685987    41A     -0.672933    42A     -0.655059  
      43A     -0.651538    44A     -0.637934    45A     -0.620505  
      46A     -0.614790    47A     -0.606701    48A     -0.594263  
      49A     -0.575357    50A     -0.571158    51A     -0.553210  
      52A     -0.545399    53A     -0.536570    54A     -0.532367  
      55A     -0.498218    56A     -0.477035    57A     -0.472574  
      58A     -0.462670    59A     -0.460020    60A     -0.451447  
      61A     -0.439929    62A     -0.433654    63A     -0.395208  
      64A     -0.350146  

    Virtual:                                                              

      65A      0.015618    66A      0.022157    67A      0.032367  
      68A      0.037659    69A      0.040840    70A      0.044934  
      71A      0.053288    72A      0.054405    73A      0.056498  
      74A      0.062428    75A      0.064323    76A      0.074107  
      77A      0.081901    78A      0.082750    79A      0.085568  
      80A      0.089322    81A      0.100437    82A      0.101400  
      83A      0.104580    84A      0.109447    85A      0.112185  
      86A      0.113691    87A      0.119223    88A      0.120055  
      89A      0.124674    90A      0.126566    91A      0.128925  
      92A      0.134746    93A      0.137750    94A      0.140388  
      95A      0.145717    96A      0.148001    97A      0.150143  
      98A      0.152621    99A      0.155560   100A      0.159366  
     101A      0.165174   102A      0.167625   103A      0.170117  
     104A      0.173746   105A      0.177527   106A      0.179717  
     107A      0.180896   108A      0.183272   109A      0.195044  
     110A      0.196987   111A      0.203102   112A      0.205693  
     113A      0.210986   114A      0.215209   115A      0.221594  
     116A      0.224352   117A      0.227972   118A      0.234287  
     119A      0.235933   120A      0.242125   121A      0.244706  
     122A      0.247331   123A      0.251547   124A      0.251770  
     125A      0.254779   126A      0.263574   127A      0.265472  
     128A      0.270300   129A      0.272219   130A      0.275309  
     131A      0.277339   132A      0.280779   133A      0.283710  
     134A      0.285048   135A      0.288504   136A      0.292177  
     137A      0.295219   138A      0.299922   139A      0.302891  
     140A      0.306552   141A      0.311340   142A      0.315224  
     143A      0.318199   144A      0.319161   145A      0.323594  
     146A      0.326768   147A      0.331051   148A      0.333982  
     149A      0.334856   150A      0.340332   151A      0.346963  
     152A      0.351150   153A      0.352193   154A      0.354643  
     155A      0.358643   156A      0.359060   157A      0.363979  
     158A      0.367907   159A      0.369724   160A      0.379540  
     161A      0.381150   162A      0.384709   163A      0.387732  
     164A      0.391659   165A      0.394278   166A      0.398726  
     167A      0.399788   168A      0.400553   169A      0.405657  
     170A      0.406642   171A      0.412419   172A      0.419046  
     173A      0.423603   174A      0.425852   175A      0.427077  
     176A      0.432212   177A      0.436341   178A      0.443658  
     179A      0.447359   180A      0.451230   181A      0.454524  
     182A      0.456689   183A      0.458389   184A      0.462489  
     185A      0.465903   186A      0.468453   187A      0.473211  
     188A      0.474326   189A      0.477287   190A      0.479036  
     191A      0.484438   192A      0.486859   193A      0.489870  
     194A      0.495742   195A      0.497020   196A      0.501320  
     197A      0.504954   198A      0.510290   199A      0.511282  
     200A      0.517382   201A      0.520723   202A      0.521794  
     203A      0.524599   204A      0.528701   205A      0.530432  
     206A      0.536156   207A      0.537441   208A      0.539266  
     209A      0.542145   210A      0.545288   211A      0.551256  
     212A      0.554021   213A      0.557157   214A      0.558534  
     215A      0.567214   216A      0.571482   217A      0.573107  
     218A      0.579712   219A      0.582674   220A      0.588908  
     221A      0.590767   222A      0.592919   223A      0.595636  
     224A      0.599292   225A      0.610598   226A      0.612869  
     227A      0.615655   228A      0.617447   229A      0.620608  
     230A      0.623732   231A      0.626444   232A      0.628785  
     233A      0.638496   234A      0.641746   235A      0.643843  
     236A      0.644998   237A      0.652668   238A      0.656356  
     239A      0.659208   240A      0.666413   241A      0.668715  
     242A      0.672887   243A      0.675824   244A      0.683939  
     245A      0.689395   246A      0.691523   247A      0.694575  
     248A      0.695755   249A      0.700384   250A      0.707310  
     251A      0.710178   252A      0.713675   253A      0.716205  
     254A      0.721660   255A      0.726961   256A      0.730164  
     257A      0.734936   258A      0.739623   259A      0.746545  
     260A      0.751170   261A      0.757876   262A      0.759887  
     263A      0.763969   264A      0.771484   265A      0.774506  
     266A      0.776619   267A      0.777861   268A      0.786105  
     269A      0.796222   270A      0.800460   271A      0.802408  
     272A      0.810467   273A      0.815416   274A      0.822635  
     275A      0.823778   276A      0.826749   277A      0.838973  
     278A      0.844176   279A      0.844679   280A      0.853223  
     281A      0.857627   282A      0.863312   283A      0.866510  
     284A      0.871230   285A      0.872776   286A      0.875447  
     287A      0.876988   288A      0.886150   289A      0.888903  
     290A      0.892422   291A      0.898546   292A      0.901765  
     293A      0.909575   294A      0.916354   295A      0.918857  
     296A      0.922348   297A      0.925410   298A      0.928759  
     299A      0.933892   300A      0.941873   301A      0.943628  
     302A      0.946199   303A      0.951110   304A      0.955858  
     305A      0.967423   306A      0.968965   307A      0.972854  
     308A      0.974603   309A      0.981908   310A      0.984283  
     311A      0.989903   312A      0.992209   313A      0.995702  
     314A      1.002511   315A      1.010996   316A      1.014356  
     317A      1.015897   318A      1.020472   319A      1.021386  
     320A      1.026071   321A      1.030973   322A      1.032453  
     323A      1.035517   324A      1.039454   325A      1.043717  
     326A      1.051181   327A      1.055385   328A      1.060330  
     329A      1.061551   330A      1.064291   331A      1.070810  
     332A      1.072941   333A      1.077740   334A      1.081973  
     335A      1.085926   336A      1.090686   337A      1.092628  
     338A      1.095097   339A      1.101343   340A      1.105277  
     341A      1.107291   342A      1.112386   343A      1.119183  
     344A      1.125823   345A      1.130126   346A      1.131087  
     347A      1.135818   348A      1.136236   349A      1.142047  
     350A      1.149515   351A      1.151955   352A      1.160418  
     353A      1.162784   354A      1.165986   355A      1.167661  
     356A      1.178678   357A      1.182462   358A      1.184835  
     359A      1.189633   360A      1.193718   361A      1.196392  
     362A      1.200822   363A      1.206047   364A      1.211743  
     365A      1.214727   366A      1.219892   367A      1.221911  
     368A      1.223708   369A      1.227894   370A      1.231128  
     371A      1.241149   372A      1.244409   373A      1.249908  
     374A      1.252724   375A      1.256206   376A      1.262961  
     377A      1.264321   378A      1.271934   379A      1.277548  
     380A      1.282336   381A      1.289179   382A      1.292474  
     383A      1.297759   384A      1.299515   385A      1.307826  
     386A      1.310711   387A      1.316909   388A      1.326766  
     389A      1.328914   390A      1.339231   391A      1.341520  
     392A      1.346138   393A      1.353565   394A      1.361110  
     395A      1.363410   396A      1.370859   397A      1.376320  
     398A      1.377400   399A      1.385755   400A      1.386637  
     401A      1.396414   402A      1.399894   403A      1.404656  
     404A      1.413109   405A      1.420903   406A      1.424732  
     407A      1.426778   408A      1.430390   409A      1.436263  
     410A      1.440852   411A      1.448124   412A      1.452704  
     413A      1.454597   414A      1.464956   415A      1.469810  
     416A      1.474471   417A      1.480296   418A      1.485946  
     419A      1.490264   420A      1.495625   421A      1.498391  
     422A      1.505297   423A      1.506904   424A      1.515091  
     425A      1.519681   426A      1.523969   427A      1.531087  
     428A      1.535709   429A      1.540212   430A      1.543627  
     431A      1.550436   432A      1.555147   433A      1.559024  
     434A      1.564156   435A      1.569660   436A      1.575258  
     437A      1.578343   438A      1.585339   439A      1.594841  
     440A      1.595341   441A      1.598026   442A      1.606364  
     443A      1.613836   444A      1.616297   445A      1.620473  
     446A      1.629989   447A      1.632312   448A      1.642147  
     449A      1.646856   450A      1.652230   451A      1.657921  
     452A      1.660737   453A      1.670027   454A      1.675798  
     455A      1.680957   456A      1.685615   457A      1.693956  
     458A      1.694715   459A      1.700426   460A      1.709256  
     461A      1.717218   462A      1.720320   463A      1.727750  
     464A      1.732631   465A      1.733695   466A      1.737138  
     467A      1.747225   468A      1.757672   469A      1.759031  
     470A      1.761840   471A      1.767752   472A      1.775791  
     473A      1.779233   474A      1.784127   475A      1.794761  
     476A      1.799761   477A      1.802203   478A      1.806478  
     479A      1.810390   480A      1.815836   481A      1.816744  
     482A      1.825334   483A      1.830693   484A      1.837099  
     485A      1.839634   486A      1.846707   487A      1.857183  
     488A      1.857612   489A      1.860048   490A      1.866393  
     491A      1.871178   492A      1.874710   493A      1.883303  
     494A      1.892645   495A      1.896199   496A      1.908121  
     497A      1.913750   498A      1.914869   499A      1.924192  
     500A      1.936758   501A      1.937563   502A      1.947320  
     503A      1.951904   504A      1.956248   505A      1.958614  
     506A      1.969990   507A      1.978574   508A      1.984315  
     509A      1.987699   510A      1.993521   511A      1.995191  
     512A      2.001445   513A      2.008107   514A      2.012212  
     515A      2.021378   516A      2.029170   517A      2.032324  
     518A      2.035727   519A      2.048051   520A      2.048501  
     521A      2.049793   522A      2.056354   523A      2.060787  
     524A      2.066577   525A      2.070639   526A      2.083581  
     527A      2.087540   528A      2.099499   529A      2.104533  
     530A      2.110234   531A      2.122659   532A      2.125677  
     533A      2.131365   534A      2.134606   535A      2.138876  
     536A      2.143461   537A      2.148947   538A      2.153866  
     539A      2.161883   540A      2.170765   541A      2.178350  
     542A      2.181082   543A      2.192473   544A      2.195064  
     545A      2.210099   546A      2.215902   547A      2.221216  
     548A      2.221735   549A      2.233005   550A      2.240034  
     551A      2.247769   552A      2.251837   553A      2.264572  
     554A      2.267885   555A      2.276354   556A      2.282860  
     557A      2.291126   558A      2.298795   559A      2.308635  
     560A      2.316691   561A      2.323965   562A      2.327988  
     563A      2.342563   564A      2.348778   565A      2.363174  
     566A      2.368493   567A      2.370686   568A      2.375077  
     569A      2.393107   570A      2.402587   571A      2.405460  
     572A      2.411479   573A      2.416902   574A      2.425726  
     575A      2.429633   576A      2.433187   577A      2.440936  
     578A      2.454593   579A      2.455347   580A      2.468291  
     581A      2.487335   582A      2.492561   583A      2.508353  
     584A      2.513150   585A      2.517566   586A      2.522099  
     587A      2.537518   588A      2.541789   589A      2.549237  
     590A      2.550422   591A      2.569456   592A      2.572753  
     593A      2.575411   594A      2.584589   595A      2.595012  
     596A      2.603376   597A      2.609526   598A      2.614383  
     599A      2.628350   600A      2.632245   601A      2.641946  
     602A      2.648126   603A      2.660423   604A      2.666269  
     605A      2.678968   606A      2.681560   607A      2.695088  
     608A      2.700436   609A      2.705733   610A      2.723355  
     611A      2.734970   612A      2.740068   613A      2.745695  
     614A      2.751972   615A      2.754730   616A      2.760764  
     617A      2.774897   618A      2.791316   619A      2.799742  
     620A      2.810505   621A      2.827471   622A      2.828361  
     623A      2.834418   624A      2.843660   625A      2.851726  
     626A      2.862007   627A      2.865335   628A      2.874289  
     629A      2.878691   630A      2.888258   631A      2.895044  
     632A      2.910897   633A      2.914551   634A      2.926259  
     635A      2.929382   636A      2.951234   637A      2.957163  
     638A      2.964543   639A      2.975207   640A      2.985716  
     641A      2.989309   642A      3.000306   643A      3.009402  
     644A      3.010642   645A      3.025378   646A      3.029606  
     647A      3.048339   648A      3.055460   649A      3.056017  
     650A      3.069679   651A      3.079839   652A      3.092511  
     653A      3.100223   654A      3.109918   655A      3.116046  
     656A      3.127673   657A      3.135105   658A      3.139146  
     659A      3.154186   660A      3.169922   661A      3.178044  
     662A      3.189493   663A      3.190692   664A      3.195677  
     665A      3.205696   666A      3.214439   667A      3.229160  
     668A      3.239868   669A      3.249389   670A      3.252144  
     671A      3.268785   672A      3.279177   673A      3.293494  
     674A      3.301220   675A      3.307027   676A      3.319692  
     677A      3.333173   678A      3.341546   679A      3.356107  
     680A      3.361185   681A      3.371061   682A      3.384177  
     683A      3.391486   684A      3.396815   685A      3.426048  
     686A      3.428567   687A      3.436349   688A      3.461593  
     689A      3.466476   690A      3.474873   691A      3.491286  
     692A      3.499685   693A      3.501295   694A      3.518538  
     695A      3.529466   696A      3.535580   697A      3.551612  
     698A      3.553522   699A      3.559332   700A      3.575000  
     701A      3.585608   702A      3.595137   703A      3.622487  
     704A      3.638299   705A      3.647418   706A      3.650883  
     707A      3.663435   708A      3.681051   709A      3.697060  
     710A      3.700510   711A      3.706751   712A      3.712807  
     713A      3.727560   714A      3.732490   715A      3.750047  
     716A      3.754549   717A      3.763731   718A      3.773982  
     719A      3.778444   720A      3.795077   721A      3.796849  
     722A      3.802748   723A      3.805333   724A      3.819540  
     725A      3.828245   726A      3.834618   727A      3.844920  
     728A      3.856889   729A      3.867058   730A      3.872378  
     731A      3.883244   732A      3.890226   733A      3.904004  
     734A      3.917865   735A      3.920515   736A      3.923971  
     737A      3.937600   738A      3.946154   739A      3.950933  
     740A      3.957704   741A      3.969863   742A      3.985673  
     743A      3.989856   744A      3.997323   745A      4.002026  
     746A      4.014884   747A      4.017242   748A      4.022121  
     749A      4.034020   750A      4.044895   751A      4.051619  
     752A      4.060982   753A      4.064970   754A      4.073549  
     755A      4.077977   756A      4.087805   757A      4.098522  
     758A      4.101473   759A      4.110594   760A      4.123178  
     761A      4.135758   762A      4.139821   763A      4.143668  
     764A      4.153358   765A      4.156195   766A      4.168566  
     767A      4.183139   768A      4.188448   769A      4.189534  
     770A      4.206056   771A      4.209041   772A      4.218425  
     773A      4.223768   774A      4.232114   775A      4.250743  
     776A      4.257960   777A      4.269864   778A      4.275590  
     779A      4.280382   780A      4.283296   781A      4.288323  
     782A      4.295444   783A      4.304610   784A      4.309569  
     785A      4.322514   786A      4.328268   787A      4.328921  
     788A      4.342866   789A      4.349691   790A      4.352978  
     791A      4.361065   792A      4.376603   793A      4.379601  
     794A      4.386080   795A      4.393222   796A      4.404614  
     797A      4.408273   798A      4.412720   799A      4.423729  
     800A      4.423800   801A      4.432510   802A      4.443633  
     803A      4.454140   804A      4.459454   805A      4.462521  
     806A      4.469399   807A      4.477383   808A      4.486225  
     809A      4.488898   810A      4.490845   811A      4.505542  
     812A      4.517892   813A      4.529147   814A      4.532585  
     815A      4.540354   816A      4.557562   817A      4.565647  
     818A      4.570891   819A      4.583833   820A      4.592467  
     821A      4.598375   822A      4.607602   823A      4.619682  
     824A      4.632932   825A      4.647256   826A      4.654687  
     827A      4.662765   828A      4.671087   829A      4.678051  
     830A      4.692672   831A      4.698526   832A      4.702937  
     833A      4.711458   834A      4.717784   835A      4.725976  
     836A      4.737479   837A      4.745490   838A      4.749488  
     839A      4.767219   840A      4.778081   841A      4.791855  
     842A      4.798240   843A      4.799727   844A      4.811878  
     845A      4.823786   846A      4.839960   847A      4.848234  
     848A      4.848970   849A      4.864334   850A      4.883958  
     851A      4.889952   852A      4.901027   853A      4.906336  
     854A      4.921720   855A      4.932780   856A      4.948117  
     857A      4.954346   858A      4.963702   859A      4.969187  
     860A      4.977959   861A      4.978521   862A      4.997317  
     863A      5.007395   864A      5.024487   865A      5.031466  
     866A      5.052881   867A      5.057815   868A      5.061943  
     869A      5.075436   870A      5.083556   871A      5.091532  
     872A      5.109313   873A      5.124571   874A      5.126866  
     875A      5.137535   876A      5.141432   877A      5.152103  
     878A      5.154787   879A      5.184852   880A      5.196738  
     881A      5.206494   882A      5.221459   883A      5.230144  
     884A      5.236193   885A      5.243502   886A      5.255043  
     887A      5.265746   888A      5.283401   889A      5.297405  
     890A      5.300128   891A      5.304594   892A      5.308807  
     893A      5.325835   894A      5.328025   895A      5.336007  
     896A      5.348451   897A      5.354694   898A      5.360343  
     899A      5.369272   900A      5.379237   901A      5.394390  
     902A      5.402619   903A      5.407890   904A      5.422164  
     905A      5.429388   906A      5.435542   907A      5.463336  
     908A      5.469043   909A      5.481508   910A      5.485848  
     911A      5.490832   912A      5.517388   913A      5.524543  
     914A      5.528482   915A      5.538994   916A      5.540742  
     917A      5.565957   918A      5.581554   919A      5.589529  
     920A      5.594291   921A      5.599093   922A      5.611499  
     923A      5.623946   924A      5.632094   925A      5.642568  
     926A      5.651445   927A      5.653709   928A      5.680827  
     929A      5.682943   930A      5.694962   931A      5.713806  
     932A      5.720093   933A      5.732251   934A      5.756512  
     935A      5.764351   936A      5.773037   937A      5.780655  
     938A      5.794912   939A      5.809780   940A      5.828483  
     941A      5.844483   942A      5.871316   943A      5.876089  
     944A      5.894909   945A      5.900467   946A      5.906017  
     947A      5.935107   948A      5.952962   949A      5.974448  
     950A      5.979721   951A      5.993348   952A      6.000617  
     953A      6.018766   954A      6.032270   955A      6.044120  
     956A      6.056431   957A      6.068984   958A      6.106145  
     959A      6.129001   960A      6.140690   961A      6.153670  
     962A      6.164117   963A      6.181823   964A      6.191712  
     965A      6.233831   966A      6.244727   967A      6.248062  
     968A      6.264843   969A      6.276784   970A      6.313015  
     971A      6.327416   972A      6.377929   973A      6.421945  
     974A      6.431129   975A      6.468621   976A      6.498223  
     977A      6.522490   978A      6.542740   979A      6.572479  
     980A      6.656866   981A      6.688557   982A      6.702958  
     983A      6.724713   984A      6.749609   985A      6.761700  
     986A      6.795763   987A      6.799211   988A      6.818408  
     989A      6.835035   990A      6.840222   991A      6.874575  
     992A      6.900338   993A      6.904385   994A      6.926039  
     995A      6.954822   996A      6.958539   997A      6.980606  
     998A      6.989383   999A      6.998186  1000A      7.023004  
    1001A      7.047501  1002A      7.065792  1003A      7.081126  
    1004A      7.084570  1005A      7.109351  1006A      7.129954  
    1007A      7.132076  1008A      7.154896  1009A      7.180932  
    1010A      7.203479  1011A      7.214606  1012A      7.222397  
    1013A      7.230263  1014A      7.246673  1015A      7.271562  
    1016A      7.279263  1017A      7.314162  1018A      7.331676  
    1019A      7.349896  1020A      7.355540  1021A      7.395409  
    1022A      7.400602  1023A      7.430937  1024A      7.443111  
    1025A      7.457431  1026A      7.492550  1027A      7.508272  
    1028A      7.514132  1029A      7.526585  1030A      7.539948  
    1031A      7.545229  1032A      7.596096  1033A      7.610469  
    1034A      7.616450  1035A      7.630144  1036A      7.637157  
    1037A      7.651611  1038A      7.685928  1039A      7.716496  
    1040A      7.744414  1041A      7.767494  1042A      7.829131  
    1043A      7.842629  1044A      7.896079  1045A      7.925678  
    1046A      7.938598  1047A      7.951708  1048A      7.961304  
    1049A      7.985712  1050A      7.994048  1051A      8.036654  
    1052A      8.065301  1053A      8.158459  1054A      8.187365  
    1055A      8.219826  1056A      8.259388  1057A      8.287441  
    1058A      8.356574  1059A      8.403155  1060A      8.497660  
    1061A      8.556410  1062A      8.625394  1063A      8.695549  
    1064A      8.873821  1065A     16.006022  1066A     16.219975  
    1067A     16.496290  1068A     16.669154  1069A     17.056459  
    1070A     17.268437  1071A     17.596650  1072A     18.105976  
    1073A     18.568899  1074A     18.866396  1075A     19.324942  
    1076A     19.629004  1077A     20.118261  1078A     20.132641  
    1079A     20.516073  1080A     20.925078  1081A     21.801167  

    Final Occupation by Irrep:
              A 
    DOCC [    64 ]

  @DF-RHF Final Energy:  -886.37352379682375

   => Energetics <=

    Nuclear Repulsion Energy =           1323.4599872012640844
    One-Electron Energy =               -3844.5964664827856723
    Two-Electron Energy =                1634.7629554846978408
    Total Energy =                       -886.3735237968237470

Computation Completed

*** tstop() called on node35.bme.utexas.edu at Tue Nov  3 21:27:45 2020
Module time:
	user time   =    2713.88 seconds =      45.23 minutes
	system time =     580.06 seconds =       9.67 minutes
	total time  =       1165 seconds =      19.42 minutes
Total time:
	user time   =    2713.88 seconds =      45.23 minutes
	system time =     580.06 seconds =       9.67 minutes
	total time  =       1165 seconds =      19.42 minutes
   => Loading Basis Set <=

    Name: (AUG-CC-PVTZ AUX)
    Role: RIFIT
    Keyword: DF_BASIS_MP2
    atoms 1-5   entry O          line   264 file /home/xy3866/psi4conda/share/psi4/basis/aug-cc-pvtz-ri.gbs 
    atoms 6-8   entry N          line   206 file /home/xy3866/psi4conda/share/psi4/basis/aug-cc-pvtz-ri.gbs 
    atoms 9-17  entry C          line   148 file /home/xy3866/psi4conda/share/psi4/basis/aug-cc-pvtz-ri.gbs 
    atoms 18-30 entry H          line    30 file /home/xy3866/psi4conda/share/psi4/basis/aug-cc-pvtz-ri.gbs 


*** tstart() called on node35.bme.utexas.edu
*** at Tue Nov  3 21:27:46 2020


  //>>>>>>>>>>>>>>>>>>>>>>>>>>>>>>>>>>>//
  //               DFMP2               //
  //<<<<<<<<<<<<<<<<<<<<<<<<<<<<<<<<<<<//

	 --------------------------------------------------------
	                          DF-MP2                         
	      2nd-Order Density-Fitted Moller-Plesset Theory     
	              RMP2 Wavefunction,   8 Threads             
	                                                         
	        Rob Parrish, Justin Turney, Andy Simmonett,      
	           Ed Hohenstein, and C. David Sherrill          
	 --------------------------------------------------------

   => Auxiliary Basis Set <=

  Basis Set: (AUG-CC-PVTZ AUX)
    Blend: AUG-CC-PVTZ-RI
    Number of shells: 658
    Number of basis function: 2400
    Number of Cartesian functions: 3027
    Spherical Harmonics?: true
    Max angular momentum: 4

	 --------------------------------------------------------
	                 NBF =  1081, NAUX =  2400
	 --------------------------------------------------------
	   CLASS    FOCC     OCC    AOCC    AVIR     VIR    FVIR
	   PAIRS       0      64      64    1017    1017       0
	 --------------------------------------------------------

  DFHelper Memory: AOs need 18.209 GiB; user supplied 22.352 GiB. Using in-core AOs.


         ------------------------------------------------------------
                                     CPHF                           
                                  Rob Parrish                       
         ------------------------------------------------------------

  ==> Geometry <==

    Molecular point group: c1
    Full point group: C1

    Geometry (in Angstrom), charge = 0, multiplicity = 1:

       Center              X                  Y                   Z               Mass       
    ------------   -----------------  -----------------  -----------------  -----------------
         O           -1.248424776790    -0.651990786218     1.031833015400    15.994914619570
         O           -1.245298776790     2.483528213782    -0.686844984600    15.994914619570
         O           -3.216853776790     1.521776213782     0.744205015400    15.994914619570
         O           -2.357352776790    -3.066159786218     0.094258015400    15.994914619570
         O            1.360206223210     2.247711213782    -0.077223984600    15.994914619570
         N            0.843080223210     0.045900213782     0.255261015400    14.003074004430
         N            3.056902223210     0.721180213782    -0.294408984600    14.003074004430
         N            4.716139223210    -0.835977786218    -0.572979984600    14.003074004430
         C           -1.289807776790     1.079107213782    -0.592758984600    12.000000000000
         C           -2.715494776790     0.655884213782    -0.258074984600    12.000000000000
         C           -0.516459676790     0.479083013782     0.606915815400    12.000000000000
         C           -2.532293776790    -0.726812786218     0.366685415400    12.000000000000
         C           -2.528667776790    -1.849715786218    -0.639971984600    12.000000000000
         C            1.219451223210    -1.260730786218     0.310592015400    12.000000000000
         C            1.755270223210     1.068112213782    -0.060084984600    12.000000000000
         C            2.510777223210    -1.608462786218     0.046313015400    12.000000000000
         C            3.411659223210    -0.549975786218    -0.259606984600    12.000000000000
         H           -0.937929776790     0.592081213782    -1.515572984600     1.007825032230
         H           -3.362905776790     0.643342213782    -1.147146984600     1.007825032230
         H           -0.440613776790     1.222557213782     1.403316015400     1.007825032230
         H           -3.282280776790    -0.908056786218     1.130101015400     1.007825032230
         H           -1.713631776790    -1.699627786218    -1.370145984600     1.007825032230
         H           -3.485884776790    -1.833326786218    -1.184816984600     1.007825032230
         H           -0.297848776790     2.713856213782    -0.525681984600     1.007825032230
         H           -2.847879776790     2.400420213782     0.507981015400     1.007825032230
         H            0.433987223210    -1.962759786218     0.568386015400     1.007825032230
         H           -2.434197776790    -3.797754786218    -0.543914984600     1.007825032230
         H            2.828788223210    -2.644720786218     0.073240015400     1.007825032230
         H            5.124856223210    -1.670183786218    -0.163095984600     1.007825032230
         H            5.319490223210    -0.019376786218    -0.568975984600     1.007825032230

  Nuclear repulsion = 1323.459987201264084
  Reference energy  = -886.373523796823747

  ==> Basis Set <==

  Basis Set: AUG-CC-PVTZ
    Blend: AUG-CC-PVTZ
    Number of shells: 355
    Number of basis function: 1081
    Number of Cartesian functions: 1260
    Spherical Harmonics?: true
    Max angular momentum: 3

  ==> CGRSolver (by Rob Parrish) <==

   Number of roots    =         1
   Preconditioning    =    JACOBI
   Convergence cutoff =     1E-06
   Maximum iterations =       100

  ==> CPHFRHamiltonian (by Rob Parrish) <== 

  ==> MemDFJK: Density-Fitted J/K Matrices <==

    J tasked:                   Yes
    K tasked:                   Yes
    wK tasked:                   No
    OpenMP threads:               8
    Memory [MiB]:             22888
    Algorithm:                 Disk
    Schwarz Cutoff:           1E-12
    Mask sparsity (%):      13.2880
    Fitting Condition:        1E-10

   => Auxiliary Basis Set <=

  Basis Set: (AUG-CC-PVTZ AUX)
    Blend: AUG-CC-PVTZ-JKFIT
    Number of shells: 692
    Number of basis function: 2366
    Number of Cartesian functions: 2942
    Spherical Harmonics?: true
    Max angular momentum: 4

  ==> CPHF Iterations <==

  => Iterations <=

             Iter  Converged  Remaining    Residual
  CGR           1          0          1   1.201E-01
  CGR           2          0          1   3.825E-02
  CGR           3          0          1   1.974E-02
  CGR           4          0          1   5.881E-03
  CGR           5          0          1   2.609E-03
  CGR           6          0          1   9.985E-04
  CGR           7          0          1   3.141E-04
  CGR           8          0          1   1.203E-04
  CGR           9          0          1   4.189E-05
  CGR          10          0          1   1.640E-05
  CGR          11          0          1   6.640E-06
  CGR          12          0          1   2.404E-06
  CGR          13          1          0   9.211E-07

    CGRSolver converged.

	-----------------------------------------------------------
	 ==================> DF-MP2 Energies <==================== 
	-----------------------------------------------------------
	 Reference Energy          =    -886.3735237968237470 [Eh]
	 Singles Energy            =      -0.0000000000000000 [Eh]
	 Same-Spin Energy          =      -0.9010939269622427 [Eh]
	 Opposite-Spin Energy      =      -2.7147492741367838 [Eh]
	 Correlation Energy        =      -3.6158432010990262 [Eh]
	 Total Energy              =    -889.9893669979227298 [Eh]
	-----------------------------------------------------------
	 ================> DF-SCS-MP2 Energies <================== 
	-----------------------------------------------------------
	 SCS Same-Spin Scale       =       0.3333333333333333 [-]
	 SCS Opposite-Spin Scale   =       1.2000000000000000 [-]
	 SCS Same-Spin Energy      =      -0.3003646423207476 [Eh]
	 SCS Opposite-Spin Energy  =      -3.2576991289641404 [Eh]
	 SCS Correlation Energy    =      -3.5580637712848882 [Eh]
	 SCS Total Energy          =    -889.9315875681086254 [Eh]
	-----------------------------------------------------------



Properties will be evaluated at   0.000000,  -0.000000,   0.000000 [a0]

Properties computed using the MP2 density matrix

  Nuclear Dipole Moment: [e a0]
     X:    -4.8346      Y:    -6.5157      Z:    -3.1206

  Electronic Dipole Moment: [e a0]
     X:     5.5215      Y:     4.1682      Z:     2.4071

  Dipole Moment: [e a0]
     X:     0.6868      Y:    -2.3475      Z:    -0.7135     Total:     2.5479

  Dipole Moment: [D]
     X:     1.7458      Y:    -5.9669      Z:    -1.8136     Total:     6.4761


*** tstop() called on node35.bme.utexas.edu at Tue Nov  3 22:26:30 2020
Module time:
	user time   =   18185.63 seconds =     303.09 minutes
	system time =    1564.88 seconds =      26.08 minutes
	total time  =       3524 seconds =      58.73 minutes
Total time:
	user time   =   20900.11 seconds =     348.34 minutes
	system time =    2144.95 seconds =      35.75 minutes
	total time  =       4690 seconds =      78.17 minutes

    Psi4 stopped on: Tuesday, 03 November 2020 10:26PM
    Psi4 wall time for execution: 1:18:12.12

*** Psi4 exiting successfully. Buy a developer a beer!
