
    -----------------------------------------------------------------------
          Psi4: An Open-Source Ab Initio Electronic Structure Package
                               Psi4 1.4a3.dev225 

                         Git: Rev {master} 7105e37 


    D. G. A. Smith, L. A. Burns, A. C. Simmonett, R. M. Parrish,
    M. C. Schieber, R. Galvelis, P. Kraus, H. Kruse, R. Di Remigio,
    A. Alenaizan, A. M. James, S. Lehtola, J. P. Misiewicz, M. Scheurer,
    R. A. Shaw, J. B. Schriber, Y. Xie, Z. L. Glick, D. A. Sirianni,
    J. S. O'Brien, J. M. Waldrop, A. Kumar, E. G. Hohenstein,
    B. P. Pritchard, B. R. Brooks, H. F. Schaefer III, A. Yu. Sokolov,
    K. Patkowski, A. E. DePrince III, U. Bozkaya, R. A. King,
    F. A. Evangelista, J. M. Turney, T. D. Crawford, C. D. Sherrill,
    J. Chem. Phys. 152(18) 184108 (2020). https://doi.org/10.1063/5.0006002

                            Additional Code Authors
    E. T. Seidl, C. L. Janssen, E. F. Valeev, M. L. Leininger,
    J. F. Gonthier, R. M. Richard, H. R. McAlexander, M. Saitow, X. Wang,
    P. Verma, and M. H. Lechner

             Previous Authors, Complete List of Code Contributors,
                       and Citations for Specific Modules
    https://github.com/psi4/psi4/blob/master/codemeta.json
    https://github.com/psi4/psi4/graphs/contributors
    http://psicode.org/psi4manual/master/introduction.html#citing-psifour

    -----------------------------------------------------------------------


    Psi4 started on: Monday, 01 March 2021 12:14PM

    Process ID: 206815
    Host:       c401-011.stampede2.tacc.utexas.edu
    PSIDATADIR: /home1/07844/xy3866/miniconda3/envs/p4env/share/psi4
    Memory:     500.0 MiB
    Threads:    32
    
  ==> Input File <==

--------------------------------------------------------------------------
#psi4
#
memory 32 gb

molecule  {
-1 1
  S        1.2336270    -0.0202320     0.0299590
  O        1.2252410    -0.2825260     1.4971370
  O        2.1958480    -0.8505260    -0.7431210
  O        1.2556930     1.4274900    -0.3299320
  C       -1.5803950    -0.0804270     0.2439630
  C       -0.3819400    -0.6334240    -0.5238140
  C       -1.8538570     1.3866740    -0.0822530
  C       -2.8221770    -0.9303370    -0.0290390
  H       -1.3285570    -0.1598550     1.3085440
  H       -0.4647110    -0.4152860    -1.5956970
  H       -0.3373961    -1.5226757    -0.4253145
  H       -2.1410800     1.4899610    -1.1367080
  H       -0.9572190     1.9851690     0.0829810
  H       -2.6779900     1.7735750     0.5301930
  H       -3.0772140    -0.9057670    -1.0956550
  H       -2.6591200    -1.9761140     0.2538760
  H       -3.6887270    -0.5571790     0.5306310
units angstrom
no_reorient  #important for SAPT in psi4, default
symmetry c1  #important for SAPT in psi4, default
}

set PROPERTIES_ORIGIN ["COM"]
properties('MP2/aug-cc-pvtz', properties = ['dipole'])
--------------------------------------------------------------------------

  Memory set to  29.802 GiB by Python driver.
    SCF Algorithm Type (re)set to DF.

*** tstart() called on c401-011.stampede2.tacc.utexas.edu
*** at Mon Mar  1 12:14:56 2021

   => Loading Basis Set <=

    Name: AUG-CC-PVTZ
    Role: ORBITAL
    Keyword: BASIS
    atoms 1    entry S          line   906 file /home1/07844/xy3866/miniconda3/envs/p4env/share/psi4/basis/aug-cc-pvtz.gbs 
    atoms 2-4  entry O          line   331 file /home1/07844/xy3866/miniconda3/envs/p4env/share/psi4/basis/aug-cc-pvtz.gbs 
    atoms 5-8  entry C          line   239 file /home1/07844/xy3866/miniconda3/envs/p4env/share/psi4/basis/aug-cc-pvtz.gbs 
    atoms 9-17 entry H          line    40 file /home1/07844/xy3866/miniconda3/envs/p4env/share/psi4/basis/aug-cc-pvtz.gbs 


         ---------------------------------------------------------
                                   SCF
               by Justin Turney, Rob Parrish, Andy Simmonett
                          and Daniel G. A. Smith
                              RHF Reference
                       32 Threads,  30517 MiB Core
         ---------------------------------------------------------

  ==> Geometry <==

    Molecular point group: c1
    Full point group: C1

    Geometry (in Angstrom), charge = -1, multiplicity = 1:

       Center              X                  Y                   Z               Mass       
    ------------   -----------------  -----------------  -----------------  -----------------
         S            1.108700939155    -0.025209529083     0.019099358854    31.972071174400
         O            1.100314939155    -0.287503529083     1.486277358854    15.994914619570
         O            2.070921939155    -0.855503529083    -0.753980641146    15.994914619570
         O            1.130766939155     1.422512470917    -0.340791641146    15.994914619570
         C           -1.705321060845    -0.085404529083     0.233103358854    12.000000000000
         C           -0.506866060845    -0.638401529083    -0.534673641146    12.000000000000
         C           -1.978783060845     1.381696470917    -0.093112641146    12.000000000000
         C           -2.947103060845    -0.935314529083    -0.039898641146    12.000000000000
         H           -1.453483060845    -0.164832529083     1.297684358854     1.007825032230
         H           -0.589637060845    -0.420263529083    -1.606556641146     1.007825032230
         H           -0.462322160845    -1.527653229083    -0.436174141146     1.007825032230
         H           -2.266006060845     1.484983470917    -1.147567641146     1.007825032230
         H           -1.082145060845     1.980191470917     0.072121358854     1.007825032230
         H           -2.802916060845     1.768597470917     0.519333358854     1.007825032230
         H           -3.202140060845    -0.910744529083    -1.106514641146     1.007825032230
         H           -2.784046060845    -1.981091529083     0.243016358854     1.007825032230
         H           -3.813653060845    -0.562156529083     0.519771358854     1.007825032230

  Running in c1 symmetry.

  Rotational constants: A =      0.10606  B =      0.03790  C =      0.03458 [cm^-1]
  Rotational constants: A =   3179.56285  B =   1136.11535  C =   1036.69456 [MHz]
  Nuclear repulsion =  518.069574636304083

  Charge       = -1
  Multiplicity = 1
  Electrons    = 74
  Nalpha       = 37
  Nbeta        = 37

  ==> Algorithm <==

  SCF Algorithm Type is DF.
  DIIS enabled.
  MOM disabled.
  Fractional occupation disabled.
  Guess Type is SAD.
  Energy threshold   = 1.00e-10
  Density threshold  = 1.00e-10
  Integral threshold = 1.00e-12

  ==> Primary Basis <==

  Basis Set: AUG-CC-PVTZ
    Blend: AUG-CC-PVTZ
    Number of shells: 195
    Number of basis functions: 579
    Number of Cartesian functions: 669
    Spherical Harmonics?: true
    Max angular momentum: 3

   => Loading Basis Set <=

    Name: (AUG-CC-PVTZ AUX)
    Role: JKFIT
    Keyword: DF_BASIS_SCF
    atoms 1    entry S          line   730 file /home1/07844/xy3866/miniconda3/envs/p4env/share/psi4/basis/aug-cc-pvtz-jkfit.gbs 
    atoms 2-4  entry O          line   286 file /home1/07844/xy3866/miniconda3/envs/p4env/share/psi4/basis/aug-cc-pvtz-jkfit.gbs 
    atoms 5-8  entry C          line   162 file /home1/07844/xy3866/miniconda3/envs/p4env/share/psi4/basis/aug-cc-pvtz-jkfit.gbs 
    atoms 9-17 entry H          line    70 file /home1/07844/xy3866/miniconda3/envs/p4env/share/psi4/basis/aug-cc-pvtz-jkfit.gbs 

  ==> Integral Setup <==

  DFHelper Memory: AOs need 3.184 GiB; user supplied 22.352 GiB. Using in-core AOs.

  ==> MemDFJK: Density-Fitted J/K Matrices <==

    J tasked:                   Yes
    K tasked:                   Yes
    wK tasked:                   No
    OpenMP threads:              32
    Memory [MiB]:             22888
    Algorithm:                 Core
    Schwarz Cutoff:           1E-12
    Mask sparsity (%):       6.0076
    Fitting Condition:        1E-10

   => Auxiliary Basis Set <=

  Basis Set: (AUG-CC-PVTZ AUX)
    Blend: AUG-CC-PVTZ-JKFIT
    Number of shells: 378
    Number of basis functions: 1288
    Number of Cartesian functions: 1592
    Spherical Harmonics?: true
    Max angular momentum: 4

  Minimum eigenvalue in the overlap matrix is 3.6450755873E-06.
  Reciprocal condition number of the overlap matrix is 1.7881218269E-07.
    Using symmetric orthogonalization.

  ==> Pre-Iterations <==

  SCF Guess: Superposition of Atomic Densities via on-the-fly atomic UHF (no occupation information).

   -------------------------
    Irrep   Nso     Nmo    
   -------------------------
     A        579     579 
   -------------------------
    Total     579     579
   -------------------------

  ==> Iterations <==

                           Total Energy        Delta E     RMS |[F,P]|

   @DF-RHF iter SAD:  -778.72231926117024   -7.78722e+02   0.00000e+00 
   @DF-RHF iter   1:  -778.55818135109917    1.64138e-01   1.66418e-03 DIIS
   @DF-RHF iter   2:  -778.84812572399642   -2.89944e-01   1.05411e-03 DIIS
   @DF-RHF iter   3:  -778.97691571105872   -1.28790e-01   1.39940e-04 DIIS
   @DF-RHF iter   4:  -778.98094526712293   -4.02956e-03   5.14471e-05 DIIS
   @DF-RHF iter   5:  -778.98155139433709   -6.06127e-04   1.09019e-05 DIIS
   @DF-RHF iter   6:  -778.98158045848686   -2.90641e-05   3.27113e-06 DIIS
   @DF-RHF iter   7:  -778.98158354387874   -3.08539e-06   8.46327e-07 DIIS
   @DF-RHF iter   8:  -778.98158378997346   -2.46095e-07   2.84101e-07 DIIS
   @DF-RHF iter   9:  -778.98158381269104   -2.27176e-08   1.31756e-07 DIIS
   @DF-RHF iter  10:  -778.98158381683879   -4.14775e-09   3.40355e-08 DIIS
   @DF-RHF iter  11:  -778.98158381724784   -4.09045e-10   8.83021e-09 DIIS
   @DF-RHF iter  12:  -778.98158381727535   -2.75122e-11   2.96226e-09 DIIS
   @DF-RHF iter  13:  -778.98158381728149   -6.13909e-12   9.27155e-10 DIIS
   @DF-RHF iter  14:  -778.98158381728172   -2.27374e-13   2.97668e-10 DIIS
   @DF-RHF iter  15:  -778.98158381728229   -5.68434e-13   9.42318e-11 DIIS
  Energy and wave function converged.


  ==> Post-Iterations <==

    Orbital Energies [Eh]
    ---------------------

    Doubly Occupied:                                                      

       1A    -91.998933     2A    -20.341771     3A    -20.341155  
       4A    -20.339610     5A    -11.108681     6A    -11.103154  
       7A    -11.083518     8A    -11.074098     9A     -8.960616  
      10A     -6.645924    11A     -6.645494    12A     -6.645476  
      13A     -1.258004    14A     -1.115544    15A     -1.113972  
      16A     -0.970790    17A     -0.844882    18A     -0.811758  
      19A     -0.664681    20A     -0.618094    21A     -0.526480  
      22A     -0.507147    23A     -0.484003    24A     -0.460376  
      25A     -0.448365    26A     -0.435955    27A     -0.422465  
      28A     -0.409249    29A     -0.369686    30A     -0.352821  
      31A     -0.340466    32A     -0.320392    33A     -0.320100  
      34A     -0.278020    35A     -0.277035    36A     -0.248036  
      37A     -0.239821  

    Virtual:                                                              

      38A      0.102983    39A      0.114763    40A      0.118014  
      41A      0.130889    42A      0.137559    43A      0.144318  
      44A      0.149889    45A      0.153489    46A      0.159983  
      47A      0.198669    48A      0.200637    49A      0.207437  
      50A      0.213033    51A      0.218266    52A      0.219800  
      53A      0.224780    54A      0.229612    55A      0.236741  
      56A      0.244440    57A      0.254728    58A      0.256741  
      59A      0.259269    60A      0.272128    61A      0.277520  
      62A      0.282935    63A      0.297107    64A      0.302845  
      65A      0.314971    66A      0.321071    67A      0.335162  
      68A      0.343429    69A      0.354441    70A      0.360258  
      71A      0.368764    72A      0.384088    73A      0.392067  
      74A      0.394742    75A      0.401104    76A      0.405887  
      77A      0.410341    78A      0.413223    79A      0.415814  
      80A      0.420523    81A      0.425305    82A      0.430947  
      83A      0.434526    84A      0.446503    85A      0.450884  
      86A      0.459540    87A      0.464862    88A      0.469005  
      89A      0.473629    90A      0.482406    91A      0.486786  
      92A      0.489265    93A      0.491038    94A      0.499315  
      95A      0.501696    96A      0.507859    97A      0.512208  
      98A      0.524300    99A      0.526960   100A      0.532164  
     101A      0.536333   102A      0.544916   103A      0.549103  
     104A      0.557658   105A      0.561342   106A      0.563722  
     107A      0.568962   108A      0.576542   109A      0.580714  
     110A      0.582069   111A      0.593070   112A      0.597513  
     113A      0.601274   114A      0.610316   115A      0.613386  
     116A      0.630963   117A      0.632751   118A      0.636932  
     119A      0.648383   120A      0.655341   121A      0.659734  
     122A      0.668806   123A      0.672937   124A      0.681490  
     125A      0.686283   126A      0.690732   127A      0.693594  
     128A      0.709366   129A      0.715989   130A      0.724023  
     131A      0.726348   132A      0.732843   133A      0.735983  
     134A      0.745738   135A      0.753997   136A      0.759093  
     137A      0.763060   138A      0.773036   139A      0.778665  
     140A      0.790984   141A      0.796788   142A      0.811001  
     143A      0.821070   144A      0.825049   145A      0.849700  
     146A      0.859545   147A      0.871214   148A      0.879703  
     149A      0.893596   150A      0.918657   151A      0.920809  
     152A      0.923933   153A      0.932432   154A      0.943892  
     155A      0.958988   156A      0.971532   157A      0.973588  
     158A      0.977415   159A      0.984660   160A      0.992739  
     161A      0.996947   162A      1.007968   163A      1.009818  
     164A      1.017080   165A      1.019034   166A      1.026227  
     167A      1.039751   168A      1.040813   169A      1.046016  
     170A      1.057339   171A      1.060897   172A      1.065620  
     173A      1.068733   174A      1.078240   175A      1.084050  
     176A      1.092471   177A      1.102798   178A      1.103445  
     179A      1.109137   180A      1.123286   181A      1.132658  
     182A      1.140926   183A      1.154324   184A      1.164058  
     185A      1.164681   186A      1.173575   187A      1.182941  
     188A      1.191943   189A      1.193779   190A      1.205925  
     191A      1.208244   192A      1.220933   193A      1.226633  
     194A      1.230199   195A      1.235902   196A      1.239646  
     197A      1.245341   198A      1.257442   199A      1.271231  
     200A      1.274705   201A      1.283959   202A      1.298116  
     203A      1.302241   204A      1.306764   205A      1.311123  
     206A      1.321224   207A      1.334916   208A      1.335823  
     209A      1.344468   210A      1.348142   211A      1.356828  
     212A      1.365954   213A      1.372675   214A      1.376647  
     215A      1.380507   216A      1.390651   217A      1.403961  
     218A      1.416278   219A      1.431909   220A      1.439160  
     221A      1.445629   222A      1.452154   223A      1.457869  
     224A      1.472368   225A      1.476035   226A      1.483287  
     227A      1.492781   228A      1.500280   229A      1.515615  
     230A      1.526863   231A      1.529745   232A      1.547806  
     233A      1.556782   234A      1.570790   235A      1.579010  
     236A      1.588988   237A      1.597609   238A      1.599976  
     239A      1.612543   240A      1.622856   241A      1.632634  
     242A      1.639637   243A      1.654623   244A      1.660776  
     245A      1.675366   246A      1.683073   247A      1.695969  
     248A      1.698319   249A      1.709004   250A      1.718468  
     251A      1.731075   252A      1.743414   253A      1.746386  
     254A      1.764970   255A      1.770197   256A      1.782608  
     257A      1.789255   258A      1.797493   259A      1.803202  
     260A      1.807667   261A      1.825791   262A      1.829972  
     263A      1.842013   264A      1.852405   265A      1.854791  
     266A      1.869178   267A      1.876728   268A      1.880291  
     269A      1.899986   270A      1.906065   271A      1.912201  
     272A      1.913615   273A      1.938309   274A      1.946036  
     275A      1.968946   276A      1.980130   277A      1.983429  
     278A      1.998174   279A      2.010206   280A      2.024684  
     281A      2.034647   282A      2.037882   283A      2.046758  
     284A      2.058821   285A      2.075150   286A      2.080550  
     287A      2.084391   288A      2.092807   289A      2.113129  
     290A      2.127081   291A      2.141181   292A      2.158319  
     293A      2.167444   294A      2.181646   295A      2.195294  
     296A      2.201666   297A      2.226886   298A      2.229764  
     299A      2.249043   300A      2.257926   301A      2.271197  
     302A      2.282709   303A      2.307609   304A      2.313683  
     305A      2.348284   306A      2.359854   307A      2.369119  
     308A      2.377790   309A      2.382696   310A      2.394952  
     311A      2.408756   312A      2.412975   313A      2.428567  
     314A      2.431827   315A      2.452741   316A      2.455817  
     317A      2.467508   318A      2.487078   319A      2.491000  
     320A      2.502864   321A      2.504454   322A      2.514044  
     323A      2.533860   324A      2.553434   325A      2.561098  
     326A      2.569189   327A      2.574096   328A      2.583570  
     329A      2.602578   330A      2.613832   331A      2.627306  
     332A      2.630655   333A      2.644126   334A      2.653267  
     335A      2.670688   336A      2.689266   337A      2.703316  
     338A      2.706559   339A      2.724723   340A      2.735106  
     341A      2.753852   342A      2.758468   343A      2.764194  
     344A      2.783007   345A      2.801515   346A      2.811620  
     347A      2.821427   348A      2.823056   349A      2.863538  
     350A      2.874275   351A      2.893573   352A      2.905531  
     353A      2.907840   354A      2.914445   355A      2.951951  
     356A      2.959448   357A      3.004391   358A      3.021830  
     359A      3.026779   360A      3.037096   361A      3.060230  
     362A      3.065516   363A      3.103609   364A      3.143728  
     365A      3.157169   366A      3.171819   367A      3.200699  
     368A      3.227592   369A      3.257764   370A      3.266810  
     371A      3.284713   372A      3.351062   373A      3.396208  
     374A      3.444735   375A      3.474990   376A      3.502667  
     377A      3.521811   378A      3.538523   379A      3.553941  
     380A      3.584678   381A      3.589293   382A      3.599778  
     383A      3.626135   384A      3.628732   385A      3.664383  
     386A      3.669092   387A      3.694218   388A      3.711831  
     389A      3.741352   390A      3.758060   391A      3.765224  
     392A      3.786098   393A      3.801262   394A      3.811582  
     395A      3.838803   396A      3.850300   397A      3.857692  
     398A      3.859054   399A      3.867744   400A      3.874539  
     401A      3.880868   402A      3.909893   403A      3.916505  
     404A      3.923320   405A      3.939564   406A      3.951154  
     407A      3.975381   408A      3.984923   409A      3.988056  
     410A      4.007269   411A      4.027804   412A      4.048795  
     413A      4.063669   414A      4.072772   415A      4.083276  
     416A      4.087673   417A      4.097741   418A      4.103698  
     419A      4.122832   420A      4.140893   421A      4.146961  
     422A      4.168525   423A      4.181252   424A      4.188285  
     425A      4.208929   426A      4.226689   427A      4.253154  
     428A      4.258841   429A      4.282860   430A      4.306022  
     431A      4.343879   432A      4.352966   433A      4.371877  
     434A      4.377946   435A      4.387300   436A      4.394132  
     437A      4.418635   438A      4.438068   439A      4.458911  
     440A      4.491736   441A      4.498927   442A      4.509052  
     443A      4.526379   444A      4.567937   445A      4.580808  
     446A      4.612018   447A      4.636645   448A      4.659576  
     449A      4.660909   450A      4.691590   451A      4.718656  
     452A      4.740694   453A      4.764179   454A      4.785959  
     455A      4.802742   456A      4.852269   457A      4.861120  
     458A      4.875800   459A      4.888669   460A      4.910021  
     461A      4.929340   462A      4.940140   463A      4.963824  
     464A      4.971997   465A      4.987152   466A      4.999868  
     467A      5.014319   468A      5.044581   469A      5.053536  
     470A      5.090551   471A      5.101823   472A      5.112419  
     473A      5.124609   474A      5.160483   475A      5.192499  
     476A      5.204046   477A      5.234784   478A      5.243263  
     479A      5.244294   480A      5.270454   481A      5.302594  
     482A      5.322398   483A      5.351221   484A      5.370412  
     485A      5.376810   486A      5.409150   487A      5.429234  
     488A      5.440581   489A      5.453422   490A      5.472498  
     491A      5.510966   492A      5.527494   493A      5.535062  
     494A      5.564413   495A      5.577114   496A      5.603505  
     497A      5.634300   498A      5.654225   499A      5.680015  
     500A      5.694634   501A      5.728983   502A      5.748594  
     503A      5.770091   504A      5.784183   505A      5.816797  
     506A      5.847067   507A      5.879453   508A      5.926768  
     509A      5.934186   510A      5.953825   511A      5.990226  
     512A      6.039567   513A      6.078821   514A      6.100464  
     515A      6.108073   516A      6.134566   517A      6.153461  
     518A      6.192145   519A      6.273595   520A      6.314126  
     521A      6.318765   522A      6.373689   523A      6.390637  
     524A      6.441849   525A      6.489822   526A      6.515571  
     527A      6.568777   528A      6.770524   529A      6.857252  
     530A      6.890378   531A      6.904348   532A      6.917207  
     533A      6.946016   534A      6.964356   535A      6.972884  
     536A      6.986678   537A      6.998651   538A      7.028494  
     539A      7.044782   540A      7.046690   541A      7.071196  
     542A      7.116722   543A      7.121145   544A      7.151020  
     545A      7.155377   546A      7.159007   547A      7.171694  
     548A      7.178839   549A      7.207230   550A      7.214985  
     551A      7.218840   552A      7.256928   553A      7.298851  
     554A      7.310864   555A      7.330587   556A      7.358390  
     557A      7.455735   558A      7.466315   559A      7.495646  
     560A      7.537700   561A      7.552972   562A      7.570259  
     563A      7.691400   564A      7.843606   565A      7.849862  
     566A      7.864739   567A      7.871401   568A      7.926341  
     569A      7.945403   570A      8.039829   571A      8.052108  
     572A     12.913278   573A     13.075822   574A     13.233429  
     575A     14.720473   576A     18.073694   577A     18.368159  
     578A     19.044747   579A     20.486715  

    Final Occupation by Irrep:
              A 
    DOCC [    37 ]

  @DF-RHF Final Energy:  -778.98158381728229

   => Energetics <=

    Nuclear Repulsion Energy =            518.0695746363040826
    One-Electron Energy =               -2113.8491753826633612
    Two-Electron Energy =                 816.7980169290771073
    Total Energy =                       -778.9815838172822851

Computation Completed

*** tstop() called on c401-011.stampede2.tacc.utexas.edu at Mon Mar  1 12:15:26 2021
Module time:
	user time   =     465.69 seconds =       7.76 minutes
	system time =      36.49 seconds =       0.61 minutes
	total time  =         30 seconds =       0.50 minutes
Total time:
	user time   =     465.69 seconds =       7.76 minutes
	system time =      36.49 seconds =       0.61 minutes
	total time  =         30 seconds =       0.50 minutes
   => Loading Basis Set <=

    Name: (AUG-CC-PVTZ AUX)
    Role: RIFIT
    Keyword: DF_BASIS_MP2
    atoms 1    entry S          line   666 file /home1/07844/xy3866/miniconda3/envs/p4env/share/psi4/basis/aug-cc-pvtz-ri.gbs 
    atoms 2-4  entry O          line   264 file /home1/07844/xy3866/miniconda3/envs/p4env/share/psi4/basis/aug-cc-pvtz-ri.gbs 
    atoms 5-8  entry C          line   148 file /home1/07844/xy3866/miniconda3/envs/p4env/share/psi4/basis/aug-cc-pvtz-ri.gbs 
    atoms 9-17 entry H          line    30 file /home1/07844/xy3866/miniconda3/envs/p4env/share/psi4/basis/aug-cc-pvtz-ri.gbs 


*** tstart() called on c401-011.stampede2.tacc.utexas.edu
*** at Mon Mar  1 12:15:27 2021


  //>>>>>>>>>>>>>>>>>>>>>>>>>>>>>>>>>>>//
  //               DFMP2               //
  //<<<<<<<<<<<<<<<<<<<<<<<<<<<<<<<<<<<//

	 --------------------------------------------------------
	                          DF-MP2                         
	      2nd-Order Density-Fitted Moller-Plesset Theory     
	              RMP2 Wavefunction,  32 Threads             
	                                                         
	        Rob Parrish, Justin Turney, Andy Simmonett,      
	           Ed Hohenstein, and C. David Sherrill          
	 --------------------------------------------------------

   => Auxiliary Basis Set <=

  Basis Set: (AUG-CC-PVTZ AUX)
    Blend: AUG-CC-PVTZ-RI
    Number of shells: 359
    Number of basis functions: 1303
    Number of Cartesian functions: 1638
    Spherical Harmonics?: true
    Max angular momentum: 4

	 --------------------------------------------------------
	                 NBF =   579, NAUX =  1303
	 --------------------------------------------------------
	   CLASS    FOCC     OCC    AOCC    AVIR     VIR    FVIR
	   PAIRS       0      37      37     542     542       0
	 --------------------------------------------------------

  DFHelper Memory: AOs need 3.256 GiB; user supplied 22.352 GiB. Using in-core AOs.


         ------------------------------------------------------------
                                     CPHF                           
                                  Rob Parrish                       
         ------------------------------------------------------------

  ==> Geometry <==

    Molecular point group: c1
    Full point group: C1

    Geometry (in Angstrom), charge = -1, multiplicity = 1:

       Center              X                  Y                   Z               Mass       
    ------------   -----------------  -----------------  -----------------  -----------------
         S            1.108700939155    -0.025209529083     0.019099358854    31.972071174400
         O            1.100314939155    -0.287503529083     1.486277358854    15.994914619570
         O            2.070921939155    -0.855503529083    -0.753980641146    15.994914619570
         O            1.130766939155     1.422512470917    -0.340791641146    15.994914619570
         C           -1.705321060845    -0.085404529083     0.233103358854    12.000000000000
         C           -0.506866060845    -0.638401529083    -0.534673641146    12.000000000000
         C           -1.978783060845     1.381696470917    -0.093112641146    12.000000000000
         C           -2.947103060845    -0.935314529083    -0.039898641146    12.000000000000
         H           -1.453483060845    -0.164832529083     1.297684358854     1.007825032230
         H           -0.589637060845    -0.420263529083    -1.606556641146     1.007825032230
         H           -0.462322160845    -1.527653229083    -0.436174141146     1.007825032230
         H           -2.266006060845     1.484983470917    -1.147567641146     1.007825032230
         H           -1.082145060845     1.980191470917     0.072121358854     1.007825032230
         H           -2.802916060845     1.768597470917     0.519333358854     1.007825032230
         H           -3.202140060845    -0.910744529083    -1.106514641146     1.007825032230
         H           -2.784046060845    -1.981091529083     0.243016358854     1.007825032230
         H           -3.813653060845    -0.562156529083     0.519771358854     1.007825032230

  Nuclear repulsion =  518.069574636304083
  Reference energy  = -778.981583817282285

  ==> Basis Set <==

  Basis Set: AUG-CC-PVTZ
    Blend: AUG-CC-PVTZ
    Number of shells: 195
    Number of basis functions: 579
    Number of Cartesian functions: 669
    Spherical Harmonics?: true
    Max angular momentum: 3

  ==> CGRSolver (by Rob Parrish) <==

   Number of roots    =         1
   Preconditioning    =    JACOBI
   Convergence cutoff =     1E-06
   Maximum iterations =       100

  ==> CPHFRHamiltonian (by Rob Parrish) <== 

  ==> MemDFJK: Density-Fitted J/K Matrices <==

    J tasked:                   Yes
    K tasked:                   Yes
    wK tasked:                   No
    OpenMP threads:              32
    Memory [MiB]:             22888
    Algorithm:                 Core
    Schwarz Cutoff:           1E-12
    Mask sparsity (%):       3.7668
    Fitting Condition:        1E-10

   => Auxiliary Basis Set <=

  Basis Set: (AUG-CC-PVTZ AUX)
    Blend: AUG-CC-PVTZ-JKFIT
    Number of shells: 378
    Number of basis functions: 1288
    Number of Cartesian functions: 1592
    Spherical Harmonics?: true
    Max angular momentum: 4

  ==> CPHF Iterations <==

  => Iterations <=

             Iter  Converged  Remaining    Residual
  CGR           1          0          1   1.103E-01
  CGR           2          0          1   2.620E-02
  CGR           3          0          1   1.125E-02
  CGR           4          0          1   2.893E-03
  CGR           5          0          1   8.223E-04
  CGR           6          0          1   2.619E-04
  CGR           7          0          1   8.816E-05
  CGR           8          0          1   3.655E-05
  CGR           9          0          1   9.751E-06
  CGR          10          0          1   2.479E-06
  CGR          11          1          0   8.038E-07

    CGRSolver converged.

	-----------------------------------------------------------
	 ==================> DF-MP2 Energies <==================== 
	-----------------------------------------------------------
	 Reference Energy          =    -778.9815838172822851 [Eh]
	 Singles Energy            =      -0.0000000000000000 [Eh]
	 Same-Spin Energy          =      -0.4484684301809069 [Eh]
	 Opposite-Spin Energy      =      -1.3739285544912399 [Eh]
	 Correlation Energy        =      -1.8223969846721468 [Eh]
	 Total Energy              =    -780.8039808019544807 [Eh]
	-----------------------------------------------------------
	 ================> DF-SCS-MP2 Energies <================== 
	-----------------------------------------------------------
	 SCS Same-Spin Scale       =       0.3333333333333333 [-]
	 SCS Opposite-Spin Scale   =       1.2000000000000000 [-]
	 SCS Same-Spin Energy      =      -0.1494894767269689 [Eh]
	 SCS Opposite-Spin Energy  =      -1.6487142653894877 [Eh]
	 SCS Correlation Energy    =      -1.7982037421164567 [Eh]
	 SCS Total Energy          =    -780.7797875593987555 [Eh]
	-----------------------------------------------------------



Properties will be evaluated at   0.000000,   0.000000,  -0.000000 [a0]

Properties computed using the MP2 density matrix

  Nuclear Dipole Moment: [e a0]
     X:   -17.2523      Y:    -0.3115      Z:    -1.5396

  Electronic Dipole Moment: [e a0]
     X:    14.5548      Y:    -0.0501      Z:     1.2237

  Dipole Moment: [e a0]
     X:    -2.6975      Y:    -0.3615      Z:    -0.3159     Total:     2.7399

  Dipole Moment: [D]
     X:    -6.8565      Y:    -0.9189      Z:    -0.8031     Total:     6.9642


*** tstop() called on c401-011.stampede2.tacc.utexas.edu at Mon Mar  1 12:18:45 2021
Module time:
	user time   =    1363.24 seconds =      22.72 minutes
	system time =      53.51 seconds =       0.89 minutes
	total time  =        198 seconds =       3.30 minutes
Total time:
	user time   =    1829.77 seconds =      30.50 minutes
	system time =      90.02 seconds =       1.50 minutes
	total time  =        229 seconds =       3.82 minutes

    Psi4 stopped on: Monday, 01 March 2021 12:18PM
    Psi4 wall time for execution: 0:03:50.35

*** Psi4 exiting successfully. Buy a developer a beer!
