11721                                                                   
Freq      RMP2-FC                                                     6-31G(d)            
Number of atoms                            I               15
Info1-9                                    I   N=           9
          27          25        1002           0           0         100
           6           2           1
Charge                                     I                0
Multiplicity                               I                1
Number of electrons                        I               42
Number of alpha electrons                  I               21
Number of beta electrons                   I               21
Number of basis functions                  I               95
Number of independent functions            I               95
Number of point charges in /Mol/           I                0
Number of translation vectors              I                0
Atomic numbers                             I   N=          15
           8           6           6           6           6           1
           1           1           1           1           1           1
           1           1           1
Nuclear charges                            R   N=          15
  8.00000000E+00  6.00000000E+00  6.00000000E+00  6.00000000E+00  6.00000000E+00
  1.00000000E+00  1.00000000E+00  1.00000000E+00  1.00000000E+00  1.00000000E+00
  1.00000000E+00  1.00000000E+00  1.00000000E+00  1.00000000E+00  1.00000000E+00
Current cartesian coordinates              R   N=          45
  1.30862840E+00 -1.11025803E+00 -6.81992920E-01 -7.94226091E-01 -6.72051783E-03
  6.08111297E-01 -1.21990729E+00  2.72581260E+00 -1.93476258E-01 -3.04272242E+00
 -1.67340904E+00 -1.58212083E-02  3.68489270E+00 -2.10995792E-01  1.69944750E-01
 -4.30340089E-01 -7.44386286E-02  2.66000374E+00 -2.89854980E+00  3.49848452E+00
  7.34751912E-01  3.82317170E-01  3.93359702E+00  2.95542279E-01 -1.49894372E+00
  2.80335114E+00 -2.23996715E+00 -4.74460907E+00 -1.00192911E+00  9.46123439E-01
 -2.66797409E+00 -3.61902985E+00  5.62177406E-01 -3.37859609E+00 -1.64955700E+00
 -2.05451532E+00  4.01480337E+00  1.77218192E+00 -3.34882378E-01  5.11280044E+00
 -1.37609322E+00 -7.54714380E-01  3.87184332E+00 -4.12626014E-01  2.22887233E+00
Force Field                                I                0
Int Atom Types                             I   N=          15
           0           0           0           0           0           0
           0           0           0           0           0           0
           0           0           0
MM charges                                 R   N=          15
  0.00000000E+00  0.00000000E+00  0.00000000E+00  0.00000000E+00  0.00000000E+00
  0.00000000E+00  0.00000000E+00  0.00000000E+00  0.00000000E+00  0.00000000E+00
  0.00000000E+00  0.00000000E+00  0.00000000E+00  0.00000000E+00  0.00000000E+00
Integer atomic weights                     I   N=          15
          16          12          12          12          12           1
           1           1           1           1           1           1
           1           1           1
Real atomic weights                        R   N=          15
  1.59949146E+01  1.20000000E+01  1.20000000E+01  1.20000000E+01  1.20000000E+01
  1.00782504E+00  1.00782504E+00  1.00782504E+00  1.00782504E+00  1.00782504E+00
  1.00782504E+00  1.00782504E+00  1.00782504E+00  1.00782504E+00  1.00782504E+00
Atom fragment info                         I   N=          15
           0           0           0           0           0           0
           0           0           0           0           0           0
           0           0           0
Atom residue num                           I   N=          15
           0           0           0           0           0           0
           0           0           0           0           0           0
           0           0           0
Nuclear spins                              I   N=          15
           0           0           0           0           0           1
           1           1           1           1           1           1
           1           1           1
Nuclear ZEff                               R   N=          15
 -5.60000000E+00 -3.60000000E+00 -3.60000000E+00 -3.60000000E+00 -3.60000000E+00
 -1.00000000E+00 -1.00000000E+00 -1.00000000E+00 -1.00000000E+00 -1.00000000E+00
 -1.00000000E+00 -1.00000000E+00 -1.00000000E+00 -1.00000000E+00 -1.00000000E+00
Nuclear QMom                               R   N=          15
  0.00000000E+00  0.00000000E+00  0.00000000E+00  0.00000000E+00  0.00000000E+00
  0.00000000E+00  0.00000000E+00  0.00000000E+00  0.00000000E+00  0.00000000E+00
  0.00000000E+00  0.00000000E+00  0.00000000E+00  0.00000000E+00  0.00000000E+00
Nuclear GFac                               R   N=          15
  0.00000000E+00  0.00000000E+00  0.00000000E+00  0.00000000E+00  0.00000000E+00
  2.79284600E+00  2.79284600E+00  2.79284600E+00  2.79284600E+00  2.79284600E+00
  2.79284600E+00  2.79284600E+00  2.79284600E+00  2.79284600E+00  2.79284600E+00
MicOpt                                     I   N=          15
          -1          -1          -1          -1          -1          -1
          -1          -1          -1          -1          -1          -1
          -1          -1          -1
Number of contracted shells                I               40
Number of primitive shells                 I               95
Pure/Cartesian d shells                    I                1
Pure/Cartesian f shells                    I                0
Highest angular momentum                   I                2
Largest degree of contraction              I                6
Shell types                                I   N=          40
           0          -1          -1           2           0          -1
          -1           2           0          -1          -1           2
           0          -1          -1           2           0          -1
          -1           2           0           0           0           0
           0           0           0           0           0           0
           0           0           0           0           0           0
           0           0           0           0
Number of primitives per shell             I   N=          40
           6           3           1           1           6           3
           1           1           6           3           1           1
           6           3           1           1           6           3
           1           1           3           1           3           1
           3           1           3           1           3           1
           3           1           3           1           3           1
           3           1           3           1
Shell to atom map                          I   N=          40
           1           1           1           1           2           2
           2           2           3           3           3           3
           4           4           4           4           5           5
           5           5           6           6           7           7
           8           8           9           9          10          10
          11          11          12          12          13          13
          14          14          15          15
Primitive exponents                        R   N=          95
  5.48467166E+03  8.25234946E+02  1.88046958E+02  5.29645000E+01  1.68975704E+01
  5.79963534E+00  1.55396162E+01  3.59993359E+00  1.01376175E+00  2.70005823E-01
  8.00000000E-01  3.04752488E+03  4.57369518E+02  1.03948685E+02  2.92101553E+01
  9.28666296E+00  3.16392696E+00  7.86827235E+00  1.88128854E+00  5.44249258E-01
  1.68714478E-01  8.00000000E-01  3.04752488E+03  4.57369518E+02  1.03948685E+02
  2.92101553E+01  9.28666296E+00  3.16392696E+00  7.86827235E+00  1.88128854E+00
  5.44249258E-01  1.68714478E-01  8.00000000E-01  3.04752488E+03  4.57369518E+02
  1.03948685E+02  2.92101553E+01  9.28666296E+00  3.16392696E+00  7.86827235E+00
  1.88128854E+00  5.44249258E-01  1.68714478E-01  8.00000000E-01  3.04752488E+03
  4.57369518E+02  1.03948685E+02  2.92101553E+01  9.28666296E+00  3.16392696E+00
  7.86827235E+00  1.88128854E+00  5.44249258E-01  1.68714478E-01  8.00000000E-01
  1.87311370E+01  2.82539436E+00  6.40121692E-01  1.61277759E-01  1.87311370E+01
  2.82539436E+00  6.40121692E-01  1.61277759E-01  1.87311370E+01  2.82539436E+00
  6.40121692E-01  1.61277759E-01  1.87311370E+01  2.82539436E+00  6.40121692E-01
  1.61277759E-01  1.87311370E+01  2.82539436E+00  6.40121692E-01  1.61277759E-01
  1.87311370E+01  2.82539436E+00  6.40121692E-01  1.61277759E-01  1.87311370E+01
  2.82539436E+00  6.40121692E-01  1.61277759E-01  1.87311370E+01  2.82539436E+00
  6.40121692E-01  1.61277759E-01  1.87311370E+01  2.82539436E+00  6.40121692E-01
  1.61277759E-01  1.87311370E+01  2.82539436E+00  6.40121692E-01  1.61277759E-01
Contraction coefficients                   R   N=          95
  1.83107443E-03  1.39501722E-02  6.84450781E-02  2.32714336E-01  4.70192898E-01
  3.58520853E-01 -1.10777550E-01 -1.48026263E-01  1.13076702E+00  1.00000000E+00
  1.00000000E+00  1.83473713E-03  1.40373228E-02  6.88426223E-02  2.32184443E-01
  4.67941348E-01  3.62311985E-01 -1.19332420E-01 -1.60854152E-01  1.14345644E+00
  1.00000000E+00  1.00000000E+00  1.83473713E-03  1.40373228E-02  6.88426223E-02
  2.32184443E-01  4.67941348E-01  3.62311985E-01 -1.19332420E-01 -1.60854152E-01
  1.14345644E+00  1.00000000E+00  1.00000000E+00  1.83473713E-03  1.40373228E-02
  6.88426223E-02  2.32184443E-01  4.67941348E-01  3.62311985E-01 -1.19332420E-01
 -1.60854152E-01  1.14345644E+00  1.00000000E+00  1.00000000E+00  1.83473713E-03
  1.40373228E-02  6.88426223E-02  2.32184443E-01  4.67941348E-01  3.62311985E-01
 -1.19332420E-01 -1.60854152E-01  1.14345644E+00  1.00000000E+00  1.00000000E+00
  3.34946043E-02  2.34726953E-01  8.13757326E-01  1.00000000E+00  3.34946043E-02
  2.34726953E-01  8.13757326E-01  1.00000000E+00  3.34946043E-02  2.34726953E-01
  8.13757326E-01  1.00000000E+00  3.34946043E-02  2.34726953E-01  8.13757326E-01
  1.00000000E+00  3.34946043E-02  2.34726953E-01  8.13757326E-01  1.00000000E+00
  3.34946043E-02  2.34726953E-01  8.13757326E-01  1.00000000E+00  3.34946043E-02
  2.34726953E-01  8.13757326E-01  1.00000000E+00  3.34946043E-02  2.34726953E-01
  8.13757326E-01  1.00000000E+00  3.34946043E-02  2.34726953E-01  8.13757326E-01
  1.00000000E+00  3.34946043E-02  2.34726953E-01  8.13757326E-01  1.00000000E+00
P(S=P) Contraction coefficients            R   N=          95
  0.00000000E+00  0.00000000E+00  0.00000000E+00  0.00000000E+00  0.00000000E+00
  0.00000000E+00  7.08742682E-02  3.39752839E-01  7.27158577E-01  1.00000000E+00
  0.00000000E+00  0.00000000E+00  0.00000000E+00  0.00000000E+00  0.00000000E+00
  0.00000000E+00  0.00000000E+00  6.89990666E-02  3.16423961E-01  7.44308291E-01
  1.00000000E+00  0.00000000E+00  0.00000000E+00  0.00000000E+00  0.00000000E+00
  0.00000000E+00  0.00000000E+00  0.00000000E+00  6.89990666E-02  3.16423961E-01
  7.44308291E-01  1.00000000E+00  0.00000000E+00  0.00000000E+00  0.00000000E+00
  0.00000000E+00  0.00000000E+00  0.00000000E+00  0.00000000E+00  6.89990666E-02
  3.16423961E-01  7.44308291E-01  1.00000000E+00  0.00000000E+00  0.00000000E+00
  0.00000000E+00  0.00000000E+00  0.00000000E+00  0.00000000E+00  0.00000000E+00
  6.89990666E-02  3.16423961E-01  7.44308291E-01  1.00000000E+00  0.00000000E+00
  0.00000000E+00  0.00000000E+00  0.00000000E+00  0.00000000E+00  0.00000000E+00
  0.00000000E+00  0.00000000E+00  0.00000000E+00  0.00000000E+00  0.00000000E+00
  0.00000000E+00  0.00000000E+00  0.00000000E+00  0.00000000E+00  0.00000000E+00
  0.00000000E+00  0.00000000E+00  0.00000000E+00  0.00000000E+00  0.00000000E+00
  0.00000000E+00  0.00000000E+00  0.00000000E+00  0.00000000E+00  0.00000000E+00
  0.00000000E+00  0.00000000E+00  0.00000000E+00  0.00000000E+00  0.00000000E+00
  0.00000000E+00  0.00000000E+00  0.00000000E+00  0.00000000E+00  0.00000000E+00
  0.00000000E+00  0.00000000E+00  0.00000000E+00  0.00000000E+00  0.00000000E+00
Coordinates of each shell                  R   N=         120
  1.30862840E+00 -1.11025803E+00 -6.81992920E-01  1.30862840E+00 -1.11025803E+00
 -6.81992920E-01  1.30862840E+00 -1.11025803E+00 -6.81992920E-01  1.30862840E+00
 -1.11025803E+00 -6.81992920E-01 -7.94226091E-01 -6.72051783E-03  6.08111297E-01
 -7.94226091E-01 -6.72051783E-03  6.08111297E-01 -7.94226091E-01 -6.72051783E-03
  6.08111297E-01 -7.94226091E-01 -6.72051783E-03  6.08111297E-01 -1.21990729E+00
  2.72581260E+00 -1.93476258E-01 -1.21990729E+00  2.72581260E+00 -1.93476258E-01
 -1.21990729E+00  2.72581260E+00 -1.93476258E-01 -1.21990729E+00  2.72581260E+00
 -1.93476258E-01 -3.04272242E+00 -1.67340904E+00 -1.58212083E-02 -3.04272242E+00
 -1.67340904E+00 -1.58212083E-02 -3.04272242E+00 -1.67340904E+00 -1.58212083E-02
 -3.04272242E+00 -1.67340904E+00 -1.58212083E-02  3.68489270E+00 -2.10995792E-01
  1.69944750E-01  3.68489270E+00 -2.10995792E-01  1.69944750E-01  3.68489270E+00
 -2.10995792E-01  1.69944750E-01  3.68489270E+00 -2.10995792E-01  1.69944750E-01
 -4.30340089E-01 -7.44386286E-02  2.66000374E+00 -4.30340089E-01 -7.44386286E-02
  2.66000374E+00 -2.89854980E+00  3.49848452E+00  7.34751912E-01 -2.89854980E+00
  3.49848452E+00  7.34751912E-01  3.82317170E-01  3.93359702E+00  2.95542279E-01
  3.82317170E-01  3.93359702E+00  2.95542279E-01 -1.49894372E+00  2.80335114E+00
 -2.23996715E+00 -1.49894372E+00  2.80335114E+00 -2.23996715E+00 -4.74460907E+00
 -1.00192911E+00  9.46123439E-01 -4.74460907E+00 -1.00192911E+00  9.46123439E-01
 -2.66797409E+00 -3.61902985E+00  5.62177406E-01 -2.66797409E+00 -3.61902985E+00
  5.62177406E-01 -3.37859609E+00 -1.64955700E+00 -2.05451532E+00 -3.37859609E+00
 -1.64955700E+00 -2.05451532E+00  4.01480337E+00  1.77218192E+00 -3.34882378E-01
  4.01480337E+00  1.77218192E+00 -3.34882378E-01  5.11280044E+00 -1.37609322E+00
 -7.54714380E-01  5.11280044E+00 -1.37609322E+00 -7.54714380E-01  3.87184332E+00
 -4.12626014E-01  2.22887233E+00  3.87184332E+00 -4.12626014E-01  2.22887233E+00
Constraint Structure                       R   N=          45
  1.30862840E+00 -1.11025803E+00 -6.81992920E-01 -7.94226091E-01 -6.72051783E-03
  6.08111297E-01 -1.21990729E+00  2.72581260E+00 -1.93476258E-01 -3.04272242E+00
 -1.67340904E+00 -1.58212083E-02  3.68489270E+00 -2.10995792E-01  1.69944750E-01
 -4.30340089E-01 -7.44386286E-02  2.66000374E+00 -2.89854980E+00  3.49848452E+00
  7.34751912E-01  3.82317170E-01  3.93359702E+00  2.95542279E-01 -1.49894372E+00
  2.80335114E+00 -2.23996715E+00 -4.74460907E+00 -1.00192911E+00  9.46123439E-01
 -2.66797409E+00 -3.61902985E+00  5.62177406E-01 -3.37859609E+00 -1.64955700E+00
 -2.05451532E+00  4.01480337E+00  1.77218192E+00 -3.34882378E-01  5.11280044E+00
 -1.37609322E+00 -7.54714380E-01  3.87184332E+00 -4.12626014E-01  2.22887233E+00
Num ILSW                                   I              100
ILSW                                       I   N=         100
           0           1           0           0           2           0
           0           0           0           0           0          -1
           0           0           0           0           0           0
           0           0           0           0           1           0
           1           0           0           0           0           0
           0           0      100000           0          -1           0
           0           0           0           0           0           0
           0           0           0           1           1           0
           0           0           1           0           0           0
           0           0           4          40           0           0
           0           0           0           0           0           0
           0           0           0           0           0           0
           0           0           0           0           0           0
           0           0           0           0           0           0
           0           0           0           0           0           0
           0           0           0           0           0           0
           0           0           0           0
Num RLSW                                   I               40
RLSW                                       R   N=          40
  1.00000000E+00  1.00000000E+00  1.00000000E+00  1.00000000E+00  1.00000000E+00
  0.00000000E+00  0.00000000E+00  1.00000000E+00  0.00000000E+00  0.00000000E+00
  0.00000000E+00  0.00000000E+00  1.00000000E+00  0.00000000E+00  0.00000000E+00
  0.00000000E+00  0.00000000E+00  1.00000000E+00  0.00000000E+00  0.00000000E+00
  0.00000000E+00  0.00000000E+00  1.00000000E+00  0.00000000E+00  0.00000000E+00
  0.00000000E+00  0.00000000E+00  1.00000000E+00  0.00000000E+00  0.00000000E+00
  0.00000000E+00  0.00000000E+00  0.00000000E+00  0.00000000E+00  0.00000000E+00
  0.00000000E+00  0.00000000E+00  0.00000000E+00  1.00000000E+00  1.00000000E+00
MxBond                                     I                4
NBond                                      I   N=          15
           2           4           4           4           4           1
           1           1           1           1           1           1
           1           1           1
IBond                                      I   N=          60
           2           5           0           0           1           3
           4           6           2           7           8           9
           2          10          11          12           1          13
          14          15           2           0           0           0
           3           0           0           0           3           0
           0           0           3           0           0           0
           4           0           0           0           4           0
           0           0           4           0           0           0
           5           0           0           0           5           0
           0           0           5           0           0           0
RBond                                      R   N=          60
  1.00000000E+00  1.00000000E+00  0.00000000E+00  0.00000000E+00  1.00000000E+00
  1.00000000E+00  1.00000000E+00  1.00000000E+00  1.00000000E+00  1.00000000E+00
  1.00000000E+00  1.00000000E+00  1.00000000E+00  1.00000000E+00  1.00000000E+00
  1.00000000E+00  1.00000000E+00  1.00000000E+00  1.00000000E+00  1.00000000E+00
  1.00000000E+00  0.00000000E+00  0.00000000E+00  0.00000000E+00  1.00000000E+00
  0.00000000E+00  0.00000000E+00  0.00000000E+00  1.00000000E+00  0.00000000E+00
  0.00000000E+00  0.00000000E+00  1.00000000E+00  0.00000000E+00  0.00000000E+00
  0.00000000E+00  1.00000000E+00  0.00000000E+00  0.00000000E+00  0.00000000E+00
  1.00000000E+00  0.00000000E+00  0.00000000E+00  0.00000000E+00  1.00000000E+00
  0.00000000E+00  0.00000000E+00  0.00000000E+00  1.00000000E+00  0.00000000E+00
  0.00000000E+00  0.00000000E+00  1.00000000E+00  0.00000000E+00  0.00000000E+00
  0.00000000E+00  1.00000000E+00  0.00000000E+00  0.00000000E+00  0.00000000E+00
Virial Ratio                               R      2.001810598796255E+00
SCF Energy                                 R     -2.321397651059665E+02
MP2 Energy                                 R     -2.328449420586231E+02
Total Energy                               R     -2.328449420586231E+02
Post-SCF wavefunction norm                 R      1.563411211810068E+00
RMS Force                                  R      2.633444207198854E-07
RMS Density                                R      1.093994536293957E-09
External E-field                           R   N=          35
  0.00000000E+00  0.00000000E+00  0.00000000E+00  0.00000000E+00  0.00000000E+00
  0.00000000E+00  0.00000000E+00  0.00000000E+00  0.00000000E+00  0.00000000E+00
  0.00000000E+00  0.00000000E+00  0.00000000E+00  0.00000000E+00  0.00000000E+00
  0.00000000E+00  0.00000000E+00  0.00000000E+00  0.00000000E+00  0.00000000E+00
  0.00000000E+00  0.00000000E+00  0.00000000E+00  0.00000000E+00  0.00000000E+00
  0.00000000E+00  0.00000000E+00  0.00000000E+00  0.00000000E+00  0.00000000E+00
  0.00000000E+00  0.00000000E+00  0.00000000E+00  0.00000000E+00  0.00000000E+00
IOpCl                                      I                0
IROHF                                      I                0
Alpha Orbital Energies                     R   N=          95
 -2.05530023E+01 -1.12767775E+01 -1.12675819E+01 -1.12136473E+01 -1.12093302E+01
 -1.36113843E+00 -1.04975401E+00 -9.39907608E-01 -9.09925829E-01 -7.88651064E-01
 -6.65567378E-01 -6.33721504E-01 -6.28628603E-01 -5.86567268E-01 -5.48269264E-01
 -5.39758023E-01 -5.24958061E-01 -4.96021765E-01 -4.87223465E-01 -4.57382504E-01
 -4.11727099E-01  2.27417127E-01  2.64755225E-01  2.78213260E-01  2.95704143E-01
  3.08851375E-01  3.19807725E-01  3.22885984E-01  3.44642753E-01  3.48778892E-01
  3.54586686E-01  3.82864169E-01  4.07400535E-01  4.36769684E-01  4.63109716E-01
  6.97653614E-01  7.21869489E-01  7.50277843E-01  7.71077305E-01  7.93380439E-01
  8.24451306E-01  8.33818243E-01  9.16226732E-01  9.24004909E-01  9.75481470E-01
  1.00058903E+00  1.03966555E+00  1.10272366E+00  1.13328687E+00  1.14267528E+00
  1.15575595E+00  1.17568888E+00  1.18126257E+00  1.18882316E+00  1.21143855E+00
  1.22737880E+00  1.23445284E+00  1.26948141E+00  1.30438675E+00  1.41943566E+00
  1.42787665E+00  1.58698869E+00  1.63281564E+00  1.68777322E+00  1.71660642E+00
  1.76641443E+00  1.90305634E+00  2.00396308E+00  2.02887295E+00  2.08927388E+00
  2.12837644E+00  2.24301180E+00  2.29292809E+00  2.33078951E+00  2.38639133E+00
  2.39684798E+00  2.41987275E+00  2.48012708E+00  2.54479451E+00  2.57859123E+00
  2.58465997E+00  2.59981190E+00  2.68445879E+00  2.75307492E+00  2.83714199E+00
  2.89125306E+00  2.94177772E+00  3.07673235E+00  3.17104898E+00  3.32985202E+00
  4.34443149E+00  4.61917546E+00  4.67817666E+00  4.72587496E+00  4.96293714E+00
Alpha MO coefficients                      R   N=        9025
  9.94667632E-01  2.12238169E-02  1.96041873E-04  8.74223376E-04  8.87126806E-04
  3.64443730E-03 -1.19542954E-04 -5.40953420E-04 -5.38739823E-04 -4.21282090E-03
 -3.92487234E-03 -3.94848805E-03  1.20778192E-06  1.80312111E-05 -1.47815539E-04
 -2.98494685E-05  1.42307496E-04  2.73298996E-04 -1.48663360E-04 -1.81708288E-04
  5.25518005E-04  6.47354670E-05  4.44437512E-05  5.23624528E-05  5.19918134E-05
 -2.30767530E-05 -3.26975395E-05 -3.82059248E-05 -5.88281934E-05  2.82997339E-05
  5.08872941E-09  4.20375046E-05 -1.62049051E-05  2.87723588E-05  7.79073786E-06
 -1.13504854E-04 -6.09978804E-05  8.10266373E-05 -7.19145911E-05 -2.55656344E-05
 -4.12826424E-05 -1.49832769E-05  3.02433341E-05 -2.46008617E-06 -2.12581696E-06
  1.11486230E-05  1.00729970E-04  1.28217173E-05 -1.62108325E-05 -1.83456090E-05
 -1.94232967E-04 -3.35573570E-04  4.21696464E-05  1.12667630E-04 -6.00186045E-05
  7.56812086E-06  1.48070448E-06 -1.81629694E-05 -1.48429020E-07  1.28317980E-05
 -1.13878106E-05  2.69784815E-04 -3.67629799E-04 -1.36270688E-04 -1.27918726E-04
  8.24108250E-05  7.26811419E-05  1.49655909E-04  1.45424754E-04  7.12930455E-05
 -3.49365306E-05 -3.20984296E-05  3.78910049E-05  3.53889052E-05 -6.36254752E-06
 -6.04472421E-05 -1.14585124E-04  5.25007731E-06  5.87935821E-07  1.02587371E-05
  9.72789512E-06  1.48120640E-05 -7.35989793E-05 -1.24480421E-05 -1.64997585E-04
  5.13316813E-05  3.26856488E-06  5.46121534E-05 -4.73305563E-06 -3.86109677E-05
 -9.07732537E-05  3.38609295E-06 -5.37566010E-05 -3.80312946E-05 -1.09647292E-04
 -1.71066311E-04  1.25280386E-05 -9.04138760E-05  7.49275655E-05  1.21218226E-04
  2.45011838E-03 -5.77822326E-04  1.31825458E-04 -2.11733006E-04 -5.33357752E-04
 -1.80252855E-04 -2.36962176E-04  1.93445776E-04  3.28870639E-04 -2.33617396E-04
  9.96046199E-01  2.78239631E-02  6.17349981E-04 -1.73743265E-04 -4.29538099E-04
 -1.80852686E-02  2.40834468E-04 -9.03366083E-04  1.06873332E-03 -1.13033835E-03
 -1.21878888E-03 -1.17933023E-03 -1.66613232E-05  8.53884564E-06  4.35913068E-05
  4.69380571E-03  2.22164405E-05 -8.84370028E-06 -1.43386824E-04  3.31247751E-05
  5.32470556E-03  6.49399230E-04 -2.28863576E-03  4.78813294E-04 -1.70537475E-04
 -3.98071848E-04 -1.62624969E-04  3.73853690E-05 -1.74875055E-05  1.33253691E-04
  4.54831202E-03  1.79969592E-04  4.40922562E-05  9.57268437E-05  1.61961485E-05
  3.99242875E-03  1.62571153E-03  1.08311003E-03  1.41675958E-04 -3.51660067E-04
 -2.01750379E-04 -1.07732106E-04 -1.56099211E-04 -1.08106806E-04 -6.80996025E-05
 -1.13141262E-03 -4.57554810E-04  2.16110972E-05 -3.26586215E-05 -7.32483722E-05
  1.48652895E-03 -8.08640173E-04  3.50885078E-04  6.40101517E-04  1.23884298E-04
 -1.07957399E-04 -6.00953830E-05 -7.05213270E-06 -4.23027798E-05 -8.80669366E-06
  3.01987414E-04  2.59524772E-03 -1.51182645E-04  6.82450349E-05 -1.83428507E-04
 -2.68384481E-04 -2.37651904E-04  2.71168353E-05 -1.03683924E-04  1.00328392E-04
 -1.50135951E-04 -2.99347600E-05 -1.79196502E-04  1.12247170E-05 -7.98204463E-05
 -2.83083676E-04  2.12136006E-05  3.24379639E-04 -1.40021920E-04 -5.63157479E-04
 -1.15505393E-04  3.29910473E-04  1.50825994E-04  1.19181301E-04  1.16574881E-04
  3.55581248E-04 -1.38694283E-04 -4.82527622E-04 -5.44995013E-04 -5.44977454E-04
  1.61778009E-05  6.98971230E-06 -2.24164727E-04 -2.15225720E-04 -1.98196634E-04
  1.01636603E-03 -3.69720937E-04 -8.09517611E-05 -7.85014406E-05 -7.88756560E-05
  1.27966800E-03  1.62843856E-03  3.05082083E-04  5.13263290E-04  1.42821980E-04
 -1.06415583E-04 -5.51800531E-05 -4.55165321E-05 -4.38815870E-05  3.45161532E-06
 -8.44597464E-05 -7.12216086E-05 -1.08646112E-04  5.75473195E-05  6.51469389E-06
  1.84575450E-04  4.80161188E-05 -7.48414619E-05 -2.61386910E-04 -7.78754182E-05
 -1.59673634E-05 -8.22051545E-05  5.79077559E-05 -1.37194881E-05  1.23618720E-05
  4.63040528E-05  1.56667967E-05  7.43371737E-05 -2.81990468E-06 -3.21432912E-05
  5.89925784E-04 -1.22578727E-04  4.63192972E-04  2.26553834E-04 -5.77290123E-06
  3.51868771E-05  1.16046624E-05  1.23687578E-05 -2.31203830E-05  2.40794869E-05
  9.95814195E-01  2.75446942E-02 -8.62105504E-04 -1.66972322E-04 -1.69009936E-04
 -1.23470528E-02  7.90135485E-05 -5.10053035E-04 -4.38599437E-04 -1.52259850E-03
 -1.65685913E-03 -1.69407102E-03  5.78083750E-05  4.94808635E-05  5.16390086E-05
 -1.78499661E-04 -5.67467531E-04  1.03672343E-05  1.67152671E-04 -1.22723571E-05
 -1.77617947E-04 -1.16521295E-05 -1.99515877E-04 -6.43907250E-05 -1.93644969E-04
  3.76520346E-05  1.09659996E-04  2.55744472E-05  5.87480968E-05  1.09529493E-04
  2.62371501E-03  2.14425074E-05  2.07663508E-03  1.33681474E-04  2.54858228E-03
 -4.42286442E-05 -2.39309108E-04  4.33462066E-05 -8.56986518E-05 -1.96768938E-05
  6.88324004E-04 -2.32169265E-04  1.89092890E-04  1.11911990E-04 -1.50641052E-04
 -6.57290211E-05 -1.96454202E-04 -6.77009728E-05 -4.14805509E-05 -2.18541304E-05
 -4.98973255E-03  9.08514857E-05 -6.30920936E-05  8.42717996E-05  2.26944492E-06
  2.60945086E-03 -1.21978473E-06  1.77742579E-03 -7.07821621E-05 -1.99302765E-04
 -4.15315965E-04 -1.20581142E-04  5.34290735E-05  2.10146927E-06  9.98336522E-05
  9.95721858E-01  2.85560783E-02 -2.99617589E-05 -5.43519677E-05  3.27787206E-05
 -1.49850570E-02  4.52152681E-05  6.18583192E-04 -1.44783164E-04 -1.82844162E-03
 -1.84077236E-03 -1.83975719E-03  1.48984913E-05 -5.29733460E-06  2.93856933E-05
 -2.21605580E-03 -3.70364161E-04  7.49164617E-06 -1.15397175E-04  3.00772899E-05
  1.20507021E-03  6.02071066E-05  6.98348178E-04 -2.07522362E-04 -5.78855522E-05
 -9.04662323E-06 -9.37064335E-05  3.92830339E-05  1.44957217E-05 -2.02914856E-05
  4.90890611E-05 -3.80503498E-05  4.77794133E-05 -3.57407055E-05  2.33516697E-05
  2.21681959E-04  1.59859275E-05  4.37084578E-05 -1.60373545E-04 -4.87440524E-05
 -1.07875344E-05 -6.76514252E-05  3.49919590E-05  3.45728738E-05  4.15498789E-06
 -1.45527642E-04 -5.89437690E-06  1.37717247E-04  2.59823842E-03  9.55515076E-05
  2.52282362E-03  1.54477514E-04  2.62565725E-03 -7.13190503E-05 -3.16813776E-04
 -1.27402902E-05  3.73147494E-04 -8.77403727E-05 -3.38575625E-04 -2.27741099E-05
 -1.64075961E-04 -4.88023836E-06 -5.79649851E-05  3.84629783E-05 -2.58110320E-05
 -1.09128991E-05 -1.34942488E-04  1.08810371E-04  3.27842037E-05  1.25346409E-05
  1.91848953E-04 -6.16420008E-04 -1.09357442E-04 -7.65036105E-05  9.10590930E-05
 -6.57308695E-05 -1.09977342E-04  2.21140436E-05 -3.81314334E-05  3.34239576E-05
 -4.82875926E-03  1.32978462E-04 -6.96476939E-05 -1.90998294E-05  5.00588166E-06
  2.66666544E-03 -1.38469101E-03 -1.12345677E-03  1.29588547E-04 -3.25111691E-04
 -2.66876834E-04 -1.05334421E-04 -1.21884055E-04 -3.10427322E-05 -8.81920093E-05
  2.08198561E-03 -2.60123243E-04  9.24585111E-05  8.90971049E-05  3.25976165E-05
  1.13307757E-03 -4.51862218E-04 -5.71760472E-04 -2.68235987E-04 -7.95114023E-05
 -1.35094889E-05 -1.04952625E-04  2.44117796E-05  1.99379174E-05  4.98809992E-06
  9.95731074E-01  2.85954720E-02  6.29258079E-05  1.35538044E-04  4.00717991E-06
 -1.51051908E-02 -5.79627330E-04 -5.63285519E-04 -2.62022607E-05 -1.82570706E-03
 -1.82147990E-03 -1.81972508E-03 -2.47002996E-05 -2.69138571E-05 -2.20263264E-05
 -4.89287247E-05 -5.90405835E-05 -5.57077016E-05 -5.34563830E-05 -2.39830331E-05
  6.35728333E-04 -2.25131710E-04  1.38862691E-04 -1.79788750E-05  1.42591167E-05
  2.17591920E-06 -2.03729822E-05  3.84026320E-06  7.85334322E-06 -4.06652035E-07
 -1.38036676E-04 -5.87816232E-05 -7.43973912E-05 -2.72525843E-04 -3.65461969E-06
  3.83423027E-04 -1.00880569E-04 -3.77686240E-04  1.25325065E-04  2.53067626E-03
  1.38314923E-04  2.44988851E-03  1.70752302E-04  2.67689175E-03 -3.87533970E-05
 -1.86945980E-04 -1.70748033E-05  4.69184118E-05 -1.41859423E-05 -9.05744293E-05
 -1.96597856E-01  4.37190107E-01  6.06856038E-03  5.15125313E-02  5.44283034E-02
  4.33254740E-01  6.40207319E-04  3.55362859E-02  3.74340694E-02  1.69191280E-02