opt=Tight                                                               
Freq      RMP2-FC                                                     6-31G(d)            
Number of atoms                            I               11
Info1-9                                    I   N=           9
          20          20        1002           0           0         100
           6           2           1
Charge                                     I                1
Multiplicity                               I                1
Number of electrons                        I               26
Number of alpha electrons                  I               13
Number of beta electrons                   I               13
Number of basis functions                  I               61
Number of independent functions            I               61
Number of point charges in /Mol/           I                0
Number of translation vectors              I                0
Atomic numbers                             I   N=          11
           7           6           6           1           1           1
           1           1           1           1           1
Nuclear charges                            R   N=          11
  7.00000000E+00  6.00000000E+00  6.00000000E+00  1.00000000E+00  1.00000000E+00
  1.00000000E+00  1.00000000E+00  1.00000000E+00  1.00000000E+00  1.00000000E+00
  1.00000000E+00
Current cartesian coordinates              R   N=          33
 -8.99878581E-08  1.02105054E+00 -1.27469531E-05 -2.36614052E+00 -5.22931084E-01
  1.82213492E-05  2.36614062E+00 -5.22930671E-01 -4.99443829E-06 -7.49231713E-06
  2.19534193E+00 -1.54474776E+00  7.11154688E-06  2.19538090E+00  1.54469246E+00
 -2.36668091E+00 -1.69264335E+00 -1.69003416E+00 -2.36666165E+00 -1.69260698E+00
  1.69009581E+00 -3.97707723E+00  7.53796518E-01  1.34664384E-05  3.97707709E+00
  7.53797223E-01 -2.24328099E-05  2.36667703E+00 -1.69260848E+00  1.69007123E+00
  2.36666612E+00 -1.69264101E+00 -1.69005875E+00
Force Field                                I                0
Int Atom Types                             I   N=          11
           0           0           0           0           0           0
           0           0           0           0           0
MM charges                                 R   N=          11
  0.00000000E+00  0.00000000E+00  0.00000000E+00  0.00000000E+00  0.00000000E+00
  0.00000000E+00  0.00000000E+00  0.00000000E+00  0.00000000E+00  0.00000000E+00
  0.00000000E+00
Integer atomic weights                     I   N=          11
          14          12          12           1           1           1
           1           1           1           1           1
Real atomic weights                        R   N=          11
  1.40030740E+01  1.20000000E+01  1.20000000E+01  1.00782504E+00  1.00782504E+00
  1.00782504E+00  1.00782504E+00  1.00782504E+00  1.00782504E+00  1.00782504E+00
  1.00782504E+00
Atom fragment info                         I   N=          11
           0           0           0           0           0           0
           0           0           0           0           0
Atom residue num                           I   N=          11
           0           0           0           0           0           0
           0           0           0           0           0
Nuclear spins                              I   N=          11
           2           0           0           1           1           1
           1           1           1           1           1
Nuclear ZEff                               R   N=          11
 -4.55000000E+00 -3.60000000E+00 -3.60000000E+00 -1.00000000E+00 -1.00000000E+00
 -1.00000000E+00 -1.00000000E+00 -1.00000000E+00 -1.00000000E+00 -1.00000000E+00
 -1.00000000E+00
Nuclear QMom                               R   N=          11
  2.04400000E+00  0.00000000E+00  0.00000000E+00  0.00000000E+00  0.00000000E+00
  0.00000000E+00  0.00000000E+00  0.00000000E+00  0.00000000E+00  0.00000000E+00
  0.00000000E+00
Nuclear GFac                               R   N=          11
  4.03761000E-01  0.00000000E+00  0.00000000E+00  2.79284600E+00  2.79284600E+00
  2.79284600E+00  2.79284600E+00  2.79284600E+00  2.79284600E+00  2.79284600E+00
  2.79284600E+00
MicOpt                                     I   N=          11
          -1          -1          -1          -1          -1          -1
          -1          -1          -1          -1          -1
Number of contracted shells                I               28
Number of primitive shells                 I               65
Pure/Cartesian d shells                    I                1
Pure/Cartesian f shells                    I                0
Highest angular momentum                   I                2
Largest degree of contraction              I                6
Shell types                                I   N=          28
           0          -1          -1           2           0          -1
          -1           2           0          -1          -1           2
           0           0           0           0           0           0
           0           0           0           0           0           0
           0           0           0           0
Number of primitives per shell             I   N=          28
           6           3           1           1           6           3
           1           1           6           3           1           1
           3           1           3           1           3           1
           3           1           3           1           3           1
           3           1           3           1
Shell to atom map                          I   N=          28
           1           1           1           1           2           2
           2           2           3           3           3           3
           4           4           5           5           6           6
           7           7           8           8           9           9
          10          10          11          11
Primitive exponents                        R   N=          65
  4.17351146E+03  6.27457911E+02  1.42902093E+02  4.02343293E+01  1.28202129E+01
  4.39043701E+00  1.16263619E+01  2.71627981E+00  7.72218397E-01  2.12031498E-01
  8.00000000E-01  3.04752488E+03  4.57369518E+02  1.03948685E+02  2.92101553E+01
  9.28666296E+00  3.16392696E+00  7.86827235E+00  1.88128854E+00  5.44249258E-01
  1.68714478E-01  8.00000000E-01  3.04752488E+03  4.57369518E+02  1.03948685E+02
  2.92101553E+01  9.28666296E+00  3.16392696E+00  7.86827235E+00  1.88128854E+00
  5.44249258E-01  1.68714478E-01  8.00000000E-01  1.87311370E+01  2.82539436E+00
  6.40121692E-01  1.61277759E-01  1.87311370E+01  2.82539436E+00  6.40121692E-01
  1.61277759E-01  1.87311370E+01  2.82539436E+00  6.40121692E-01  1.61277759E-01
  1.87311370E+01  2.82539436E+00  6.40121692E-01  1.61277759E-01  1.87311370E+01
  2.82539436E+00  6.40121692E-01  1.61277759E-01  1.87311370E+01  2.82539436E+00
  6.40121692E-01  1.61277759E-01  1.87311370E+01  2.82539436E+00  6.40121692E-01
  1.61277759E-01  1.87311370E+01  2.82539436E+00  6.40121692E-01  1.61277759E-01
Contraction coefficients                   R   N=          65
  1.83477216E-03  1.39946270E-02  6.85865518E-02  2.32240873E-01  4.69069948E-01
  3.60455199E-01 -1.14961182E-01 -1.69117479E-01  1.14585195E+00  1.00000000E+00
  1.00000000E+00  1.83473713E-03  1.40373228E-02  6.88426223E-02  2.32184443E-01
  4.67941348E-01  3.62311985E-01 -1.19332420E-01 -1.60854152E-01  1.14345644E+00
  1.00000000E+00  1.00000000E+00  1.83473713E-03  1.40373228E-02  6.88426223E-02
  2.32184443E-01  4.67941348E-01  3.62311985E-01 -1.19332420E-01 -1.60854152E-01
  1.14345644E+00  1.00000000E+00  1.00000000E+00  3.34946043E-02  2.34726953E-01
  8.13757326E-01  1.00000000E+00  3.34946043E-02  2.34726953E-01  8.13757326E-01
  1.00000000E+00  3.34946043E-02  2.34726953E-01  8.13757326E-01  1.00000000E+00
  3.34946043E-02  2.34726953E-01  8.13757326E-01  1.00000000E+00  3.34946043E-02
  2.34726953E-01  8.13757326E-01  1.00000000E+00  3.34946043E-02  2.34726953E-01
  8.13757326E-01  1.00000000E+00  3.34946043E-02  2.34726953E-01  8.13757326E-01
  1.00000000E+00  3.34946043E-02  2.34726953E-01  8.13757326E-01  1.00000000E+00
P(S=P) Contraction coefficients            R   N=          65
  0.00000000E+00  0.00000000E+00  0.00000000E+00  0.00000000E+00  0.00000000E+00
  0.00000000E+00  6.75797439E-02  3.23907296E-01  7.40895140E-01  1.00000000E+00
  0.00000000E+00  0.00000000E+00  0.00000000E+00  0.00000000E+00  0.00000000E+00
  0.00000000E+00  0.00000000E+00  6.89990666E-02  3.16423961E-01  7.44308291E-01
  1.00000000E+00  0.00000000E+00  0.00000000E+00  0.00000000E+00  0.00000000E+00
  0.00000000E+00  0.00000000E+00  0.00000000E+00  6.89990666E-02  3.16423961E-01
  7.44308291E-01  1.00000000E+00  0.00000000E+00  0.00000000E+00  0.00000000E+00
  0.00000000E+00  0.00000000E+00  0.00000000E+00  0.00000000E+00  0.00000000E+00
  0.00000000E+00  0.00000000E+00  0.00000000E+00  0.00000000E+00  0.00000000E+00
  0.00000000E+00  0.00000000E+00  0.00000000E+00  0.00000000E+00  0.00000000E+00
  0.00000000E+00  0.00000000E+00  0.00000000E+00  0.00000000E+00  0.00000000E+00
  0.00000000E+00  0.00000000E+00  0.00000000E+00  0.00000000E+00  0.00000000E+00
  0.00000000E+00  0.00000000E+00  0.00000000E+00  0.00000000E+00  0.00000000E+00
Coordinates of each shell                  R   N=          84
  2.64697796E-23  1.02105054E+00 -1.27469531E-05  2.64697796E-23  1.02105054E+00
 -1.27469531E-05  2.64697796E-23  1.02105054E+00 -1.27469531E-05  2.64697796E-23
  1.02105054E+00 -1.27469531E-05 -2.36614057E+00 -5.22930876E-01  1.82213492E-05
 -2.36614057E+00 -5.22930876E-01  1.82213492E-05 -2.36614057E+00 -5.22930876E-01
  1.82213492E-05 -2.36614057E+00 -5.22930876E-01  1.82213492E-05  2.36614057E+00
 -5.22930880E-01 -4.99443829E-06  2.36614057E+00 -5.22930880E-01 -4.99443829E-06
  2.36614057E+00 -5.22930880E-01 -4.99443829E-06  2.36614057E+00 -5.22930880E-01
 -4.99443829E-06 -7.29883590E-06  2.19534193E+00 -1.54474776E+00 -7.29883590E-06
  2.19534193E+00 -1.54474776E+00  7.30503155E-06  2.19538090E+00  1.54469246E+00
  7.30503155E-06  2.19538090E+00  1.54469246E+00 -2.36668106E+00 -1.69264314E+00
 -1.69003416E+00 -2.36668106E+00 -1.69264314E+00 -1.69003416E+00 -2.36666180E+00
 -1.69260678E+00  1.69009581E+00 -2.36666180E+00 -1.69260678E+00  1.69009581E+00
 -3.97707716E+00  7.53796869E-01  1.34664384E-05 -3.97707716E+00  7.53796869E-01
  1.34664384E-05  3.97707716E+00  7.53796872E-01 -2.24328099E-05  3.97707716E+00
  7.53796872E-01 -2.24328099E-05  2.36667688E+00 -1.69260869E+00  1.69007123E+00
  2.36667688E+00 -1.69260869E+00  1.69007123E+00  2.36666597E+00 -1.69264122E+00
 -1.69005875E+00  2.36666597E+00 -1.69264122E+00 -1.69005875E+00
Constraint Structure                       R   N=          33
  2.64697796E-23  1.02105054E+00 -1.27469531E-05 -2.36614057E+00 -5.22930876E-01
  1.82213492E-05  2.36614057E+00 -5.22930880E-01 -4.99443829E-06 -7.29883590E-06
  2.19534193E+00 -1.54474776E+00  7.30503155E-06  2.19538090E+00  1.54469246E+00
 -2.36668106E+00 -1.69264314E+00 -1.69003416E+00 -2.36666180E+00 -1.69260678E+00
  1.69009581E+00 -3.97707716E+00  7.53796869E-01  1.34664384E-05  3.97707716E+00
  7.53796872E-01 -2.24328099E-05  2.36667688E+00 -1.69260869E+00  1.69007123E+00
  2.36666597E+00 -1.69264122E+00 -1.69005875E+00
Num ILSW                                   I              100
ILSW                                       I   N=         100
           0           1           0           0           2           0
           0           0           0           0           0          -1
           0           0           0           0           0           0
           0           0           0           0           1           0
           1           0           0           0           0           0
           0           0      100000           0          -1           0
           0           0           0           0           0           0
           0           0           0           1           1           0
           0           0           1           0           0           0
           0           0           4          40           0           0
           0           0           0           0           0           0
           0           0           0           0           0           0
           0           0           0           0           0           0
           0           0           0           0           0           0
           0           0           0           0           0           0
           0           0           0           0           0           0
           0           0           0           0
Num RLSW                                   I               40
RLSW                                       R   N=          40
  1.00000000E+00  1.00000000E+00  1.00000000E+00  1.00000000E+00  1.00000000E+00
  0.00000000E+00  0.00000000E+00  1.00000000E+00  0.00000000E+00  0.00000000E+00
  0.00000000E+00  0.00000000E+00  1.00000000E+00  0.00000000E+00  0.00000000E+00
  0.00000000E+00  0.00000000E+00  1.00000000E+00  0.00000000E+00  0.00000000E+00
  0.00000000E+00  0.00000000E+00  1.00000000E+00  0.00000000E+00  0.00000000E+00
  0.00000000E+00  0.00000000E+00  1.00000000E+00  0.00000000E+00  0.00000000E+00
  0.00000000E+00  0.00000000E+00  0.00000000E+00  0.00000000E+00  0.00000000E+00
  0.00000000E+00  0.00000000E+00  0.00000000E+00  1.00000000E+00  1.00000000E+00
MxBond                                     I                4
NBond                                      I   N=          11
           4           4           4           1           1           1
           1           1           1           1           1
IBond                                      I   N=          44
           2           3           4           5           1           6
           7           8           1           9          10          11
           1           0           0           0           1           0
           0           0           2           0           0           0
           2           0           0           0           2           0
           0           0           3           0           0           0
           3           0           0           0           3           0
           0           0
RBond                                      R   N=          44
  1.00000000E+00  1.00000000E+00  1.00000000E+00  1.00000000E+00  1.00000000E+00
  1.00000000E+00  1.00000000E+00  1.00000000E+00  1.00000000E+00  1.00000000E+00
  1.00000000E+00  1.00000000E+00  1.00000000E+00  0.00000000E+00  0.00000000E+00
  0.00000000E+00  1.00000000E+00  0.00000000E+00  0.00000000E+00  0.00000000E+00
  1.00000000E+00  0.00000000E+00  0.00000000E+00  0.00000000E+00  1.00000000E+00
  0.00000000E+00  0.00000000E+00  0.00000000E+00  1.00000000E+00  0.00000000E+00
  0.00000000E+00  0.00000000E+00  1.00000000E+00  0.00000000E+00  0.00000000E+00
  0.00000000E+00  1.00000000E+00  0.00000000E+00  0.00000000E+00  0.00000000E+00
  1.00000000E+00  0.00000000E+00  0.00000000E+00  0.00000000E+00
Virial Ratio                               R      2.002837791022324E+00
SCF Energy                                 R     -1.347083555605714E+02
MP2 Energy                                 R     -1.351324215296151E+02
Total Energy                               R     -1.351324215296151E+02
Post-SCF wavefunction norm                 R      1.504911163908583E+00
RMS Force                                  R      1.864914872544730E-06
RMS Density                                R      1.110735843646685E-09
External E-field                           R   N=          35
  0.00000000E+00  0.00000000E+00  0.00000000E+00  0.00000000E+00  0.00000000E+00
  0.00000000E+00  0.00000000E+00  0.00000000E+00  0.00000000E+00  0.00000000E+00
  0.00000000E+00  0.00000000E+00  0.00000000E+00  0.00000000E+00  0.00000000E+00
  0.00000000E+00  0.00000000E+00  0.00000000E+00  0.00000000E+00  0.00000000E+00
  0.00000000E+00  0.00000000E+00  0.00000000E+00  0.00000000E+00  0.00000000E+00
  0.00000000E+00  0.00000000E+00  0.00000000E+00  0.00000000E+00  0.00000000E+00
  0.00000000E+00  0.00000000E+00  0.00000000E+00  0.00000000E+00  0.00000000E+00
IOpCl                                      I                0
IROHF                                      I                0
Alpha Orbital Energies                     R   N=          61
 -1.57126788E+01 -1.12989874E+01 -1.12989701E+01 -1.33494384E+00 -1.01391117E+00
 -9.50742602E-01 -7.96937222E-01 -7.25069976E-01 -6.67009394E-01 -6.01251991E-01
 -5.87825622E-01 -5.79284093E-01 -5.74555142E-01  1.69597759E-01  2.42462457E-01
  2.52194193E-01  2.68468232E-01  2.72219336E-01  2.85787934E-01  3.05967304E-01
  3.17614866E-01  3.20922326E-01  3.56660437E-01  6.61887281E-01  6.89675648E-01
  7.10057156E-01  7.29861534E-01  7.45439728E-01  9.21122310E-01  9.27805510E-01
  9.69107615E-01  1.00657209E+00  1.09936758E+00  1.10144226E+00  1.13662935E+00
  1.14202188E+00  1.16090270E+00  1.18411315E+00  1.18530351E+00  1.20267816E+00
  1.20886640E+00  1.58130029E+00  1.61926643E+00  1.64718696E+00  1.91054707E+00
  2.02465563E+00  2.20619134E+00  2.22865947E+00  2.26489462E+00  2.30569158E+00
  2.37153296E+00  2.49020902E+00  2.52170449E+00  2.64048428E+00  2.67655017E+00
  2.70104220E+00  2.85696359E+00  2.97015364E+00  4.23269112E+00  4.61144601E+00
  4.66022117E+00
Alpha MO coefficients                      R   N=        3721
  9.95002113E-01  2.52295162E-02 -1.54267048E-12  7.23021796E-05 -9.39974538E-10
 -2.98544529E-03 -6.62182181E-13  3.58493741E-04 -4.62267114E-09 -3.47055632E-03
 -3.39382394E-03 -3.31664012E-03  6.09243307E-13  8.59422101E-10  1.19056840E-09
 -1.38608437E-05  9.95545756E-05  2.70074018E-04  1.55556748E-04 -3.26587236E-09
  1.26804170E-03  3.60386194E-04  2.52114937E-04 -4.88180940E-09 -2.46311929E-05
 -7.06465140E-05 -6.72257086E-05  2.32065915E-05 -5.28498897E-10 -6.74233939E-11
 -1.38608440E-05  9.95545730E-05 -2.70074018E-04  1.55556749E-04 -6.78972972E-10
  1.26804170E-03 -3.60386195E-04  2.52114940E-04 -9.14750451E-10 -2.46311914E-05
 -7.06465135E-05 -6.72257085E-05 -2.32065926E-05  3.13201963E-11  1.57611831E-10
  3.57335950E-04  3.61693110E-04  3.57335966E-04  3.61693224E-04 -7.58348449E-05
 -1.12876523E-04 -7.58348324E-05 -1.12876508E-04 -7.34338824E-05 -1.61658198E-04
 -7.34338826E-05 -1.61658200E-04 -7.58348343E-05 -1.12876811E-04 -7.58348431E-05
 -1.12876220E-04 -1.97655124E-09  3.61110550E-09  4.63477181E-05 -3.85359802E-10
 -1.93780981E-10  1.98813900E-08  1.24871175E-03 -1.31783052E-09 -6.27776424E-09
 -6.18876602E-09 -3.17059318E-09  6.56332837E-10  4.61038187E-04 -5.89069844E-09
 -2.21466127E-09 -7.04133329E-01 -2.01607215E-02 -6.78400980E-04 -2.53536816E-04
  6.70419004E-09  1.05986646E-02  1.20806324E-03 -3.25354885E-04 -3.28323643E-09
  1.32739036E-03  1.20753048E-03  1.18974368E-03  7.57690980E-05 -1.61812541E-09
 -7.67040501E-10  7.04145626E-01  2.01610644E-02 -6.78410665E-04  2.53543498E-04
 -2.91411375E-10 -1.05988137E-02  1.20806175E-03  3.25348797E-04 -7.30297672E-09
 -1.32741274E-03 -1.20755406E-03 -1.18976673E-03  7.57699368E-05  1.50332917E-10
  2.37353063E-10 -8.81510867E-10  2.41733341E-09 -9.55858324E-10  2.37432805E-09
 -2.01201743E-04 -2.08623228E-03 -2.01201576E-04 -2.08623321E-03 -4.36647265E-05
 -1.32442892E-03  4.36662220E-05  1.32446031E-03  2.01202351E-04  2.08625947E-03
  2.01201967E-04  2.08626030E-03 -2.26371945E-04  4.13675813E-04 -4.03389823E-10
 -4.39499719E-05  3.78134891E-10  2.27507703E-03 -1.08963497E-08 -1.50686572E-04
  2.94464254E-09 -7.08879007E-04 -3.63020862E-04  7.52206547E-05 -4.02727232E-09
  4.45238552E-09  6.39108637E-09  7.04055737E-01  1.96337496E-02  5.54599037E-04
  3.82390268E-04 -7.65628233E-09 -8.53562839E-03  8.62068728E-05 -3.47133389E-04
  4.61182295E-09 -1.28121159E-03 -1.35004042E-03 -1.32007182E-03 -4.78432211E-05
  2.97903648E-10  4.69143201E-10  7.04043438E-01  1.96333975E-02 -5.54587188E-04
  3.82385842E-04 -2.14293293E-09 -8.53544330E-03 -8.62279587E-05 -3.47139089E-04
  4.65468932E-09 -1.28118841E-03 -1.35001933E-03 -1.32005103E-03  4.78419009E-05
 -8.22676365E-10 -4.70024953E-11 -1.05138457E-04  2.74447751E-04 -1.05138882E-04
  2.74446811E-04  2.87227378E-05  1.55425069E-03  2.87226277E-05  1.55424878E-03
  8.55656656E-05  1.79665331E-03  8.55649044E-05  1.79663018E-03  2.87190731E-05
  1.55421287E-03  2.87192612E-05  1.55421372E-03 -1.88678327E-01  4.00991009E-01
 -3.27964202E-11 -1.40301904E-03  1.63290019E-08  4.09010121E-01  1.17658327E-10
 -7.43112129E-04 -5.61076534E-09  7.30474950E-03  1.06634588E-02  1.26875506E-02
  4.60615939E-11  2.50369720E-08  3.08195809E-08 -6.34901580E-02  1.16704817E-01
  6.49063861E-02  4.07694499E-02 -8.34253728E-07  5.25166038E-02 -6.32693969E-04
  1.87196962E-03 -1.73644558E-08  1.25886089E-02  4.18191488E-03 -2.30029478E-03
  1.11951639E-02 -2.25230140E-07 -1.48466533E-07 -6.34901579E-02  1.16704817E-01
 -6.49063858E-02  4.07694498E-02 -1.95728656E-07  5.25166038E-02  6.32693892E-04
  1.87196962E-03 -2.68660808E-08  1.25886088E-02  4.18191491E-03 -2.30029472E-03
 -1.11951638E-02  5.66286096E-08 -3.84465016E-08  1.04050919E-01 -1.04839732E-02
  1.04050930E-01 -1.04839715E-02  2.56802239E-02  2.28557209E-03  2.56802152E-02
  2.28557387E-03  2.45049415E-02  1.39031313E-03  2.45049416E-02  1.39031320E-03
  2.56802184E-02  2.28557515E-03  2.56802208E-02  2.28557079E-03 -9.12369684E-11
  2.91349228E-10 -2.26410467E-01 -4.89837322E-11  1.12670896E-06  1.37979377E-10
 -1.13360624E-01  3.03228496E-11  5.70848309E-07  2.83771601E-11 -1.67869237E-11
 -1.89528151E-12  1.70909821E-02 -2.13484018E-07 -8.04546326E-08 -1.36752961E-01
  2.59403150E-01  4.50556295E-04  2.26679280E-02 -3.07396613E-07  2.43027911E-01
 -4.06792539E-03 -5.58200069E-03  8.10174387E-08  4.32568661E-03  7.85650938E-03
  6.43842570E-03 -6.92098107E-04  1.47544829E-08 -1.67101157E-08  1.36752961E-01
 -2.59403150E-01  4.50556232E-04 -2.26679282E-02  2.98004640E-07 -2.43027911E-01
 -4.06792534E-03  5.58200033E-03 -4.62219999E-08 -4.32568650E-03 -7.85650936E-03
 -6.43842584E-03 -6.92098214E-04 -1.15137626E-08  1.91814796E-08 -1.68082322E-08
  2.30848348E-09  1.66274384E-08 -2.29112873E-09  8.60562579E-02  1.25345407E-02
  8.60562243E-02  1.25345077E-02  9.77909111E-02  1.97374700E-02 -9.77909113E-02
 -1.97374699E-02 -8.60562132E-02 -1.25345001E-02 -8.60562693E-02 -1.25345485E-02
 -6.71740381E-02  1.46296280E-01  3.59509360E-10  2.33930321E-01 -2.89462774E-06
  2.27743538E-01  1.97963676E-10  1.27723438E-01 -1.58990082E-06 -1.66521624E-02
  3.69310656E-03  1.93667091E-02  5.68436451E-11  1.99007767E-07  2.32192828E-07
  1.14337073E-01 -2.19730240E-01  2.41298603E-02  5.94778395E-02 -8.50070949E-07
 -2.33534674E-01  6.96170876E-03  1.59129311E-02 -2.01933946E-07 -1.00785075E-04
 -1.68966674E-03 -1.12866312E-02  9.81151099E-03 -1.88036926E-07 -1.73054425E-07
  1.14337073E-01 -2.19730240E-01 -2.41298600E-02  5.94778391E-02 -6.30972660E-07
 -2.33534674E-01 -6.96170858E-03  1.59129309E-02 -1.29929755E-07 -1.00784987E-04
 -1.68966666E-03 -1.12866314E-02 -9.81151102E-03  6.59036412E-08 -7.20506395E-08
  1.11445319E-01  1.18153312E-02  1.11445368E-01  1.18153344E-02 -9.79150717E-02
 -2.36412612E-02 -9.79151322E-02 -2.36413411E-02 -7.44394608E-02 -1.67535437E-02
 -7.44394607E-02 -1.67535436E-02 -9.79151565E-02 -2.36413553E-02 -9.79150473E-02
 -2.36412470E-02  4.66212497E-09  4.69285246E-09  2.17650746E-06  5.79610825E-06
  4.56567181E-01 -5.92129647E-08  1.44571275E-06  3.87977401E-06  3.02006471E-01
  3.96259204E-09  6.55269673E-07 -6.50915010E-07  1.40340541E-07  9.13253677E-11
  2.96578213E-02 -5.60792105E-09  6.93693742E-09  6.70233571E-07  1.76823575E-06
  1.40960092E-01  3.67537462E-08  2.53885524E-07  5.27607599E-07  4.40453102E-02
  8.74749920E-08 -2.96878789E-08 -5.89366611E-08  8.02798011E-08  8.83210030E-03
 -2.78382298E-03 -2.54976083E-08  5.62350808E-08  7.50498358E-07  1.72563097E-06
  1.40960093E-01  7.83130824E-08  1.85813184E-07  4.97388800E-07  4.40453108E-02
 -5.50845775E-08 -8.96764143E-09  6.95180982E-08 -8.29798743E-08 -8.83210032E-03
 -2.78382303E-03 -1.89088200E-01 -3.89919925E-02  1.89088213E-01  3.89919486E-02
 -5.91097239E-02 -2.81221010E-02  5.91095891E-02  2.81220110E-02  1.28755712E-07
  1.02951220E-07  2.54098367E-07  1.84264824E-07  5.91095757E-02  2.81219914E-02
 -5.91097382E-02 -2.81221206E-02  3.54866654E-02 -7.80216812E-02  2.93510680E-09
  3.71331116E-01 -4.72463744E-06 -1.56022712E-01  2.08091023E-09  2.64521712E-01
 -3.39074780E-06 -6.49039095E-03 -1.71596609E-04  1.54678160E-02 -4.03133293E-11
  1.22355629E-07  2.30653548E-07 -3.32390306E-02  6.02583600E-02 -2.43595927E-01
  3.58244889E-02  6.99477000E-07  1.45088009E-01 -6.99535328E-02  3.29010532E-02
 -7.31774708E-08 -1.04647601E-02  9.64059100E-03  4.25755448E-03 -2.08490549E-02
  3.14889716E-07  6.76514164E-08 -3.32390302E-02  6.02583594E-02  2.43595924E-01
  3.58244920E-02 -1.68022878E-06  1.45088007E-01  6.99535324E-02  3.29010542E-02
 -7.35267258E-07 -1.04647600E-02  9.64059105E-03  4.25755422E-03  2.08490547E-02
 -1.21468246E-07 -9.90558557E-08  9.34818645E-02  2.51927157E-02  9.34818342E-02
  2.51927401E-02  2.02174495E-02  8.87014510E-03  2.02171750E-02  8.86994813E-03
  1.47028146E-01  7.41340177E-02  1.47028145E-01  7.41340175E-02  2.02170647E-02
  8.86987699E-03  2.02175570E-02  8.87021510E-03 -2.49293296E-10  4.82231292E-10
  3.95125679E-01 -2.29458138E-09 -1.90217257E-06  1.25079574E-09  2.96140703E-01
 -1.66494000E-09 -1.43743947E-06 -7.39997160E-11  6.79224798E-11 -3.78110594E-11
 -8.36769652E-03  1.09462029E-07  3.91593705E-08 -2.52796663E-02  4.32084620E-02
 -1.15600646E-01 -2.57150561E-01  3.84486948E-06  1.47638831E-01 -1.26904692E-02
 -9.08747381E-02  1.20481976E-06 -1.67723720E-02 -3.38804504E-03  2.21036045E-02
 -1.64080496E-02  4.50364068E-07  3.95798479E-07  2.52796670E-02 -4.32084637E-02
 -1.15600649E-01  2.57150559E-01 -2.57533212E-06 -1.47638833E-01 -1.26904705E-02
  9.08747368E-02 -1.00582455E-06  1.67723721E-02  3.38804508E-03 -2.21036045E-02
 -1.64080500E-02  3.15382289E-08 -2.10562156E-07  9.38620547E-09 -6.98191260E-09
 -9.86288414E-09  6.79370343E-09  1.08935979E-01  6.04955768E-02  1.08936342E-01
  6.04958103E-02 -1.45939388E-02 -9.49221519E-03  1.45939363E-02  9.49221367E-03
 -1.08936366E-01 -6.04958316E-02 -1.08935955E-01 -6.04955552E-02  8.11864029E-09
 -2.76863982E-08  3.09535776E-07  1.92199712E-07  7.10217388E-09 -5.61618369E-09
  1.37522792E-07  1.09919230E-07  5.14217681E-09 -1.47972828E-07  5.59215688E-09
  1.39623481E-07 -2.15837866E-07 -1.48010499E-02  8.96549301E-10 -1.85606593E-09
  4.73322846E-08  1.22132077E-06  4.16926100E-06  3.34221128E-01 -8.92867308E-08
  6.28760162E-07  2.36968361E-06  1.85900512E-01  5.35445899E-08 -4.46510637E-07
  4.12318996E-07 -1.84753792E-07  2.42107796E-03 -2.51647841E-02  3.98992422E-09
 -3.68798352E-08 -2.11220563E-06 -4.62754029E-06 -3.34221143E-01  4.09235632E-08
 -1.22809102E-06 -2.58222591E-06 -1.85900520E-01 -7.47768514E-08  3.92799398E-07
 -3.30755033E-07  7.03354796E-09  2.42107797E-03  2.51647855E-02  6.54962587E-08
  4.50250440E-08  7.26402946E-08  4.91973289E-08 -1.69506402E-01 -1.06708972E-01
  1.69506044E-01  1.06708795E-01  5.67132694E-07  3.48973217E-07 -1.07918023E-06
 -6.93632081E-07 -1.69505733E-01 -1.06708556E-01  1.69506730E-01  1.06709222E-01
 -1.08992506E-02  2.83196209E-02 -3.14602918E-09 -2.62575260E-01  4.92085952E-06
  4.59309451E-02 -1.99646788E-09 -1.95097214E-01  3.65193760E-06  2.75304757E-02
 -1.46047336E-02 -1.54240786E-02  2.40777978E-10 -2.50156562E-07  2.17354322E-07
 -4.80156836E-03  1.00693661E-02 -4.94072807E-02  2.97982997E-01 -5.12541690E-06
 -4.34206349E-03 -5.38946683E-02  1.58099196E-01 -2.71186760E-06  2.36831538E-02
 -1.17980120E-03 -2.36558859E-02 -4.61608782E-03 -2.54566757E-07 -3.80797786E-08
 -4.80156795E-03  1.00693652E-02  4.94072903E-02  2.97983005E-01 -6.13056737E-06
 -4.34206374E-03  5.38946731E-02  1.58099200E-01 -3.52754043E-06  2.36831541E-02
 -1.17980080E-03 -2.36558865E-02  4.61608872E-03 -2.27223676E-07  2.82371338E-08
 -8.98612932E-02 -5.09158063E-02 -8.98596097E-02 -5.09146485E-02 -1.09707998E-01
 -8.07975338E-02 -1.09710410E-01 -8.07992698E-02  1.45191495E-01  9.44712885E-02
  1.45191503E-01  9.44712938E-02 -1.09710895E-01 -8.07995808E-02 -1.09707519E-01
 -8.07972263E-02 -8.28044825E-08  2.36467954E-07 -1.08363235E-06 -4.76677086E-06
 -2.38574355E-01  2.83015838E-07 -8.22777488E-07 -3.49099217E-06 -1.80098252E-01
  1.96003979E-07 -7.96806426E-07  6.00636921E-07 -1.65069260E-07 -4.76333327E-10
 -3.26028035E-02 -2.81634335E-08  3.59824203E-08  8.61911539E-07  5.81460009E-06
  2.87852301E-01  6.46461212E-08  4.11661322E-07  3.31074812E-06  1.68560631E-01
  1.94803316E-07 -5.46107465E-07  3.30597802E-07 -2.47879822E-07 -1.13436760E-03
 -2.82801101E-02 -3.10381253E-08  5.26183395E-08  1.59821375E-06  5.47006636E-06
  2.87852284E-01  2.53064371E-08  1.11716468E-06  3.16361685E-06  1.68560621E-01
  2.20063381E-07 -4.95526436E-07  2.61795434E-07 -1.77822019E-08  1.13436762E-03
 -2.82801086E-02  1.25456617E-01  7.87947391E-02 -1.25457808E-01 -7.87955017E-02
 -1.57625948E-01 -1.15578456E-01  1.57623951E-01  1.15576987E-01  1.47402734E-06
  9.96950545E-07  1.42702278E-06  9.03365203E-07  1.57623948E-01  1.15577007E-01
 -1.57625933E-01 -1.15578424E-01  3.15408931E-10 -6.98140574E-10 -2.22717319E-01
  5.46270096E-09  8.89104896E-07 -1.79533360E-09 -1.62301637E-01  4.52944670E-09
  6.22235780E-07 -4.66413699E-10  2.48668313E-10  2.92142122E-10  1.70591343E-02
 -2.28781616E-07 -1.02669765E-07 -4.34733490E-03  6.80280989E-03  2.80701457E-01
 -1.67184766E-01  1.47181224E-06 -7.81976865E-03  1.47320382E-01 -1.20645411E-01
  1.21536972E-06 -9.83800605E-03 -3.13461916E-03  1.12962838E-02  2.77249873E-02
 -1.68595831E-07 -8.30318618E-08  4.34733494E-03 -6.80281002E-03  2.80701456E-01
  1.67184756E-01 -3.81541634E-06  7.81976968E-03  1.47320380E-01  1.20645405E-01