
    -----------------------------------------------------------------------
          Psi4: An Open-Source Ab Initio Electronic Structure Package
                               Psi4 1.3.2 release

                         Git: Rev {HEAD} ecbda83 


    R. M. Parrish, L. A. Burns, D. G. A. Smith, A. C. Simmonett,
    A. E. DePrince III, E. G. Hohenstein, U. Bozkaya, A. Yu. Sokolov,
    R. Di Remigio, R. M. Richard, J. F. Gonthier, A. M. James,
    H. R. McAlexander, A. Kumar, M. Saitow, X. Wang, B. P. Pritchard,
    P. Verma, H. F. Schaefer III, K. Patkowski, R. A. King, E. F. Valeev,
    F. A. Evangelista, J. M. Turney, T. D. Crawford, and C. D. Sherrill,
    J. Chem. Theory Comput. 13(7) pp 3185--3197 (2017).
    (doi: 10.1021/acs.jctc.7b00174)


                         Additional Contributions by
    P. Kraus, H. Kruse, M. H. Lechner, M. C. Schieber, R. A. Shaw,
    A. Alenaizan, R. Galvelis, Z. L. Glick, S. Lehtola, and J. P. Misiewicz

    -----------------------------------------------------------------------


    Psi4 started on: Monday, 16 November 2020 11:11PM

    Process ID: 3238
    Host:       node142.bme.utexas.edu
    PSIDATADIR: /home/xy3866/psi4conda/share/psi4
    Memory:     500.0 MiB
    Threads:    8
    
  ==> Input File <==

--------------------------------------------------------------------------
#psi4
#
memory 32 gb

molecule  {
0 1
  O       -0.0768340     1.0301030     0.6945190
  O        0.0027630    -2.4368280    -0.0631460
  O       -1.8013270     1.3609940    -0.8558510
  O        2.7706710     0.8423760     0.1830720
  C       -0.4122165    -1.1040519    -0.3341006
  C        0.6336520    -0.1707830     0.3242940
  C       -1.6840130    -0.6458300     0.3680790
  C       -1.4616990     0.8497080     0.4211840
  C        1.7909010     0.1493410    -0.5832570
  H       -0.4628000    -0.8966240    -1.3943000
  H        1.0128680    -0.6537370     1.2378340
  H       -2.6003960    -0.9046920    -0.1672120
  H       -1.7107100    -1.0642920     1.3790340
  H       -2.0056690     1.3805330     1.2112860
  H        1.4142140     0.7608160    -1.4169540
  H        2.1823060    -0.7975400    -0.9866360
  H       -0.6472830    -3.0203740    -0.5025550
  H       -1.5565300     2.3068120    -0.8531920
  H        3.4888480     1.0945290    -0.4213450
units angstrom
no_reorient  #important for SAPT in psi4, default
symmetry c1  #important for SAPT in psi4, default
}

set PROPERTIES_ORIGIN ["COM"]
properties('MP2/aug-cc-pvtz', properties = ['dipole'])
--------------------------------------------------------------------------

  Memory set to  29.802 GiB by Python driver.
    SCF Algorithm Type (re)set to DF.

*** tstart() called on node142.bme.utexas.edu
*** at Mon Nov 16 23:11:18 2020

   => Loading Basis Set <=

    Name: AUG-CC-PVTZ
    Role: ORBITAL
    Keyword: BASIS
    atoms 1-4   entry O          line   327 file /home/xy3866/psi4conda/share/psi4/basis/aug-cc-pvtz.gbs 
    atoms 5-9   entry C          line   235 file /home/xy3866/psi4conda/share/psi4/basis/aug-cc-pvtz.gbs 
    atoms 10-19 entry H          line    36 file /home/xy3866/psi4conda/share/psi4/basis/aug-cc-pvtz.gbs 


         ---------------------------------------------------------
                                   SCF
               by Justin Turney, Rob Parrish, Andy Simmonett
                          and Daniel G. A. Smith
                              RHF Reference
                        8 Threads,  30517 MiB Core
         ---------------------------------------------------------

  ==> Geometry <==

    Molecular point group: c1
    Full point group: C1

    Geometry (in Angstrom), charge = 0, multiplicity = 1:

       Center              X                  Y                   Z               Mass       
    ------------   -----------------  -----------------  -----------------  -----------------
         O           -0.075545234956     1.031040905151     0.696286221804    15.994914619570
         O            0.004051765044    -2.435890094849    -0.061378778196    15.994914619570
         O           -1.800038234956     1.361931905151    -0.854083778196    15.994914619570
         O            2.771959765044     0.843313905151     0.184839221804    15.994914619570
         C           -0.410927734956    -1.103113994849    -0.332333378196    12.000000000000
         C            0.634940765044    -0.169845094849     0.326061221804    12.000000000000
         C           -1.682724234956    -0.644892094849     0.369846221804    12.000000000000
         C           -1.460410234956     0.850645905151     0.422951221804    12.000000000000
         C            1.792189765044     0.150278905151    -0.581489778196    12.000000000000
         H           -0.461511234956    -0.895686094849    -1.392532778196     1.007825032230
         H            1.014156765044    -0.652799094849     1.239601221804     1.007825032230
         H           -2.599107234956    -0.903754094849    -0.165444778196     1.007825032230
         H           -1.709421234956    -1.063354094849     1.380801221804     1.007825032230
         H           -2.004380234956     1.381470905151     1.213053221804     1.007825032230
         H            1.415502765044     0.761753905151    -1.415186778196     1.007825032230
         H            2.183594765044    -0.796602094849    -0.984868778196     1.007825032230
         H           -0.645994234956    -3.019436094849    -0.500787778196     1.007825032230
         H           -1.555241234956     2.307749905151    -0.851424778196     1.007825032230
         H            3.490136765044     1.095466905151    -0.419577778196     1.007825032230

  Running in c1 symmetry.

  Rotational constants: A =      0.06872  B =      0.04701  C =      0.03237 [cm^-1]
  Rotational constants: A =   2060.31519  B =   1409.37360  C =    970.38612 [MHz]
  Nuclear repulsion =  509.018534471240628

  Charge       = 0
  Multiplicity = 1
  Electrons    = 72
  Nalpha       = 36
  Nbeta        = 36

  ==> Algorithm <==

  SCF Algorithm Type is DF.
  DIIS enabled.
  MOM disabled.
  Fractional occupation disabled.
  Guess Type is SAD.
  Energy threshold   = 1.00e-10
  Density threshold  = 1.00e-10
  Integral threshold = 0.00e+00

  ==> Primary Basis <==

  Basis Set: AUG-CC-PVTZ
    Blend: AUG-CC-PVTZ
    Number of shells: 216
    Number of basis function: 644
    Number of Cartesian functions: 745
    Spherical Harmonics?: true
    Max angular momentum: 3

   => Loading Basis Set <=

    Name: (AUG-CC-PVTZ AUX)
    Role: JKFIT
    Keyword: DF_BASIS_SCF
    atoms 1-4   entry O          line   286 file /home/xy3866/psi4conda/share/psi4/basis/aug-cc-pvtz-jkfit.gbs 
    atoms 5-9   entry C          line   162 file /home/xy3866/psi4conda/share/psi4/basis/aug-cc-pvtz-jkfit.gbs 
    atoms 10-19 entry H          line    70 file /home/xy3866/psi4conda/share/psi4/basis/aug-cc-pvtz-jkfit.gbs 

  ==> Pre-Iterations <==

   -------------------------------------------------------
    Irrep   Nso     Nmo     Nalpha   Nbeta   Ndocc  Nsocc
   -------------------------------------------------------
     A        644     644       0       0       0       0
   -------------------------------------------------------
    Total     644     644      36      36      36       0
   -------------------------------------------------------

  ==> Integral Setup <==

  DFHelper Memory: AOs need 4.249 GiB; user supplied 22.352 GiB. Using in-core AOs.

  ==> MemDFJK: Density-Fitted J/K Matrices <==

    J tasked:                   Yes
    K tasked:                   Yes
    wK tasked:                   No
    OpenMP threads:               8
    Memory [MiB]:             22888
    Algorithm:                 Disk
    Schwarz Cutoff:           1E-12
    Mask sparsity (%):       4.3377
    Fitting Condition:        1E-10

   => Auxiliary Basis Set <=

  Basis Set: (AUG-CC-PVTZ AUX)
    Blend: AUG-CC-PVTZ-JKFIT
    Number of shells: 410
    Number of basis function: 1396
    Number of Cartesian functions: 1729
    Spherical Harmonics?: true
    Max angular momentum: 4

  Minimum eigenvalue in the overlap matrix is 1.9432087908E-06.
  Using Symmetric Orthogonalization.

  SCF Guess: Superposition of Atomic Densities via on-the-fly atomic UHF.

  ==> Iterations <==

                           Total Energy        Delta E     RMS |[F,P]|

   @DF-RHF iter SAD:  -494.12191260942456   -4.94122e+02   0.00000e+00 
   @DF-RHF iter   1:  -494.47250497057183   -3.50592e-01   1.21429e-03 DIIS
   @DF-RHF iter   2:  -494.71186379133076   -2.39359e-01   6.77247e-04 DIIS
   @DF-RHF iter   3:  -494.77697998534757   -6.51162e-02   1.10114e-04 DIIS
   @DF-RHF iter   4:  -494.78062255493285   -3.64257e-03   3.46249e-05 DIIS
   @DF-RHF iter   5:  -494.78091172432050   -2.89169e-04   8.99902e-06 DIIS
   @DF-RHF iter   6:  -494.78093813322118   -2.64089e-05   2.59648e-06 DIIS
   @DF-RHF iter   7:  -494.78094090261516   -2.76939e-06   8.76338e-07 DIIS
   @DF-RHF iter   8:  -494.78094117471437   -2.72099e-07   2.91407e-07 DIIS
   @DF-RHF iter   9:  -494.78094120797437   -3.32600e-08   8.59777e-08 DIIS
   @DF-RHF iter  10:  -494.78094121029142   -2.31705e-09   2.77499e-08 DIIS
   @DF-RHF iter  11:  -494.78094121055773   -2.66311e-10   6.37975e-09 DIIS
   @DF-RHF iter  12:  -494.78094121057114   -1.34150e-11   2.74606e-09 DIIS
   @DF-RHF iter  13:  -494.78094121057438   -3.24007e-12   7.76691e-10 DIIS
   @DF-RHF iter  14:  -494.78094121057393    4.54747e-13   1.93330e-10 DIIS
   @DF-RHF iter  15:  -494.78094121057569   -1.76215e-12   6.10373e-11 DIIS
  Energy and wave function converged.


  ==> Post-Iterations <==

    Orbital Energies [Eh]
    ---------------------

    Doubly Occupied:                                                      

       1A    -20.573269     2A    -20.569168     3A    -20.557743  
       4A    -20.557578     5A    -11.337098     6A    -11.288218  
       7A    -11.277266     8A    -11.274675     9A    -11.230240  
      10A     -1.414555    11A     -1.371225    12A     -1.356601  
      13A     -1.334633    14A     -1.061384    15A     -1.023452  
      16A     -0.896564    17A     -0.821093    18A     -0.794464  
      19A     -0.743630    20A     -0.700639    21A     -0.682968  
      22A     -0.674531    23A     -0.642186    24A     -0.628111  
      25A     -0.617502    26A     -0.573382    27A     -0.565511  
      28A     -0.557758    29A     -0.536673    30A     -0.519049  
      31A     -0.504559    32A     -0.485271    33A     -0.459938  
      34A     -0.447111    35A     -0.441448    36A     -0.430038  

    Virtual:                                                              

      37A      0.026713    38A      0.032520    39A      0.033601  
      40A      0.040461    41A      0.050713    42A      0.053161  
      43A      0.057020    44A      0.060034    45A      0.064200  
      46A      0.077914    47A      0.098836    48A      0.105353  
      49A      0.109002    50A      0.113577    51A      0.116180  
      52A      0.121009    53A      0.126383    54A      0.128059  
      55A      0.137130    56A      0.140089    57A      0.145125  
      58A      0.149506    59A      0.150097    60A      0.156527  
      61A      0.160053    62A      0.175561    63A      0.182093  
      64A      0.188049    65A      0.194105    66A      0.204641  
      67A      0.210534    68A      0.220019    69A      0.228069  
      70A      0.236329    71A      0.239171    72A      0.242471  
      73A      0.245588    74A      0.249252    75A      0.259269  
      76A      0.266152    77A      0.273323    78A      0.275103  
      79A      0.279000    80A      0.288235    81A      0.296310  
      82A      0.300870    83A      0.305577    84A      0.312044  
      85A      0.317245    86A      0.321613    87A      0.322208  
      88A      0.329772    89A      0.336910    90A      0.338793  
      91A      0.348960    92A      0.352218    93A      0.361973  
      94A      0.366198    95A      0.375337    96A      0.378072  
      97A      0.380660    98A      0.387020    99A      0.396442  
     100A      0.399541   101A      0.401938   102A      0.409568  
     103A      0.414925   104A      0.416898   105A      0.422537  
     106A      0.431921   107A      0.438939   108A      0.446027  
     109A      0.450864   110A      0.454530   111A      0.459565  
     112A      0.463716   113A      0.471888   114A      0.474583  
     115A      0.479669   116A      0.482005   117A      0.485457  
     118A      0.494117   119A      0.496674   120A      0.501041  
     121A      0.504537   122A      0.510469   123A      0.516931  
     124A      0.520946   125A      0.526352   126A      0.532545  
     127A      0.543622   128A      0.547019   129A      0.557731  
     130A      0.560007   131A      0.564082   132A      0.566758  
     133A      0.576382   134A      0.579321   135A      0.587775  
     136A      0.591374   137A      0.594698   138A      0.605969  
     139A      0.610899   140A      0.617784   141A      0.618954  
     142A      0.625695   143A      0.635377   144A      0.644120  
     145A      0.650705   146A      0.658141   147A      0.662040  
     148A      0.671453   149A      0.678232   150A      0.685328  
     151A      0.687154   152A      0.698441   153A      0.708010  
     154A      0.714529   155A      0.718369   156A      0.733774  
     157A      0.744584   158A      0.769352   159A      0.774044  
     160A      0.777620   161A      0.795414   162A      0.801682  
     163A      0.803313   164A      0.812858   165A      0.816491  
     166A      0.832553   167A      0.839821   168A      0.853390  
     169A      0.857037   170A      0.862377   171A      0.874903  
     172A      0.878107   173A      0.891859   174A      0.893742  
     175A      0.901448   176A      0.906030   177A      0.915566  
     178A      0.918958   179A      0.922564   180A      0.932641  
     181A      0.938687   182A      0.941477   183A      0.950081  
     184A      0.963072   185A      0.970210   186A      0.975163  
     187A      0.980152   188A      0.981887   189A      0.995169  
     190A      1.001415   191A      1.007680   192A      1.016382  
     193A      1.025218   194A      1.028590   195A      1.038836  
     196A      1.049744   197A      1.052969   198A      1.060445  
     199A      1.061566   200A      1.071331   201A      1.074291  
     202A      1.079095   203A      1.083696   204A      1.086959  
     205A      1.095528   206A      1.103236   207A      1.108162  
     208A      1.115908   209A      1.123978   210A      1.125722  
     211A      1.136342   212A      1.146607   213A      1.149343  
     214A      1.153894   215A      1.166046   216A      1.170551  
     217A      1.179404   218A      1.182711   219A      1.192633  
     220A      1.199618   221A      1.209267   222A      1.219918  
     223A      1.225317   224A      1.230321   225A      1.233365  
     226A      1.241029   227A      1.253514   228A      1.256499  
     229A      1.269364   230A      1.272377   231A      1.279461  
     232A      1.283717   233A      1.293166   234A      1.304246  
     235A      1.310312   236A      1.319765   237A      1.330400  
     238A      1.347746   239A      1.355468   240A      1.364215  
     241A      1.371758   242A      1.378850   243A      1.389988  
     244A      1.403765   245A      1.410069   246A      1.420910  
     247A      1.436098   248A      1.444122   249A      1.453906  
     250A      1.460387   251A      1.466215   252A      1.478917  
     253A      1.481263   254A      1.496085   255A      1.497161  
     256A      1.505402   257A      1.523837   258A      1.533208  
     259A      1.535612   260A      1.540064   261A      1.540349  
     262A      1.564935   263A      1.570627   264A      1.580698  
     265A      1.588946   266A      1.594933   267A      1.603493  
     268A      1.612619   269A      1.618793   270A      1.632563  
     271A      1.637030   272A      1.646228   273A      1.651807  
     274A      1.668139   275A      1.679082   276A      1.680655  
     277A      1.693883   278A      1.700729   279A      1.704550  
     280A      1.720904   281A      1.726371   282A      1.737826  
     283A      1.740277   284A      1.741702   285A      1.765144  
     286A      1.778936   287A      1.781285   288A      1.793713  
     289A      1.794589   290A      1.804480   291A      1.812691  
     292A      1.816778   293A      1.820730   294A      1.839090  
     295A      1.842761   296A      1.862538   297A      1.867562  
     298A      1.890056   299A      1.894560   300A      1.903390  
     301A      1.913352   302A      1.923474   303A      1.927656  
     304A      1.936185   305A      1.948261   306A      1.964282  
     307A      1.972538   308A      1.977011   309A      1.983021  
     310A      1.993165   311A      2.001796   312A      2.011553  
     313A      2.021939   314A      2.038380   315A      2.050375  
     316A      2.056290   317A      2.063318   318A      2.067574  
     319A      2.084805   320A      2.087040   321A      2.099214  
     322A      2.111577   323A      2.120504   324A      2.136820  
     325A      2.142617   326A      2.154429   327A      2.170339  
     328A      2.179276   329A      2.188878   330A      2.205598  
     331A      2.221568   332A      2.231138   333A      2.235420  
     334A      2.264510   335A      2.272492   336A      2.277801  
     337A      2.310778   338A      2.319461   339A      2.327331  
     340A      2.355091   341A      2.360547   342A      2.365996  
     343A      2.389552   344A      2.410141   345A      2.424307  
     346A      2.450201   347A      2.461974   348A      2.472470  
     349A      2.487224   350A      2.495129   351A      2.527249  
     352A      2.541776   353A      2.557384   354A      2.569946  
     355A      2.582607   356A      2.600658   357A      2.612628  
     358A      2.621730   359A      2.624696   360A      2.640125  
     361A      2.660976   362A      2.680378   363A      2.689045  
     364A      2.697565   365A      2.710308   366A      2.730220  
     367A      2.752340   368A      2.790931   369A      2.791750  
     370A      2.822406   371A      2.832375   372A      2.859761  
     373A      2.861445   374A      2.875879   375A      2.891258  
     376A      2.902435   377A      2.919538   378A      2.938486  
     379A      2.947273   380A      2.953579   381A      2.983297  
     382A      2.986598   383A      2.998015   384A      3.009929  
     385A      3.026857   386A      3.028111   387A      3.038956  
     388A      3.047415   389A      3.072003   390A      3.081676  
     391A      3.088422   392A      3.102868   393A      3.135782  
     394A      3.144415   395A      3.153033   396A      3.172069  
     397A      3.179389   398A      3.187149   399A      3.202869  
     400A      3.228652   401A      3.245362   402A      3.271831  
     403A      3.304038   404A      3.314735   405A      3.339630  
     406A      3.349875   407A      3.376630   408A      3.397129  
     409A      3.451852   410A      3.473756   411A      3.487691  
     412A      3.503168   413A      3.529901   414A      3.560176  
     415A      3.578119   416A      3.591633   417A      3.609239  
     418A      3.635009   419A      3.649929   420A      3.665034  
     421A      3.675712   422A      3.696232   423A      3.712759  
     424A      3.727911   425A      3.737987   426A      3.746076  
     427A      3.764708   428A      3.783404   429A      3.820403  
     430A      3.836321   431A      3.853969   432A      3.862509  
     433A      3.886223   434A      3.893755   435A      3.909439  
     436A      3.938097   437A      3.940419   438A      3.960858  
     439A      3.964039   440A      3.987788   441A      3.990197  
     442A      4.008291   443A      4.020097   444A      4.031032  
     445A      4.041703   446A      4.051633   447A      4.065271  
     448A      4.078110   449A      4.084527   450A      4.106310  
     451A      4.121548   452A      4.135575   453A      4.142196  
     454A      4.163598   455A      4.171814   456A      4.190426  
     457A      4.202403   458A      4.211645   459A      4.223571  
     460A      4.243123   461A      4.252236   462A      4.257111  
     463A      4.267217   464A      4.274871   465A      4.299061  
     466A      4.309469   467A      4.322392   468A      4.339068  
     469A      4.351940   470A      4.367122   471A      4.376478  
     472A      4.395528   473A      4.404142   474A      4.410069  
     475A      4.423230   476A      4.445501   477A      4.454038  
     478A      4.465371   479A      4.489587   480A      4.497903  
     481A      4.504637   482A      4.529049   483A      4.543680  
     484A      4.550163   485A      4.571155   486A      4.582481  
     487A      4.595637   488A      4.613400   489A      4.626495  
     490A      4.635769   491A      4.642348   492A      4.650611  
     493A      4.671014   494A      4.681909   495A      4.698932  
     496A      4.710393   497A      4.727223   498A      4.733231  
     499A      4.751125   500A      4.763607   501A      4.772900  
     502A      4.794654   503A      4.841539   504A      4.859575  
     505A      4.876281   506A      4.879499   507A      4.892399  
     508A      4.908685   509A      4.933697   510A      4.957359  
     511A      4.969452   512A      4.980506   513A      4.986207  
     514A      5.027672   515A      5.038469   516A      5.064612  
     517A      5.072133   518A      5.095404   519A      5.108554  
     520A      5.124962   521A      5.144739   522A      5.157746  
     523A      5.187938   524A      5.193630   525A      5.212533  
     526A      5.226356   527A      5.235888   528A      5.260150  
     529A      5.261227   530A      5.275461   531A      5.286868  
     532A      5.318893   533A      5.335878   534A      5.347079  
     535A      5.358640   536A      5.368090   537A      5.383021  
     538A      5.403391   539A      5.413397   540A      5.434703  
     541A      5.440272   542A      5.455222   543A      5.493636  
     544A      5.514920   545A      5.527773   546A      5.532988  
     547A      5.555596   548A      5.561501   549A      5.569595  
     550A      5.597105   551A      5.622526   552A      5.642513  
     553A      5.670098   554A      5.688439   555A      5.707503  
     556A      5.740239   557A      5.753919   558A      5.764168  
     559A      5.775243   560A      5.815052   561A      5.852602  
     562A      5.872311   563A      5.884726   564A      5.939468  
     565A      5.985955   566A      6.028585   567A      6.056368  
     568A      6.106110   569A      6.120764   570A      6.192462  
     571A      6.206508   572A      6.212635   573A      6.258736  
     574A      6.286945   575A      6.293633   576A      6.332651  
     577A      6.488723   578A      6.624407   579A      6.633509  
     580A      6.692693   581A      6.715332   582A      6.748583  
     583A      6.766538   584A      6.777249   585A      6.836490  
     586A      6.874974   587A      6.927609   588A      6.948677  
     589A      6.957437   590A      6.966001   591A      6.971253  
     592A      6.980399   593A      7.005710   594A      7.058420  
     595A      7.109780   596A      7.128453   597A      7.158886  
     598A      7.162614   599A      7.302833   600A      7.318820  
     601A      7.330674   602A      7.343976   603A      7.355905  
     604A      7.365633   605A      7.376914   606A      7.409958  
     607A      7.476210   608A      7.495412   609A      7.525904  
     610A      7.545468   611A      7.552000   612A      7.577092  
     613A      7.583056   614A      7.592453   615A      7.627207  
     616A      7.655653   617A      7.676133   618A      7.735624  
     619A      7.764102   620A      7.834476   621A      7.871535  
     622A      7.905249   623A      7.936116   624A      7.983196  
     625A      8.006829   626A      8.029521   627A      8.150100  
     628A      8.262466   629A      8.296745   630A      8.309412  
     631A      8.439461   632A      8.471354   633A      8.609432  
     634A      8.659182   635A      8.664213   636A     15.819348  
     637A     16.264390   638A     16.516240   639A     16.685608  
     640A     18.496365   641A     18.620060   642A     19.199399  
     643A     19.641802   644A     19.939784  

    Final Occupation by Irrep:
              A 
    DOCC [    36 ]

  @DF-RHF Final Energy:  -494.78094121057569

   => Energetics <=

    Nuclear Repulsion Energy =            509.0185344712406277
    One-Electron Energy =               -1689.6998893980853609
    Two-Electron Energy =                 685.9004137162689858
    Total Energy =                       -494.7809412105757474

Computation Completed

*** tstop() called on node142.bme.utexas.edu at Mon Nov 16 23:12:19 2020
Module time:
	user time   =     278.30 seconds =       4.64 minutes
	system time =      32.93 seconds =       0.55 minutes
	total time  =         61 seconds =       1.02 minutes
Total time:
	user time   =     278.30 seconds =       4.64 minutes
	system time =      32.93 seconds =       0.55 minutes
	total time  =         61 seconds =       1.02 minutes
   => Loading Basis Set <=

    Name: (AUG-CC-PVTZ AUX)
    Role: RIFIT
    Keyword: DF_BASIS_MP2
    atoms 1-4   entry O          line   264 file /home/xy3866/psi4conda/share/psi4/basis/aug-cc-pvtz-ri.gbs 
    atoms 5-9   entry C          line   148 file /home/xy3866/psi4conda/share/psi4/basis/aug-cc-pvtz-ri.gbs 
    atoms 10-19 entry H          line    30 file /home/xy3866/psi4conda/share/psi4/basis/aug-cc-pvtz-ri.gbs 


*** tstart() called on node142.bme.utexas.edu
*** at Mon Nov 16 23:12:20 2020


  //>>>>>>>>>>>>>>>>>>>>>>>>>>>>>>>>>>>//
  //               DFMP2               //
  //<<<<<<<<<<<<<<<<<<<<<<<<<<<<<<<<<<<//

	 --------------------------------------------------------
	                          DF-MP2                         
	      2nd-Order Density-Fitted Moller-Plesset Theory     
	              RMP2 Wavefunction,   8 Threads             
	                                                         
	        Rob Parrish, Justin Turney, Andy Simmonett,      
	           Ed Hohenstein, and C. David Sherrill          
	 --------------------------------------------------------

   => Auxiliary Basis Set <=

  Basis Set: (AUG-CC-PVTZ AUX)
    Blend: AUG-CC-PVTZ-RI
    Number of shells: 392
    Number of basis function: 1414
    Number of Cartesian functions: 1774
    Spherical Harmonics?: true
    Max angular momentum: 4

	 --------------------------------------------------------
	                 NBF =   644, NAUX =  1414
	 --------------------------------------------------------
	   CLASS    FOCC     OCC    AOCC    AVIR     VIR    FVIR
	   PAIRS       0      36      36     608     608       0
	 --------------------------------------------------------

  DFHelper Memory: AOs need 4.249 GiB; user supplied 22.352 GiB. Using in-core AOs.


         ------------------------------------------------------------
                                     CPHF                           
                                  Rob Parrish                       
         ------------------------------------------------------------

  ==> Geometry <==

    Molecular point group: c1
    Full point group: C1

    Geometry (in Angstrom), charge = 0, multiplicity = 1:

       Center              X                  Y                   Z               Mass       
    ------------   -----------------  -----------------  -----------------  -----------------
         O           -0.075545234956     1.031040905151     0.696286221804    15.994914619570
         O            0.004051765044    -2.435890094849    -0.061378778196    15.994914619570
         O           -1.800038234956     1.361931905151    -0.854083778196    15.994914619570
         O            2.771959765044     0.843313905151     0.184839221804    15.994914619570
         C           -0.410927734956    -1.103113994849    -0.332333378196    12.000000000000
         C            0.634940765044    -0.169845094849     0.326061221804    12.000000000000
         C           -1.682724234956    -0.644892094849     0.369846221804    12.000000000000
         C           -1.460410234956     0.850645905151     0.422951221804    12.000000000000
         C            1.792189765044     0.150278905151    -0.581489778196    12.000000000000
         H           -0.461511234956    -0.895686094849    -1.392532778196     1.007825032230
         H            1.014156765044    -0.652799094849     1.239601221804     1.007825032230
         H           -2.599107234956    -0.903754094849    -0.165444778196     1.007825032230
         H           -1.709421234956    -1.063354094849     1.380801221804     1.007825032230
         H           -2.004380234956     1.381470905151     1.213053221804     1.007825032230
         H            1.415502765044     0.761753905151    -1.415186778196     1.007825032230
         H            2.183594765044    -0.796602094849    -0.984868778196     1.007825032230
         H           -0.645994234956    -3.019436094849    -0.500787778196     1.007825032230
         H           -1.555241234956     2.307749905151    -0.851424778196     1.007825032230
         H            3.490136765044     1.095466905151    -0.419577778196     1.007825032230

  Nuclear repulsion =  509.018534471240628
  Reference energy  = -494.780941210575691

  ==> Basis Set <==

  Basis Set: AUG-CC-PVTZ
    Blend: AUG-CC-PVTZ
    Number of shells: 216
    Number of basis function: 644
    Number of Cartesian functions: 745
    Spherical Harmonics?: true
    Max angular momentum: 3

  ==> CGRSolver (by Rob Parrish) <==

   Number of roots    =         1
   Preconditioning    =    JACOBI
   Convergence cutoff =     1E-06
   Maximum iterations =       100

  ==> CPHFRHamiltonian (by Rob Parrish) <== 

  ==> MemDFJK: Density-Fitted J/K Matrices <==

    J tasked:                   Yes
    K tasked:                   Yes
    wK tasked:                   No
    OpenMP threads:               8
    Memory [MiB]:             22888
    Algorithm:                 Disk
    Schwarz Cutoff:           1E-12
    Mask sparsity (%):       4.3377
    Fitting Condition:        1E-10

   => Auxiliary Basis Set <=

  Basis Set: (AUG-CC-PVTZ AUX)
    Blend: AUG-CC-PVTZ-JKFIT
    Number of shells: 410
    Number of basis function: 1396
    Number of Cartesian functions: 1729
    Spherical Harmonics?: true
    Max angular momentum: 4

  ==> CPHF Iterations <==

  => Iterations <=

             Iter  Converged  Remaining    Residual
  CGR           1          0          1   8.203E-02
  CGR           2          0          1   1.866E-02
  CGR           3          0          1   7.280E-03
  CGR           4          0          1   2.014E-03
  CGR           5          0          1   6.190E-04
  CGR           6          0          1   1.927E-04
  CGR           7          0          1   5.414E-05
  CGR           8          0          1   1.654E-05
  CGR           9          0          1   5.512E-06
  CGR          10          0          1   1.466E-06
  CGR          11          1          0   5.788E-07

    CGRSolver converged.

	-----------------------------------------------------------
	 ==================> DF-MP2 Energies <==================== 
	-----------------------------------------------------------
	 Reference Energy          =    -494.7809412105756905 [Eh]
	 Singles Energy            =      -0.0000000000000000 [Eh]
	 Same-Spin Energy          =      -0.4828216574010318 [Eh]
	 Opposite-Spin Energy      =      -1.5130717529178885 [Eh]
	 Correlation Energy        =      -1.9958934103189203 [Eh]
	 Total Energy              =    -496.7768346208945900 [Eh]
	-----------------------------------------------------------
	 ================> DF-SCS-MP2 Energies <================== 
	-----------------------------------------------------------
	 SCS Same-Spin Scale       =       0.3333333333333333 [-]
	 SCS Opposite-Spin Scale   =       1.2000000000000000 [-]
	 SCS Same-Spin Energy      =      -0.1609405524670106 [Eh]
	 SCS Opposite-Spin Energy  =      -1.8156861035014662 [Eh]
	 SCS Correlation Energy    =      -1.9766266559684769 [Eh]
	 SCS Total Energy          =    -496.7575678665441501 [Eh]
	-----------------------------------------------------------



Properties will be evaluated at  -0.000000,   0.000000,  -0.000000 [a0]

Properties computed using the MP2 density matrix

  Nuclear Dipole Moment: [e a0]
     X:    -0.8134      Y:    -1.6697      Z:    -1.7780

  Electronic Dipole Moment: [e a0]
     X:     0.3531      Y:     1.4704      Z:     1.0381

  Dipole Moment: [e a0]
     X:    -0.4603      Y:    -0.1993      Z:    -0.7399     Total:     0.8939

  Dipole Moment: [D]
     X:    -1.1700      Y:    -0.5065      Z:    -1.8806     Total:     2.2720


*** tstop() called on node142.bme.utexas.edu at Mon Nov 16 23:14:48 2020
Module time:
	user time   =     888.00 seconds =      14.80 minutes
	system time =      39.05 seconds =       0.65 minutes
	total time  =        148 seconds =       2.47 minutes
Total time:
	user time   =    1166.47 seconds =      19.44 minutes
	system time =      71.99 seconds =       1.20 minutes
	total time  =        210 seconds =       3.50 minutes

    Psi4 stopped on: Monday, 16 November 2020 11:14PM
    Psi4 wall time for execution: 0:03:29.42

*** Psi4 exiting successfully. Buy a developer a beer!
