
    -----------------------------------------------------------------------
          Psi4: An Open-Source Ab Initio Electronic Structure Package
                               Psi4 1.3.2 release

                         Git: Rev {HEAD} ecbda83 


    R. M. Parrish, L. A. Burns, D. G. A. Smith, A. C. Simmonett,
    A. E. DePrince III, E. G. Hohenstein, U. Bozkaya, A. Yu. Sokolov,
    R. Di Remigio, R. M. Richard, J. F. Gonthier, A. M. James,
    H. R. McAlexander, A. Kumar, M. Saitow, X. Wang, B. P. Pritchard,
    P. Verma, H. F. Schaefer III, K. Patkowski, R. A. King, E. F. Valeev,
    F. A. Evangelista, J. M. Turney, T. D. Crawford, and C. D. Sherrill,
    J. Chem. Theory Comput. 13(7) pp 3185--3197 (2017).
    (doi: 10.1021/acs.jctc.7b00174)


                         Additional Contributions by
    P. Kraus, H. Kruse, M. H. Lechner, M. C. Schieber, R. A. Shaw,
    A. Alenaizan, R. Galvelis, Z. L. Glick, S. Lehtola, and J. P. Misiewicz

    -----------------------------------------------------------------------


    Psi4 started on: Monday, 16 November 2020 10:22PM

    Process ID: 1013
    Host:       node142.bme.utexas.edu
    PSIDATADIR: /home/xy3866/psi4conda/share/psi4
    Memory:     500.0 MiB
    Threads:    8
    
  ==> Input File <==

--------------------------------------------------------------------------
#psi4
#
memory 32 gb

molecule  {
0 1
  O       -0.0768340     1.0301030     0.6945190
  O        0.0027630    -2.4368280    -0.0631460
  O       -1.8228497     1.2684648    -0.8833435
  O        2.7706710     0.8423760     0.1830720
  C       -0.3978190    -1.0935740    -0.3143580
  C        0.6336520    -0.1707830     0.3242940
  C       -1.6840130    -0.6458300     0.3680790
  C       -1.4616990     0.8497080     0.4211840
  C        1.7909010     0.1493410    -0.5832570
  H       -0.4628000    -0.8966240    -1.3943000
  H        1.0128680    -0.6537370     1.2378340
  H       -2.6003960    -0.9046920    -0.1672120
  H       -1.7107100    -1.0642920     1.3790340
  H       -2.0056690     1.3805330     1.2112860
  H        1.4142140     0.7608160    -1.4169540
  H        2.1823060    -0.7975400    -0.9866360
  H       -0.6472830    -3.0203740    -0.5025550
  H       -1.5565300     2.3068120    -0.8531920
  H        3.4888480     1.0945290    -0.4213450
units angstrom
no_reorient  #important for SAPT in psi4, default
symmetry c1  #important for SAPT in psi4, default
}

set PROPERTIES_ORIGIN ["COM"]
properties('MP2/aug-cc-pvtz', properties = ['dipole'])
--------------------------------------------------------------------------

  Memory set to  29.802 GiB by Python driver.
    SCF Algorithm Type (re)set to DF.

*** tstart() called on node142.bme.utexas.edu
*** at Mon Nov 16 22:22:11 2020

   => Loading Basis Set <=

    Name: AUG-CC-PVTZ
    Role: ORBITAL
    Keyword: BASIS
    atoms 1-4   entry O          line   327 file /home/xy3866/psi4conda/share/psi4/basis/aug-cc-pvtz.gbs 
    atoms 5-9   entry C          line   235 file /home/xy3866/psi4conda/share/psi4/basis/aug-cc-pvtz.gbs 
    atoms 10-19 entry H          line    36 file /home/xy3866/psi4conda/share/psi4/basis/aug-cc-pvtz.gbs 


         ---------------------------------------------------------
                                   SCF
               by Justin Turney, Rob Parrish, Andy Simmonett
                          and Daniel G. A. Smith
                              RHF Reference
                        8 Threads,  30517 MiB Core
         ---------------------------------------------------------

  ==> Geometry <==

    Molecular point group: c1
    Full point group: C1

    Geometry (in Angstrom), charge = 0, multiplicity = 1:

       Center              X                  Y                   Z               Mass       
    ------------   -----------------  -----------------  -----------------  -----------------
         O           -0.074266058290     1.041142971235     0.697799217136    15.994914619570
         O            0.005330941710    -2.425788028765    -0.059865782864    15.994914619570
         O           -1.820281758290     1.279504771235    -0.880063282864    15.994914619570
         O            2.773238941710     0.853415971235     0.186352217136    15.994914619570
         C           -0.395251058290    -1.082534028765    -0.311077782864    12.000000000000
         C            0.636219941710    -0.159743028765     0.327574217136    12.000000000000
         C           -1.681445058290    -0.634790028765     0.371359217136    12.000000000000
         C           -1.459131058290     0.860747971235     0.424464217136    12.000000000000
         C            1.793468941710     0.160380971235    -0.579976782864    12.000000000000
         H           -0.460232058290    -0.885584028765    -1.391019782864     1.007825032230
         H            1.015435941710    -0.642697028765     1.241114217136     1.007825032230
         H           -2.597828058290    -0.893652028765    -0.163931782864     1.007825032230
         H           -1.708142058290    -1.053252028765     1.382314217136     1.007825032230
         H           -2.003101058290     1.391572971235     1.214566217136     1.007825032230
         H            1.416781941710     0.771855971235    -1.413673782864     1.007825032230
         H            2.184873941710    -0.786500028765    -0.983355782864     1.007825032230
         H           -0.644715058290    -3.009334028765    -0.499274782864     1.007825032230
         H           -1.553962058290     2.317851971235    -0.849911782864     1.007825032230
         H            3.491415941710     1.105568971235    -0.418064782864     1.007825032230

  Running in c1 symmetry.

  Rotational constants: A =      0.06980  B =      0.04676  C =      0.03256 [cm^-1]
  Rotational constants: A =   2092.58660  B =   1401.94570  C =    976.10433 [MHz]
  Nuclear repulsion =  509.585741560277143

  Charge       = 0
  Multiplicity = 1
  Electrons    = 72
  Nalpha       = 36
  Nbeta        = 36

  ==> Algorithm <==

  SCF Algorithm Type is DF.
  DIIS enabled.
  MOM disabled.
  Fractional occupation disabled.
  Guess Type is SAD.
  Energy threshold   = 1.00e-10
  Density threshold  = 1.00e-10
  Integral threshold = 0.00e+00

  ==> Primary Basis <==

  Basis Set: AUG-CC-PVTZ
    Blend: AUG-CC-PVTZ
    Number of shells: 216
    Number of basis function: 644
    Number of Cartesian functions: 745
    Spherical Harmonics?: true
    Max angular momentum: 3

   => Loading Basis Set <=

    Name: (AUG-CC-PVTZ AUX)
    Role: JKFIT
    Keyword: DF_BASIS_SCF
    atoms 1-4   entry O          line   286 file /home/xy3866/psi4conda/share/psi4/basis/aug-cc-pvtz-jkfit.gbs 
    atoms 5-9   entry C          line   162 file /home/xy3866/psi4conda/share/psi4/basis/aug-cc-pvtz-jkfit.gbs 
    atoms 10-19 entry H          line    70 file /home/xy3866/psi4conda/share/psi4/basis/aug-cc-pvtz-jkfit.gbs 

  ==> Pre-Iterations <==

   -------------------------------------------------------
    Irrep   Nso     Nmo     Nalpha   Nbeta   Ndocc  Nsocc
   -------------------------------------------------------
     A        644     644       0       0       0       0
   -------------------------------------------------------
    Total     644     644      36      36      36       0
   -------------------------------------------------------

  ==> Integral Setup <==

  DFHelper Memory: AOs need 4.250 GiB; user supplied 22.352 GiB. Using in-core AOs.

  ==> MemDFJK: Density-Fitted J/K Matrices <==

    J tasked:                   Yes
    K tasked:                   Yes
    wK tasked:                   No
    OpenMP threads:               8
    Memory [MiB]:             22888
    Algorithm:                 Disk
    Schwarz Cutoff:           1E-12
    Mask sparsity (%):       4.3213
    Fitting Condition:        1E-10

   => Auxiliary Basis Set <=

  Basis Set: (AUG-CC-PVTZ AUX)
    Blend: AUG-CC-PVTZ-JKFIT
    Number of shells: 410
    Number of basis function: 1396
    Number of Cartesian functions: 1729
    Spherical Harmonics?: true
    Max angular momentum: 4

  Minimum eigenvalue in the overlap matrix is 1.9139775114E-06.
  Using Symmetric Orthogonalization.

  SCF Guess: Superposition of Atomic Densities via on-the-fly atomic UHF.

  ==> Iterations <==

                           Total Energy        Delta E     RMS |[F,P]|

   @DF-RHF iter SAD:  -494.10878696589936   -4.94109e+02   0.00000e+00 
   @DF-RHF iter   1:  -494.45081475115916   -3.42028e-01   1.21704e-03 DIIS
   @DF-RHF iter   2:  -494.69269536805052   -2.41881e-01   6.92118e-04 DIIS
   @DF-RHF iter   3:  -494.76130457342663   -6.86092e-02   1.11406e-04 DIIS
   @DF-RHF iter   4:  -494.76510777752719   -3.80320e-03   3.61413e-05 DIIS
   @DF-RHF iter   5:  -494.76542400737623   -3.16230e-04   9.45534e-06 DIIS
   @DF-RHF iter   6:  -494.76545474523988   -3.07379e-05   2.81123e-06 DIIS
   @DF-RHF iter   7:  -494.76545826746735   -3.52223e-06   9.51277e-07 DIIS
   @DF-RHF iter   8:  -494.76545859781982   -3.30352e-07   3.36700e-07 DIIS
   @DF-RHF iter   9:  -494.76545863882745   -4.10076e-08   1.01423e-07 DIIS
   @DF-RHF iter  10:  -494.76545864205730   -3.22984e-09   3.21103e-08 DIIS
   @DF-RHF iter  11:  -494.76545864244628   -3.88980e-10   7.46234e-09 DIIS
   @DF-RHF iter  12:  -494.76545864247362   -2.73417e-11   2.81189e-09 DIIS
   @DF-RHF iter  13:  -494.76545864247896   -5.34328e-12   1.07576e-09 DIIS
   @DF-RHF iter  14:  -494.76545864247635    2.61480e-12   3.15445e-10 DIIS
   @DF-RHF iter  15:  -494.76545864247879   -2.44427e-12   1.05655e-10 DIIS
   @DF-RHF iter  16:  -494.76545864247691    1.87583e-12   4.18768e-11 DIIS
  Energy and wave function converged.


  ==> Post-Iterations <==

    Orbital Energies [Eh]
    ---------------------

    Doubly Occupied:                                                      

       1A    -20.580823     2A    -20.571091     3A    -20.559925  
       4A    -20.558005     5A    -11.336385     6A    -11.287439  
       7A    -11.276941     8A    -11.275189     9A    -11.226923  
      10A     -1.412038    11A     -1.367874    12A     -1.356207  
      13A     -1.328830    14A     -1.061244    15A     -1.022551  
      16A     -0.894897    17A     -0.819031    18A     -0.792487  
      19A     -0.735392    20A     -0.699098    21A     -0.675834  
      22A     -0.674254    23A     -0.642847    24A     -0.628054  
      25A     -0.613533    26A     -0.573285    27A     -0.563526  
      28A     -0.555551    29A     -0.530078    30A     -0.521742  
      31A     -0.504868    32A     -0.483688    33A     -0.461225  
      34A     -0.447586    35A     -0.442028    36A     -0.429385  

    Virtual:                                                              

      37A      0.026911    38A      0.032526    39A      0.033091  
      40A      0.040463    41A      0.050764    42A      0.053023  
      43A      0.057091    44A      0.060351    45A      0.064302  
      46A      0.077845    47A      0.098298    48A      0.105716  
      49A      0.108888    50A      0.112003    51A      0.116032  
      52A      0.120850    53A      0.126528    54A      0.128241  
      55A      0.137534    56A      0.139912    57A      0.145064  
      58A      0.148755    59A      0.150032    60A      0.156267  
      61A      0.159963    62A      0.175608    63A      0.181869  
      64A      0.188217    65A      0.193842    66A      0.204527  
      67A      0.209389    68A      0.220344    69A      0.228297  
      70A      0.234625    71A      0.239671    72A      0.241937  
      73A      0.245730    74A      0.248215    75A      0.259623  
      76A      0.266670    77A      0.272742    78A      0.274336  
      79A      0.279998    80A      0.288409    81A      0.296156  
      82A      0.300719    83A      0.306443    84A      0.312803  
      85A      0.316117    86A      0.320563    87A      0.321626  
      88A      0.330182    89A      0.336110    90A      0.338805  
      91A      0.347328    92A      0.348820    93A      0.362324  
      94A      0.366363    95A      0.374157    96A      0.376694  
      97A      0.380761    98A      0.387474    99A      0.397087  
     100A      0.399163   101A      0.401318   102A      0.410204  
     103A      0.413250   104A      0.417351   105A      0.423152  
     106A      0.431627   107A      0.436968   108A      0.444010  
     109A      0.447630   110A      0.453868   111A      0.457052  
     112A      0.463686   113A      0.467531   114A      0.475158  
     115A      0.480403   116A      0.483398   117A      0.486677  
     118A      0.494253   119A      0.496859   120A      0.503075  
     121A      0.506208   122A      0.509533   123A      0.517355  
     124A      0.522073   125A      0.525239   126A      0.531836  
     127A      0.544178   128A      0.548465   129A      0.555458  
     130A      0.561051   131A      0.564283   132A      0.565708  
     133A      0.577394   134A      0.579196   135A      0.587935  
     136A      0.589717   137A      0.594989   138A      0.605882  
     139A      0.609561   140A      0.616514   141A      0.619066  
     142A      0.625266   143A      0.634456   144A      0.643559  
     145A      0.652895   146A      0.661562   147A      0.663513  
     148A      0.671395   149A      0.677048   150A      0.683992  
     151A      0.687634   152A      0.698715   153A      0.709454  
     154A      0.713790   155A      0.719301   156A      0.733769  
     157A      0.747468   158A      0.769447   159A      0.774862  
     160A      0.775426   161A      0.791856   162A      0.801754  
     163A      0.803346   164A      0.808002   165A      0.817047  
     166A      0.832086   167A      0.837240   168A      0.855115  
     169A      0.858949   170A      0.862873   171A      0.877452  
     172A      0.878721   173A      0.892091   174A      0.893499  
     175A      0.902948   176A      0.907605   177A      0.915352  
     178A      0.920545   179A      0.923118   180A      0.933899  
     181A      0.939046   182A      0.942355   183A      0.948966  
     184A      0.961985   185A      0.969006   186A      0.975388  
     187A      0.980106   188A      0.982300   189A      0.995884  
     190A      1.000854   191A      1.007553   192A      1.016051  
     193A      1.025583   194A      1.028355   195A      1.039589  
     196A      1.050549   197A      1.053066   198A      1.060011  
     199A      1.062974   200A      1.067462   201A      1.075517  
     202A      1.079612   203A      1.084447   204A      1.087417  
     205A      1.096681   206A      1.101079   207A      1.106906  
     208A      1.119233   209A      1.122978   210A      1.125454  
     211A      1.137885   212A      1.146939   213A      1.149630  
     214A      1.155069   215A      1.166993   216A      1.169360  
     217A      1.174347   218A      1.184457   219A      1.193474  
     220A      1.197103   221A      1.208577   222A      1.217095  
     223A      1.225557   224A      1.230993   225A      1.234697  
     226A      1.240045   227A      1.253754   228A      1.256374  
     229A      1.267445   230A      1.269657   231A      1.281466  
     232A      1.281986   233A      1.296245   234A      1.302431  
     235A      1.310679   236A      1.319473   237A      1.334096  
     238A      1.348855   239A      1.356608   240A      1.363688  
     241A      1.371215   242A      1.377568   243A      1.391246  
     244A      1.403496   245A      1.407935   246A      1.420198  
     247A      1.436870   248A      1.447365   249A      1.453279  
     250A      1.461851   251A      1.466066   252A      1.479547  
     253A      1.483386   254A      1.494162   255A      1.496146  
     256A      1.508098   257A      1.519327   258A      1.532776  
     259A      1.536411   260A      1.540751   261A      1.545431  
     262A      1.566277   263A      1.570425   264A      1.582318  
     265A      1.593130   266A      1.593607   267A      1.607267  
     268A      1.612042   269A      1.617454   270A      1.629050  
     271A      1.638646   272A      1.642279   273A      1.654584  
     274A      1.664472   275A      1.676429   276A      1.680767  
     277A      1.696104   278A      1.701824   279A      1.706705  
     280A      1.720294   281A      1.729427   282A      1.735946  
     283A      1.738817   284A      1.743564   285A      1.759494  
     286A      1.778275   287A      1.780864   288A      1.790729  
     289A      1.795366   290A      1.802596   291A      1.811018  
     292A      1.816590   293A      1.821777   294A      1.837584  
     295A      1.845225   296A      1.857495   297A      1.869148  
     298A      1.890108   299A      1.893535   300A      1.898018  
     301A      1.913205   302A      1.923851   303A      1.928769  
     304A      1.932926   305A      1.949727   306A      1.963330  
     307A      1.965351   308A      1.978485   309A      1.985177  
     310A      1.991919   311A      1.993374   312A      2.007188  
     313A      2.020371   314A      2.037894   315A      2.049004  
     316A      2.061503   317A      2.065862   318A      2.068683  
     319A      2.087020   320A      2.090278   321A      2.092690  
     322A      2.106426   323A      2.119379   324A      2.133223  
     325A      2.140745   326A      2.151013   327A      2.169122  
     328A      2.176470   329A      2.185803   330A      2.199072  
     331A      2.219012   332A      2.233917   333A      2.236753  
     334A      2.262152   335A      2.271827   336A      2.273055  
     337A      2.311380   338A      2.319254   339A      2.327894  
     340A      2.355706   341A      2.359389   342A      2.363883  
     343A      2.390716   344A      2.411216   345A      2.427702  
     346A      2.445758   347A      2.467009   348A      2.471008  
     349A      2.488148   350A      2.499627   351A      2.524678  
     352A      2.552591   353A      2.567064   354A      2.568262  
     355A      2.583666   356A      2.601655   357A      2.610343  
     358A      2.617775   359A      2.624566   360A      2.644895  
     361A      2.662510   362A      2.674709   363A      2.683357  
     364A      2.693890   365A      2.712680   366A      2.733840  
     367A      2.750547   368A      2.779550   369A      2.797383  
     370A      2.823437   371A      2.835623   372A      2.859076  
     373A      2.865098   374A      2.876269   375A      2.892072  
     376A      2.908524   377A      2.917682   378A      2.936312  
     379A      2.949083   380A      2.955262   381A      2.978496  
     382A      2.993187   383A      2.996020   384A      3.015046  
     385A      3.020670   386A      3.036921   387A      3.045965  
     388A      3.054736   389A      3.068256   390A      3.084321  
     391A      3.087277   392A      3.107561   393A      3.129170  
     394A      3.137180   395A      3.152420   396A      3.174226  
     397A      3.178767   398A      3.188123   399A      3.210021  
     400A      3.247562   401A      3.265927   402A      3.269984  
     403A      3.308009   404A      3.317948   405A      3.347806  
     406A      3.364459   407A      3.373056   408A      3.403620  
     409A      3.456654   410A      3.476911   411A      3.489120  
     412A      3.503243   413A      3.528732   414A      3.572052  
     415A      3.587952   416A      3.596955   417A      3.610738  
     418A      3.636850   419A      3.647833   420A      3.661975  
     421A      3.689465   422A      3.692922   423A      3.709109  
     424A      3.732551   425A      3.740516   426A      3.746652  
     427A      3.762162   428A      3.788484   429A      3.826278  
     430A      3.828519   431A      3.854413   432A      3.864492  
     433A      3.882444   434A      3.895761   435A      3.900953  
     436A      3.930226   437A      3.943422   438A      3.952443  
     439A      3.962651   440A      3.964684   441A      3.995315  
     442A      4.011198   443A      4.016734   444A      4.024341  
     445A      4.042441   446A      4.048987   447A      4.063872  
     448A      4.070621   449A      4.085443   450A      4.104183  
     451A      4.110012   452A      4.131382   453A      4.145467  
     454A      4.165562   455A      4.170409   456A      4.182021  
     457A      4.201172   458A      4.210103   459A      4.221883  
     460A      4.243928   461A      4.247651   462A      4.256924  
     463A      4.266351   464A      4.273716   465A      4.292851  
     466A      4.300442   467A      4.325184   468A      4.333581  
     469A      4.348900   470A      4.359548   471A      4.367450  
     472A      4.393219   473A      4.399827   474A      4.402128  
     475A      4.424688   476A      4.443480   477A      4.451185  
     478A      4.462725   479A      4.476289   480A      4.489965  
     481A      4.507642   482A      4.521276   483A      4.537097  
     484A      4.548545   485A      4.568392   486A      4.580954  
     487A      4.602122   488A      4.606581   489A      4.625553  
     490A      4.634550   491A      4.641454   492A      4.645261  
     493A      4.673892   494A      4.678087   495A      4.699798  
     496A      4.711597   497A      4.722096   498A      4.734182  
     499A      4.743949   500A      4.751537   501A      4.768648  
     502A      4.795987   503A      4.820399   504A      4.838847  
     505A      4.860346   506A      4.872285   507A      4.878910  
     508A      4.896538   509A      4.904557   510A      4.937099  
     511A      4.959584   512A      4.971276   513A      4.981851  
     514A      5.016791   515A      5.026254   516A      5.043834  
     517A      5.064330   518A      5.080019   519A      5.090815  
     520A      5.104968   521A      5.133465   522A      5.139028  
     523A      5.166454   524A      5.196146   525A      5.208994  
     526A      5.214855   527A      5.234877   528A      5.239962  
     529A      5.256512   530A      5.265744   531A      5.285994  
     532A      5.313187   533A      5.317032   534A      5.328974  
     535A      5.348245   536A      5.356601   537A      5.364975  
     538A      5.374404   539A      5.387460   540A      5.409455  
     541A      5.440133   542A      5.446006   543A      5.473747  
     544A      5.485544   545A      5.511042   546A      5.529819  
     547A      5.536087   548A      5.554662   549A      5.563806  
     550A      5.565394   551A      5.604255   552A      5.631044  
     553A      5.662260   554A      5.692008   555A      5.698362  
     556A      5.715088   557A      5.749868   558A      5.755315  
     559A      5.774374   560A      5.801799   561A      5.852125  
     562A      5.865608   563A      5.885571   564A      5.939927  
     565A      5.969831   566A      6.027978   567A      6.055140  
     568A      6.103797   569A      6.110653   570A      6.197050  
     571A      6.207516   572A      6.223373   573A      6.255280  
     574A      6.286403   575A      6.328026   576A      6.334397  
     577A      6.497735   578A      6.627058   579A      6.638098  
     580A      6.684678   581A      6.697506   582A      6.750601  
     583A      6.766617   584A      6.781286   585A      6.828967  
     586A      6.868160   587A      6.932522   588A      6.947741  
     589A      6.958406   590A      6.970300   591A      6.979939  
     592A      6.986171   593A      7.012968   594A      7.044775  
     595A      7.109946   596A      7.127402   597A      7.148890  
     598A      7.157001   599A      7.195698   600A      7.270173  
     601A      7.321136   602A      7.335392   603A      7.345531  
     604A      7.357245   605A      7.375557   606A      7.408032  
     607A      7.475177   608A      7.497271   609A      7.506393  
     610A      7.541343   611A      7.548148   612A      7.565130  
     613A      7.583736   614A      7.592072   615A      7.628251  
     616A      7.655650   617A      7.673712   618A      7.737066  
     619A      7.763411   620A      7.833931   621A      7.869570  
     622A      7.904458   623A      7.935987   624A      7.993676  
     625A      8.021598   626A      8.033660   627A      8.115940  
     628A      8.262761   629A      8.300692   630A      8.319967  
     631A      8.384515   632A      8.450881   633A      8.511087  
     634A      8.610227   635A      8.664349   636A     15.791379  
     637A     15.829496   638A     16.474767   639A     16.511790  
     640A     18.531878   641A     18.655803   642A     19.211788  
     643A     19.721899   644A     19.930978  

    Final Occupation by Irrep:
              A 
    DOCC [    36 ]

  @DF-RHF Final Energy:  -494.76545864247691

   => Energetics <=

    Nuclear Repulsion Energy =            509.5857415602771425
    One-Electron Energy =               -1690.8826880063345470
    Two-Electron Energy =                 686.5314878035806032
    Total Energy =                       -494.7654586424769150

Computation Completed

*** tstop() called on node142.bme.utexas.edu at Mon Nov 16 22:23:14 2020
Module time:
	user time   =     283.22 seconds =       4.72 minutes
	system time =      35.24 seconds =       0.59 minutes
	total time  =         63 seconds =       1.05 minutes
Total time:
	user time   =     283.22 seconds =       4.72 minutes
	system time =      35.24 seconds =       0.59 minutes
	total time  =         63 seconds =       1.05 minutes
   => Loading Basis Set <=

    Name: (AUG-CC-PVTZ AUX)
    Role: RIFIT
    Keyword: DF_BASIS_MP2
    atoms 1-4   entry O          line   264 file /home/xy3866/psi4conda/share/psi4/basis/aug-cc-pvtz-ri.gbs 
    atoms 5-9   entry C          line   148 file /home/xy3866/psi4conda/share/psi4/basis/aug-cc-pvtz-ri.gbs 
    atoms 10-19 entry H          line    30 file /home/xy3866/psi4conda/share/psi4/basis/aug-cc-pvtz-ri.gbs 


*** tstart() called on node142.bme.utexas.edu
*** at Mon Nov 16 22:23:15 2020


  //>>>>>>>>>>>>>>>>>>>>>>>>>>>>>>>>>>>//
  //               DFMP2               //
  //<<<<<<<<<<<<<<<<<<<<<<<<<<<<<<<<<<<//

	 --------------------------------------------------------
	                          DF-MP2                         
	      2nd-Order Density-Fitted Moller-Plesset Theory     
	              RMP2 Wavefunction,   8 Threads             
	                                                         
	        Rob Parrish, Justin Turney, Andy Simmonett,      
	           Ed Hohenstein, and C. David Sherrill          
	 --------------------------------------------------------

   => Auxiliary Basis Set <=

  Basis Set: (AUG-CC-PVTZ AUX)
    Blend: AUG-CC-PVTZ-RI
    Number of shells: 392
    Number of basis function: 1414
    Number of Cartesian functions: 1774
    Spherical Harmonics?: true
    Max angular momentum: 4

	 --------------------------------------------------------
	                 NBF =   644, NAUX =  1414
	 --------------------------------------------------------
	   CLASS    FOCC     OCC    AOCC    AVIR     VIR    FVIR
	   PAIRS       0      36      36     608     608       0
	 --------------------------------------------------------

  DFHelper Memory: AOs need 4.250 GiB; user supplied 22.352 GiB. Using in-core AOs.


         ------------------------------------------------------------
                                     CPHF                           
                                  Rob Parrish                       
         ------------------------------------------------------------

  ==> Geometry <==

    Molecular point group: c1
    Full point group: C1

    Geometry (in Angstrom), charge = 0, multiplicity = 1:

       Center              X                  Y                   Z               Mass       
    ------------   -----------------  -----------------  -----------------  -----------------
         O           -0.074266058290     1.041142971235     0.697799217136    15.994914619570
         O            0.005330941710    -2.425788028765    -0.059865782864    15.994914619570
         O           -1.820281758290     1.279504771235    -0.880063282864    15.994914619570
         O            2.773238941710     0.853415971235     0.186352217136    15.994914619570
         C           -0.395251058290    -1.082534028765    -0.311077782864    12.000000000000
         C            0.636219941710    -0.159743028765     0.327574217136    12.000000000000
         C           -1.681445058290    -0.634790028765     0.371359217136    12.000000000000
         C           -1.459131058290     0.860747971235     0.424464217136    12.000000000000
         C            1.793468941710     0.160380971235    -0.579976782864    12.000000000000
         H           -0.460232058290    -0.885584028765    -1.391019782864     1.007825032230
         H            1.015435941710    -0.642697028765     1.241114217136     1.007825032230
         H           -2.597828058290    -0.893652028765    -0.163931782864     1.007825032230
         H           -1.708142058290    -1.053252028765     1.382314217136     1.007825032230
         H           -2.003101058290     1.391572971235     1.214566217136     1.007825032230
         H            1.416781941710     0.771855971235    -1.413673782864     1.007825032230
         H            2.184873941710    -0.786500028765    -0.983355782864     1.007825032230
         H           -0.644715058290    -3.009334028765    -0.499274782864     1.007825032230
         H           -1.553962058290     2.317851971235    -0.849911782864     1.007825032230
         H            3.491415941710     1.105568971235    -0.418064782864     1.007825032230

  Nuclear repulsion =  509.585741560277143
  Reference energy  = -494.765458642476915

  ==> Basis Set <==

  Basis Set: AUG-CC-PVTZ
    Blend: AUG-CC-PVTZ
    Number of shells: 216
    Number of basis function: 644
    Number of Cartesian functions: 745
    Spherical Harmonics?: true
    Max angular momentum: 3

  ==> CGRSolver (by Rob Parrish) <==

   Number of roots    =         1
   Preconditioning    =    JACOBI
   Convergence cutoff =     1E-06
   Maximum iterations =       100

  ==> CPHFRHamiltonian (by Rob Parrish) <== 

  ==> MemDFJK: Density-Fitted J/K Matrices <==

    J tasked:                   Yes
    K tasked:                   Yes
    wK tasked:                   No
    OpenMP threads:               8
    Memory [MiB]:             22888
    Algorithm:                 Disk
    Schwarz Cutoff:           1E-12
    Mask sparsity (%):       4.3213
    Fitting Condition:        1E-10

   => Auxiliary Basis Set <=

  Basis Set: (AUG-CC-PVTZ AUX)
    Blend: AUG-CC-PVTZ-JKFIT
    Number of shells: 410
    Number of basis function: 1396
    Number of Cartesian functions: 1729
    Spherical Harmonics?: true
    Max angular momentum: 4

  ==> CPHF Iterations <==

  => Iterations <=

             Iter  Converged  Remaining    Residual
  CGR           1          0          1   8.329E-02
  CGR           2          0          1   1.920E-02
  CGR           3          0          1   7.533E-03
  CGR           4          0          1   2.139E-03
  CGR           5          0          1   6.711E-04
  CGR           6          0          1   2.104E-04
  CGR           7          0          1   5.995E-05
  CGR           8          0          1   1.877E-05
  CGR           9          0          1   6.420E-06
  CGR          10          0          1   1.660E-06
  CGR          11          1          0   6.635E-07

    CGRSolver converged.

	-----------------------------------------------------------
	 ==================> DF-MP2 Energies <==================== 
	-----------------------------------------------------------
	 Reference Energy          =    -494.7654586424769150 [Eh]
	 Singles Energy            =      -0.0000000000000000 [Eh]
	 Same-Spin Energy          =      -0.4845720850413951 [Eh]
	 Opposite-Spin Energy      =      -1.5172164760491083 [Eh]
	 Correlation Energy        =      -2.0017885610905033 [Eh]
	 Total Energy              =    -496.7672472035674218 [Eh]
	-----------------------------------------------------------
	 ================> DF-SCS-MP2 Energies <================== 
	-----------------------------------------------------------
	 SCS Same-Spin Scale       =       0.3333333333333333 [-]
	 SCS Opposite-Spin Scale   =       1.2000000000000000 [-]
	 SCS Same-Spin Energy      =      -0.1615240283471317 [Eh]
	 SCS Opposite-Spin Energy  =      -1.8206597712589299 [Eh]
	 SCS Correlation Energy    =      -1.9821837996060616 [Eh]
	 SCS Total Energy          =    -496.7476424420829630 [Eh]
	-----------------------------------------------------------



Properties will be evaluated at   0.000000,  -0.000000,  -0.000000 [a0]

Properties computed using the MP2 density matrix

  Nuclear Dipole Moment: [e a0]
     X:    -0.8015      Y:    -1.5753      Z:    -1.7639

  Electronic Dipole Moment: [e a0]
     X:     0.3482      Y:     1.4494      Z:     1.0333

  Dipole Moment: [e a0]
     X:    -0.4532      Y:    -0.1259      Z:    -0.7305     Total:     0.8689

  Dipole Moment: [D]
     X:    -1.1520      Y:    -0.3200      Z:    -1.8568     Total:     2.2085


*** tstop() called on node142.bme.utexas.edu at Mon Nov 16 22:25:41 2020
Module time:
	user time   =     873.35 seconds =      14.56 minutes
	system time =      39.86 seconds =       0.66 minutes
	total time  =        146 seconds =       2.43 minutes
Total time:
	user time   =    1156.76 seconds =      19.28 minutes
	system time =      75.10 seconds =       1.25 minutes
	total time  =        210 seconds =       3.50 minutes

    Psi4 stopped on: Monday, 16 November 2020 10:25PM
    Psi4 wall time for execution: 0:03:30.41

*** Psi4 exiting successfully. Buy a developer a beer!
