
    -----------------------------------------------------------------------
          Psi4: An Open-Source Ab Initio Electronic Structure Package
                               Psi4 1.3.2 release

                         Git: Rev {HEAD} ecbda83 


    R. M. Parrish, L. A. Burns, D. G. A. Smith, A. C. Simmonett,
    A. E. DePrince III, E. G. Hohenstein, U. Bozkaya, A. Yu. Sokolov,
    R. Di Remigio, R. M. Richard, J. F. Gonthier, A. M. James,
    H. R. McAlexander, A. Kumar, M. Saitow, X. Wang, B. P. Pritchard,
    P. Verma, H. F. Schaefer III, K. Patkowski, R. A. King, E. F. Valeev,
    F. A. Evangelista, J. M. Turney, T. D. Crawford, and C. D. Sherrill,
    J. Chem. Theory Comput. 13(7) pp 3185--3197 (2017).
    (doi: 10.1021/acs.jctc.7b00174)


                         Additional Contributions by
    P. Kraus, H. Kruse, M. H. Lechner, M. C. Schieber, R. A. Shaw,
    A. Alenaizan, R. Galvelis, Z. L. Glick, S. Lehtola, and J. P. Misiewicz

    -----------------------------------------------------------------------


    Psi4 started on: Tuesday, 17 November 2020 12:19AM

    Process ID: 6453
    Host:       node142.bme.utexas.edu
    PSIDATADIR: /home/xy3866/psi4conda/share/psi4
    Memory:     500.0 MiB
    Threads:    8
    
  ==> Input File <==

--------------------------------------------------------------------------
#psi4
#
memory 32 gb

molecule  {
0 1
  O       -0.0768340     1.0301030     0.6945190
  O        0.0027630    -2.4368280    -0.0631460
  O       -1.8013270     1.3609940    -0.8558510
  O        2.7706710     0.8423760     0.1830720
  C       -0.3978190    -1.0935740    -0.3143580
  C        0.7428037    -0.2439692     0.2338241
  C       -1.6840130    -0.6458300     0.3680790
  C       -1.4616990     0.8497080     0.4211840
  C        1.7909010     0.1493410    -0.5832570
  H       -0.4628000    -0.8966240    -1.3943000
  H        1.0128680    -0.6537370     1.2378340
  H       -2.6003960    -0.9046920    -0.1672120
  H       -1.7107100    -1.0642920     1.3790340
  H       -2.0056690     1.3805330     1.2112860
  H        1.4142140     0.7608160    -1.4169540
  H        2.1823060    -0.7975400    -0.9866360
  H       -0.6472830    -3.0203740    -0.5025550
  H       -1.5565300     2.3068120    -0.8531920
  H        3.4888480     1.0945290    -0.4213450
units angstrom
no_reorient  #important for SAPT in psi4, default
symmetry c1  #important for SAPT in psi4, default
}

set PROPERTIES_ORIGIN ["COM"]
properties('MP2/aug-cc-pvtz', properties = ['dipole'])
--------------------------------------------------------------------------

  Memory set to  29.802 GiB by Python driver.
    SCF Algorithm Type (re)set to DF.

*** tstart() called on node142.bme.utexas.edu
*** at Tue Nov 17 00:19:03 2020

   => Loading Basis Set <=

    Name: AUG-CC-PVTZ
    Role: ORBITAL
    Keyword: BASIS
    atoms 1-4   entry O          line   327 file /home/xy3866/psi4conda/share/psi4/basis/aug-cc-pvtz.gbs 
    atoms 5-9   entry C          line   235 file /home/xy3866/psi4conda/share/psi4/basis/aug-cc-pvtz.gbs 
    atoms 10-19 entry H          line    36 file /home/xy3866/psi4conda/share/psi4/basis/aug-cc-pvtz.gbs 


         ---------------------------------------------------------
                                   SCF
               by Justin Turney, Rob Parrish, Andy Simmonett
                          and Daniel G. A. Smith
                              RHF Reference
                        8 Threads,  30517 MiB Core
         ---------------------------------------------------------

  ==> Geometry <==

    Molecular point group: c1
    Full point group: C1

    Geometry (in Angstrom), charge = 0, multiplicity = 1:

       Center              X                  Y                   Z               Mass       
    ------------   -----------------  -----------------  -----------------  -----------------
         O           -0.086604563072     1.036654148015     0.702617273866    15.994914619570
         O           -0.007007563072    -2.430276851985    -0.055047726134    15.994914619570
         O           -1.811097563072     1.367545148015    -0.847752726134    15.994914619570
         O            2.760900436928     0.848927148015     0.191170273866    15.994914619570
         C           -0.407589563072    -1.087022851985    -0.306259726134    12.000000000000
         C            0.733033136928    -0.237418051985     0.241922373866    12.000000000000
         C           -1.693783563072    -0.639278851985     0.376177273866    12.000000000000
         C           -1.471469563072     0.856259148015     0.429282273866    12.000000000000
         C            1.781130436928     0.155892148015    -0.575158726134    12.000000000000
         H           -0.472570563072    -0.890072851985    -1.386201726134     1.007825032230
         H            1.003097436928    -0.647185851985     1.245932273866     1.007825032230
         H           -2.610166563072    -0.898140851985    -0.159113726134     1.007825032230
         H           -1.720480563072    -1.057740851985     1.387132273866     1.007825032230
         H           -2.015439563072     1.387084148015     1.219384273866     1.007825032230
         H            1.404443436928     0.767367148015    -1.408855726134     1.007825032230
         H            2.172535436928    -0.790988851985    -0.978537726134     1.007825032230
         H           -0.657053563072    -3.013822851985    -0.494456726134     1.007825032230
         H           -1.566300563072     2.313363148015    -0.845093726134     1.007825032230
         H            3.479077436928     1.101080148015    -0.413246726134     1.007825032230

  Running in c1 symmetry.

  Rotational constants: A =      0.06889  B =      0.04691  C =      0.03226 [cm^-1]
  Rotational constants: A =   2065.27931  B =   1406.24068  C =    967.19142 [MHz]
  Nuclear repulsion =  508.503057912288170

  Charge       = 0
  Multiplicity = 1
  Electrons    = 72
  Nalpha       = 36
  Nbeta        = 36

  ==> Algorithm <==

  SCF Algorithm Type is DF.
  DIIS enabled.
  MOM disabled.
  Fractional occupation disabled.
  Guess Type is SAD.
  Energy threshold   = 1.00e-10
  Density threshold  = 1.00e-10
  Integral threshold = 0.00e+00

  ==> Primary Basis <==

  Basis Set: AUG-CC-PVTZ
    Blend: AUG-CC-PVTZ
    Number of shells: 216
    Number of basis function: 644
    Number of Cartesian functions: 745
    Spherical Harmonics?: true
    Max angular momentum: 3

   => Loading Basis Set <=

    Name: (AUG-CC-PVTZ AUX)
    Role: JKFIT
    Keyword: DF_BASIS_SCF
    atoms 1-4   entry O          line   286 file /home/xy3866/psi4conda/share/psi4/basis/aug-cc-pvtz-jkfit.gbs 
    atoms 5-9   entry C          line   162 file /home/xy3866/psi4conda/share/psi4/basis/aug-cc-pvtz-jkfit.gbs 
    atoms 10-19 entry H          line    70 file /home/xy3866/psi4conda/share/psi4/basis/aug-cc-pvtz-jkfit.gbs 

  ==> Pre-Iterations <==

   -------------------------------------------------------
    Irrep   Nso     Nmo     Nalpha   Nbeta   Ndocc  Nsocc
   -------------------------------------------------------
     A        644     644       0       0       0       0
   -------------------------------------------------------
    Total     644     644      36      36      36       0
   -------------------------------------------------------

  ==> Integral Setup <==

  DFHelper Memory: AOs need 4.249 GiB; user supplied 22.352 GiB. Using in-core AOs.

  ==> MemDFJK: Density-Fitted J/K Matrices <==

    J tasked:                   Yes
    K tasked:                   Yes
    wK tasked:                   No
    OpenMP threads:               8
    Memory [MiB]:             22888
    Algorithm:                 Disk
    Schwarz Cutoff:           1E-12
    Mask sparsity (%):       4.3363
    Fitting Condition:        1E-10

   => Auxiliary Basis Set <=

  Basis Set: (AUG-CC-PVTZ AUX)
    Blend: AUG-CC-PVTZ-JKFIT
    Number of shells: 410
    Number of basis function: 1396
    Number of Cartesian functions: 1729
    Spherical Harmonics?: true
    Max angular momentum: 4

  Minimum eigenvalue in the overlap matrix is 1.9078399816E-06.
  Using Symmetric Orthogonalization.

  SCF Guess: Superposition of Atomic Densities via on-the-fly atomic UHF.

  ==> Iterations <==

                           Total Energy        Delta E     RMS |[F,P]|

   @DF-RHF iter SAD:  -494.09545552998060   -4.94095e+02   0.00000e+00 
   @DF-RHF iter   1:  -494.43566574828736   -3.40210e-01   1.22918e-03 DIIS
   @DF-RHF iter   2:  -494.68153441839746   -2.45869e-01   6.93346e-04 DIIS
   @DF-RHF iter   3:  -494.75007760884813   -6.85432e-02   1.12162e-04 DIIS
   @DF-RHF iter   4:  -494.75389815178715   -3.82054e-03   3.68057e-05 DIIS
   @DF-RHF iter   5:  -494.75422266542893   -3.24514e-04   1.01209e-05 DIIS
   @DF-RHF iter   6:  -494.75425331256861   -3.06471e-05   3.26202e-06 DIIS
   @DF-RHF iter   7:  -494.75425687475104   -3.56218e-06   1.22604e-06 DIIS
   @DF-RHF iter   8:  -494.75425736775759   -4.93007e-07   3.77872e-07 DIIS
   @DF-RHF iter   9:  -494.75425742866639   -6.09088e-08   1.11173e-07 DIIS
   @DF-RHF iter  10:  -494.75425743358795   -4.92156e-09   3.64411e-08 DIIS
   @DF-RHF iter  11:  -494.75425743419902   -6.11067e-10   1.11075e-08 DIIS
   @DF-RHF iter  12:  -494.75425743425200   -5.29781e-11   5.13271e-09 DIIS
   @DF-RHF iter  13:  -494.75425743426172   -9.72022e-12   1.45834e-09 DIIS
   @DF-RHF iter  14:  -494.75425743426229   -5.68434e-13   4.72046e-10 DIIS
   @DF-RHF iter  15:  -494.75425743426246   -1.70530e-13   1.42682e-10 DIIS
   @DF-RHF iter  16:  -494.75425743426223    2.27374e-13   5.49025e-11 DIIS
  Energy and wave function converged.


  ==> Post-Iterations <==

    Orbital Energies [Eh]
    ---------------------

    Doubly Occupied:                                                      

       1A    -20.573677     2A    -20.564062     3A    -20.562639  
       4A    -20.540989     5A    -11.328921     6A    -11.294114  
       7A    -11.283859     8A    -11.277379     9A    -11.230260  
      10A     -1.395327    11A     -1.372277    12A     -1.363671  
      13A     -1.307093    14A     -1.071882    15A     -1.040466  
      16A     -0.905696    17A     -0.813826    18A     -0.792636  
      19A     -0.736855    20A     -0.703692    21A     -0.683138  
      22A     -0.668501    23A     -0.650716    24A     -0.625255  
      25A     -0.616274    26A     -0.578294    27A     -0.556098  
      28A     -0.546667    29A     -0.534347    30A     -0.520204  
      31A     -0.504598    32A     -0.481119    33A     -0.463821  
      34A     -0.449238    35A     -0.433132    36A     -0.430541  

    Virtual:                                                              

      37A      0.026328    38A      0.031655    39A      0.034816  
      40A      0.040387    41A      0.050549    42A      0.053709  
      43A      0.056769    44A      0.059364    45A      0.064012  
      46A      0.077217    47A      0.100719    48A      0.104243  
      49A      0.109179    50A      0.114335    51A      0.117560  
      52A      0.120884    53A      0.125541    54A      0.127546  
      55A      0.135970    56A      0.141729    57A      0.144532  
      58A      0.148707    59A      0.150333    60A      0.157200  
      61A      0.158213    62A      0.173897    63A      0.182729  
      64A      0.186675    65A      0.193840    66A      0.204137  
      67A      0.210845    68A      0.219180    69A      0.227257  
      70A      0.234951    71A      0.236906    72A      0.241386  
      73A      0.244141    74A      0.251987    75A      0.256224  
      76A      0.266140    77A      0.270967    78A      0.275527  
      79A      0.278861    80A      0.283605    81A      0.292423  
      82A      0.300555    83A      0.304600    84A      0.307508  
      85A      0.316902    86A      0.320897    87A      0.323422  
      88A      0.329362    89A      0.335176    90A      0.337175  
      91A      0.347684    92A      0.353660    93A      0.361510  
      94A      0.367741    95A      0.372497    96A      0.375987  
      97A      0.379893    98A      0.385643    99A      0.394030  
     100A      0.397064   101A      0.398759   102A      0.408312  
     103A      0.410613   104A      0.416390   105A      0.422160  
     106A      0.429880   107A      0.438839   108A      0.445635  
     109A      0.450706   110A      0.452628   111A      0.458299  
     112A      0.462863   113A      0.471661   114A      0.475384  
     115A      0.477862   116A      0.484173   117A      0.484389  
     118A      0.491902   119A      0.498992   120A      0.501855  
     121A      0.506061   122A      0.510861   123A      0.515931  
     124A      0.520142   125A      0.529453   126A      0.534255  
     127A      0.539653   128A      0.550360   129A      0.557519  
     130A      0.561761   131A      0.563352   132A      0.569321  
     133A      0.578391   134A      0.584480   135A      0.589293  
     136A      0.591822   137A      0.598109   138A      0.608481  
     139A      0.613458   140A      0.615433   141A      0.622833  
     142A      0.625445   143A      0.639315   144A      0.644992  
     145A      0.653658   146A      0.656589   147A      0.660975  
     148A      0.671105   149A      0.676641   150A      0.681924  
     151A      0.683242   152A      0.697544   153A      0.705440  
     154A      0.712789   155A      0.722838   156A      0.738671  
     157A      0.748233   158A      0.771004   159A      0.772710  
     160A      0.778339   161A      0.788449   162A      0.800003  
     163A      0.804681   164A      0.810226   165A      0.814024  
     166A      0.833662   167A      0.843631   168A      0.854067  
     169A      0.862622   170A      0.866287   171A      0.875459  
     172A      0.880271   173A      0.893509   174A      0.895408  
     175A      0.900012   176A      0.902062   177A      0.913771  
     178A      0.917182   179A      0.920919   180A      0.929677  
     181A      0.943614   182A      0.945159   183A      0.949584  
     184A      0.963211   185A      0.964567   186A      0.980088  
     187A      0.982317   188A      0.987636   189A      0.989439  
     190A      1.000367   191A      1.013403   192A      1.017011  
     193A      1.025577   194A      1.026323   195A      1.036141  
     196A      1.044006   197A      1.053417   198A      1.056681  
     199A      1.063509   200A      1.071908   201A      1.075873  
     202A      1.080236   203A      1.083799   204A      1.091123  
     205A      1.102415   206A      1.106008   207A      1.111676  
     208A      1.116587   209A      1.127039   210A      1.128247  
     211A      1.135243   212A      1.146579   213A      1.148046  
     214A      1.156038   215A      1.167710   216A      1.170740  
     217A      1.180085   218A      1.185889   219A      1.190354  
     220A      1.194915   221A      1.206501   222A      1.217096  
     223A      1.225213   224A      1.231430   225A      1.233044  
     226A      1.239435   227A      1.249146   228A      1.254515  
     229A      1.270957   230A      1.275063   231A      1.280413  
     232A      1.282881   233A      1.292683   234A      1.302854  
     235A      1.316184   236A      1.320284   237A      1.335345  
     238A      1.343302   239A      1.352309   240A      1.364567  
     241A      1.371208   242A      1.381758   243A      1.388664  
     244A      1.398152   245A      1.404353   246A      1.424381  
     247A      1.430779   248A      1.446390   249A      1.452707  
     250A      1.454550   251A      1.461117   252A      1.472663  
     253A      1.482679   254A      1.497621   255A      1.499982  
     256A      1.503769   257A      1.523763   258A      1.525691  
     259A      1.531642   260A      1.538623   261A      1.541634  
     262A      1.565489   263A      1.573402   264A      1.577018  
     265A      1.590634   266A      1.594948   267A      1.599695  
     268A      1.615520   269A      1.619880   270A      1.630370  
     271A      1.634431   272A      1.648739   273A      1.655738  
     274A      1.671922   275A      1.679678   276A      1.685774  
     277A      1.688576   278A      1.702473   279A      1.705908  
     280A      1.722258   281A      1.730831   282A      1.740177  
     283A      1.742159   284A      1.749943   285A      1.760808  
     286A      1.772924   287A      1.786616   288A      1.787265  
     289A      1.803789   290A      1.807258   291A      1.813858  
     292A      1.818239   293A      1.829905   294A      1.848976  
     295A      1.852076   296A      1.861650   297A      1.866022  
     298A      1.888162   299A      1.901436   300A      1.905454  
     301A      1.916851   302A      1.923191   303A      1.925542  
     304A      1.942186   305A      1.948580   306A      1.964761  
     307A      1.970524   308A      1.981212   309A      1.987673  
     310A      1.992641   311A      2.006143   312A      2.008948  
     313A      2.021520   314A      2.034876   315A      2.039605  
     316A      2.048449   317A      2.066115   318A      2.078011  
     319A      2.083735   320A      2.085542   321A      2.097186  
     322A      2.110218   323A      2.125319   324A      2.132221  
     325A      2.152037   326A      2.159505   327A      2.172860  
     328A      2.187600   329A      2.199729   330A      2.208001  
     331A      2.220165   332A      2.232412   333A      2.236623  
     334A      2.254902   335A      2.279379   336A      2.289525  
     337A      2.294372   338A      2.320553   339A      2.322758  
     340A      2.339943   341A      2.363369   342A      2.370151  
     343A      2.379958   344A      2.411082   345A      2.424258  
     346A      2.447329   347A      2.450648   348A      2.460264  
     349A      2.484737   350A      2.501294   351A      2.531462  
     352A      2.547599   353A      2.552236   354A      2.564275  
     355A      2.589763   356A      2.594751   357A      2.615476  
     358A      2.622617   359A      2.630903   360A      2.637242  
     361A      2.665617   362A      2.684292   363A      2.693966  
     364A      2.696647   365A      2.721039   366A      2.722873  
     367A      2.744404   368A      2.767594   369A      2.796515  
     370A      2.799331   371A      2.833896   372A      2.844267  
     373A      2.864467   374A      2.884142   375A      2.897964  
     376A      2.902204   377A      2.913116   378A      2.931473  
     379A      2.950439   380A      2.961545   381A      2.970902  
     382A      2.986111   383A      2.994680   384A      3.016570  
     385A      3.018470   386A      3.028745   387A      3.043919  
     388A      3.058906   389A      3.070459   390A      3.082456  
     391A      3.101438   392A      3.116815   393A      3.130861  
     394A      3.140770   395A      3.160496   396A      3.162197  
     397A      3.181138   398A      3.195654   399A      3.201570  
     400A      3.214249   401A      3.224336   402A      3.282505  
     403A      3.286035   404A      3.300082   405A      3.322597  
     406A      3.354891   407A      3.377407   408A      3.394922  
     409A      3.442540   410A      3.456173   411A      3.477533  
     412A      3.525055   413A      3.532016   414A      3.571269  
     415A      3.584630   416A      3.597225   417A      3.613002  
     418A      3.626271   419A      3.643980   420A      3.669999  
     421A      3.672427   422A      3.692371   423A      3.725389  
     424A      3.730845   425A      3.744263   426A      3.762506  
     427A      3.772016   428A      3.798584   429A      3.812664  
     430A      3.835354   431A      3.860946   432A      3.870925  
     433A      3.892113   434A      3.897866   435A      3.908844  
     436A      3.935064   437A      3.942999   438A      3.956072  
     439A      3.982595   440A      3.989932   441A      4.004340  
     442A      4.018032   443A      4.024100   444A      4.028994  
     445A      4.038064   446A      4.042550   447A      4.061645  
     448A      4.069178   449A      4.091506   450A      4.120538  
     451A      4.128031   452A      4.137415   453A      4.144654  
     454A      4.164448   455A      4.166869   456A      4.184495  
     457A      4.196067   458A      4.224262   459A      4.242696  
     460A      4.244366   461A      4.252237   462A      4.265228  
     463A      4.285714   464A      4.293803   465A      4.303036  
     466A      4.303595   467A      4.323845   468A      4.335589  
     469A      4.351302   470A      4.353052   471A      4.363753  
     472A      4.391792   473A      4.402756   474A      4.407147  
     475A      4.425927   476A      4.442477   477A      4.446800  
     478A      4.469558   479A      4.479226   480A      4.492127  
     481A      4.504056   482A      4.527407   483A      4.558653  
     484A      4.565106   485A      4.573403   486A      4.577511  
     487A      4.593737   488A      4.604916   489A      4.632066  
     490A      4.641876   491A      4.645790   492A      4.659674  
     493A      4.668984   494A      4.690582   495A      4.706739  
     496A      4.711651   497A      4.730570   498A      4.742921  
     499A      4.748575   500A      4.767256   501A      4.776709  
     502A      4.793030   503A      4.844911   504A      4.861686  
     505A      4.874932   506A      4.898421   507A      4.899872  
     508A      4.917181   509A      4.931628   510A      4.960376  
     511A      4.966099   512A      4.978489   513A      4.989228  
     514A      5.032638   515A      5.049025   516A      5.058909  
     517A      5.068605   518A      5.094687   519A      5.117082  
     520A      5.118876   521A      5.135143   522A      5.171111  
     523A      5.180360   524A      5.197061   525A      5.206576  
     526A      5.225881   527A      5.237770   528A      5.252485  
     529A      5.257317   530A      5.277460   531A      5.290278  
     532A      5.303447   533A      5.318018   534A      5.341953  
     535A      5.358689   536A      5.379142   537A      5.390684  
     538A      5.399940   539A      5.415918   540A      5.434734  
     541A      5.450320   542A      5.470500   543A      5.500062  
     544A      5.519090   545A      5.540337   546A      5.550476  
     547A      5.567215   548A      5.578263   549A      5.595218  
     550A      5.604844   551A      5.624111   552A      5.653812  
     553A      5.671893   554A      5.704356   555A      5.706011  
     556A      5.720871   557A      5.749459   558A      5.755173  
     559A      5.808715   560A      5.821596   561A      5.850763  
     562A      5.883922   563A      5.915367   564A      5.950339  
     565A      6.010307   566A      6.017557   567A      6.095100  
     568A      6.104518   569A      6.152359   570A      6.175631  
     571A      6.185316   572A      6.235315   573A      6.256478  
     574A      6.287312   575A      6.299096   576A      6.356901  
     577A      6.556305   578A      6.619999   579A      6.658073  
     580A      6.680761   581A      6.693480   582A      6.742791  
     583A      6.765987   584A      6.781593   585A      6.817515  
     586A      6.870970   587A      6.929385   588A      6.953720  
     589A      6.962701   590A      6.966723   591A      6.973418  
     592A      6.986785   593A      7.005416   594A      7.049819  
     595A      7.111847   596A      7.129039   597A      7.144539  
     598A      7.157289   599A      7.305131   600A      7.314873  
     601A      7.331396   602A      7.338560   603A      7.351900  
     604A      7.363848   605A      7.372578   606A      7.405154  
     607A      7.414885   608A      7.498163   609A      7.515533  
     610A      7.534250   611A      7.555207   612A      7.569271  
     613A      7.574029   614A      7.591954   615A      7.630737  
     616A      7.652851   617A      7.668444   618A      7.737768  
     619A      7.743677   620A      7.823447   621A      7.853139  
     622A      7.878738   623A      7.916463   624A      7.985661  
     625A      8.014604   626A      8.038305   627A      8.129527  
     628A      8.273392   629A      8.301337   630A      8.320751  
     631A      8.385127   632A      8.458217   633A      8.610597  
     634A      8.657591   635A      8.669605   636A     15.898973  
     637A     15.917419   638A     16.520841   639A     16.614379  
     640A     18.389890   641A     19.155119   642A     19.494832  
     643A     19.706612   644A     20.644470  

    Final Occupation by Irrep:
              A 
    DOCC [    36 ]

  @DF-RHF Final Energy:  -494.75425743426223

   => Energetics <=

    Nuclear Repulsion Energy =            508.5030579122881704
    One-Electron Energy =               -1688.7121018441187061
    Two-Electron Energy =                 685.4547864975683069
    Total Energy =                       -494.7542574342622856

Computation Completed

*** tstop() called on node142.bme.utexas.edu at Tue Nov 17 00:20:10 2020
Module time:
	user time   =     305.58 seconds =       5.09 minutes
	system time =      35.32 seconds =       0.59 minutes
	total time  =         67 seconds =       1.12 minutes
Total time:
	user time   =     305.58 seconds =       5.09 minutes
	system time =      35.32 seconds =       0.59 minutes
	total time  =         67 seconds =       1.12 minutes
   => Loading Basis Set <=

    Name: (AUG-CC-PVTZ AUX)
    Role: RIFIT
    Keyword: DF_BASIS_MP2
    atoms 1-4   entry O          line   264 file /home/xy3866/psi4conda/share/psi4/basis/aug-cc-pvtz-ri.gbs 
    atoms 5-9   entry C          line   148 file /home/xy3866/psi4conda/share/psi4/basis/aug-cc-pvtz-ri.gbs 
    atoms 10-19 entry H          line    30 file /home/xy3866/psi4conda/share/psi4/basis/aug-cc-pvtz-ri.gbs 


*** tstart() called on node142.bme.utexas.edu
*** at Tue Nov 17 00:20:10 2020


  //>>>>>>>>>>>>>>>>>>>>>>>>>>>>>>>>>>>//
  //               DFMP2               //
  //<<<<<<<<<<<<<<<<<<<<<<<<<<<<<<<<<<<//

	 --------------------------------------------------------
	                          DF-MP2                         
	      2nd-Order Density-Fitted Moller-Plesset Theory     
	              RMP2 Wavefunction,   8 Threads             
	                                                         
	        Rob Parrish, Justin Turney, Andy Simmonett,      
	           Ed Hohenstein, and C. David Sherrill          
	 --------------------------------------------------------

   => Auxiliary Basis Set <=

  Basis Set: (AUG-CC-PVTZ AUX)
    Blend: AUG-CC-PVTZ-RI
    Number of shells: 392
    Number of basis function: 1414
    Number of Cartesian functions: 1774
    Spherical Harmonics?: true
    Max angular momentum: 4

	 --------------------------------------------------------
	                 NBF =   644, NAUX =  1414
	 --------------------------------------------------------
	   CLASS    FOCC     OCC    AOCC    AVIR     VIR    FVIR
	   PAIRS       0      36      36     608     608       0
	 --------------------------------------------------------

  DFHelper Memory: AOs need 4.249 GiB; user supplied 22.352 GiB. Using in-core AOs.


         ------------------------------------------------------------
                                     CPHF                           
                                  Rob Parrish                       
         ------------------------------------------------------------

  ==> Geometry <==

    Molecular point group: c1
    Full point group: C1

    Geometry (in Angstrom), charge = 0, multiplicity = 1:

       Center              X                  Y                   Z               Mass       
    ------------   -----------------  -----------------  -----------------  -----------------
         O           -0.086604563072     1.036654148015     0.702617273866    15.994914619570
         O           -0.007007563072    -2.430276851985    -0.055047726134    15.994914619570
         O           -1.811097563072     1.367545148015    -0.847752726134    15.994914619570
         O            2.760900436928     0.848927148015     0.191170273866    15.994914619570
         C           -0.407589563072    -1.087022851985    -0.306259726134    12.000000000000
         C            0.733033136928    -0.237418051985     0.241922373866    12.000000000000
         C           -1.693783563072    -0.639278851985     0.376177273866    12.000000000000
         C           -1.471469563072     0.856259148015     0.429282273866    12.000000000000
         C            1.781130436928     0.155892148015    -0.575158726134    12.000000000000
         H           -0.472570563072    -0.890072851985    -1.386201726134     1.007825032230
         H            1.003097436928    -0.647185851985     1.245932273866     1.007825032230
         H           -2.610166563072    -0.898140851985    -0.159113726134     1.007825032230
         H           -1.720480563072    -1.057740851985     1.387132273866     1.007825032230
         H           -2.015439563072     1.387084148015     1.219384273866     1.007825032230
         H            1.404443436928     0.767367148015    -1.408855726134     1.007825032230
         H            2.172535436928    -0.790988851985    -0.978537726134     1.007825032230
         H           -0.657053563072    -3.013822851985    -0.494456726134     1.007825032230
         H           -1.566300563072     2.313363148015    -0.845093726134     1.007825032230
         H            3.479077436928     1.101080148015    -0.413246726134     1.007825032230

  Nuclear repulsion =  508.503057912288170
  Reference energy  = -494.754257434262229

  ==> Basis Set <==

  Basis Set: AUG-CC-PVTZ
    Blend: AUG-CC-PVTZ
    Number of shells: 216
    Number of basis function: 644
    Number of Cartesian functions: 745
    Spherical Harmonics?: true
    Max angular momentum: 3

  ==> CGRSolver (by Rob Parrish) <==

   Number of roots    =         1
   Preconditioning    =    JACOBI
   Convergence cutoff =     1E-06
   Maximum iterations =       100

  ==> CPHFRHamiltonian (by Rob Parrish) <== 

  ==> MemDFJK: Density-Fitted J/K Matrices <==

    J tasked:                   Yes
    K tasked:                   Yes
    wK tasked:                   No
    OpenMP threads:               8
    Memory [MiB]:             22888
    Algorithm:                 Disk
    Schwarz Cutoff:           1E-12
    Mask sparsity (%):       4.3363
    Fitting Condition:        1E-10

   => Auxiliary Basis Set <=

  Basis Set: (AUG-CC-PVTZ AUX)
    Blend: AUG-CC-PVTZ-JKFIT
    Number of shells: 410
    Number of basis function: 1396
    Number of Cartesian functions: 1729
    Spherical Harmonics?: true
    Max angular momentum: 4

  ==> CPHF Iterations <==

  => Iterations <=

             Iter  Converged  Remaining    Residual
  CGR           1          0          1   8.850E-02
  CGR           2          0          1   2.105E-02
  CGR           3          0          1   8.386E-03
  CGR           4          0          1   2.543E-03
  CGR           5          0          1   9.268E-04
  CGR           6          0          1   3.208E-04
  CGR           7          0          1   1.047E-04
  CGR           8          0          1   3.492E-05
  CGR           9          0          1   1.144E-05
  CGR          10          0          1   3.226E-06
  CGR          11          0          1   1.191E-06
  CGR          12          1          0   2.835E-07

    CGRSolver converged.

	-----------------------------------------------------------
	 ==================> DF-MP2 Energies <==================== 
	-----------------------------------------------------------
	 Reference Energy          =    -494.7542574342622288 [Eh]
	 Singles Energy            =      -0.0000000000000000 [Eh]
	 Same-Spin Energy          =      -0.4848117644172054 [Eh]
	 Opposite-Spin Energy      =      -1.5169471729168076 [Eh]
	 Correlation Energy        =      -2.0017589373340128 [Eh]
	 Total Energy              =    -496.7560163715962176 [Eh]
	-----------------------------------------------------------
	 ================> DF-SCS-MP2 Energies <================== 
	-----------------------------------------------------------
	 SCS Same-Spin Scale       =       0.3333333333333333 [-]
	 SCS Opposite-Spin Scale   =       1.2000000000000000 [-]
	 SCS Same-Spin Energy      =      -0.1616039214724018 [Eh]
	 SCS Opposite-Spin Energy  =      -1.8203366075001690 [Eh]
	 SCS Correlation Energy    =      -1.9819405289725709 [Eh]
	 SCS Total Energy          =    -496.7361979632348152 [Eh]
	-----------------------------------------------------------



Properties will be evaluated at   0.000000,  -0.000000,  -0.000000 [a0]

Properties computed using the MP2 density matrix

  Nuclear Dipole Moment: [e a0]
     X:    -0.9173      Y:    -1.6170      Z:    -1.7185

  Electronic Dipole Moment: [e a0]
     X:     0.6053      Y:     1.3175      Z:     0.9172

  Dipole Moment: [e a0]
     X:    -0.3120      Y:    -0.2995      Z:    -0.8013     Total:     0.9105

  Dipole Moment: [D]
     X:    -0.7930      Y:    -0.7612      Z:    -2.0366     Total:     2.3143


*** tstop() called on node142.bme.utexas.edu at Tue Nov 17 00:22:42 2020
Module time:
	user time   =     927.02 seconds =      15.45 minutes
	system time =      40.14 seconds =       0.67 minutes
	total time  =        152 seconds =       2.53 minutes
Total time:
	user time   =    1232.80 seconds =      20.55 minutes
	system time =      75.46 seconds =       1.26 minutes
	total time  =        219 seconds =       3.65 minutes

    Psi4 stopped on: Tuesday, 17 November 2020 12:22AM
    Psi4 wall time for execution: 0:03:38.39

*** Psi4 exiting successfully. Buy a developer a beer!
