14947250                                                                
Freq      RMP2-FC                                                     6-31G(d)            
Number of atoms                            I               14
Info1-9                                    I   N=           9
          26          24        1002           0           0         100
           6           2           1
Charge                                     I                0
Multiplicity                               I                1
Number of electrons                        I               52
Number of alpha electrons                  I               26
Number of beta electrons                   I               26
Number of basis functions                  I              119
Number of independent functions            I              119
Number of point charges in /Mol/           I                0
Number of translation vectors              I                0
Atomic numbers                             I   N=          14
           8           7           6           6           6           6
           6           1           1           1           1           1
           1           1
Nuclear charges                            R   N=          14
  8.00000000E+00  7.00000000E+00  6.00000000E+00  6.00000000E+00  6.00000000E+00
  6.00000000E+00  6.00000000E+00  1.00000000E+00  1.00000000E+00  1.00000000E+00
  1.00000000E+00  1.00000000E+00  1.00000000E+00  1.00000000E+00
Current cartesian coordinates              R   N=          42
 -1.67697088E+00 -2.08884272E+00 -2.32601744E-05 -5.62353534E-01  2.00062654E+00
  3.30765962E-05  2.87402074E+00 -1.30888538E+00  4.78381006E-05  2.30464197E-01
 -3.39272444E-01  6.42713265E-06  4.79946578E+00  8.36416373E-01 -4.31961501E-05
 -3.85071126E+00 -6.78129660E-01 -2.52078065E-05 -3.18202656E+00  1.80409544E+00
  9.07583207E-06  3.13691731E+00 -2.52630952E+00  1.65621841E+00  3.13691871E+00
 -2.52646126E+00 -1.65600942E+00  4.56286101E+00  2.02982443E+00 -1.66570316E+00
  6.71732121E+00  6.88131745E-02 -3.92779857E-05  4.56289952E+00  2.02993839E+00
  1.66554041E+00 -5.60863066E+00 -1.71015092E+00 -9.47206111E-06 -4.38332271E+00
  3.45535576E+00 -1.25629317E-05
Force Field                                I                0
Int Atom Types                             I   N=          14
           0           0           0           0           0           0
           0           0           0           0           0           0
           0           0
MM charges                                 R   N=          14
  0.00000000E+00  0.00000000E+00  0.00000000E+00  0.00000000E+00  0.00000000E+00
  0.00000000E+00  0.00000000E+00  0.00000000E+00  0.00000000E+00  0.00000000E+00
  0.00000000E+00  0.00000000E+00  0.00000000E+00  0.00000000E+00
Integer atomic weights                     I   N=          14
          16          14          12          12          12          12
          12           1           1           1           1           1
           1           1
Real atomic weights                        R   N=          14
  1.59949146E+01  1.40030740E+01  1.20000000E+01  1.20000000E+01  1.20000000E+01
  1.20000000E+01  1.20000000E+01  1.00782504E+00  1.00782504E+00  1.00782504E+00
  1.00782504E+00  1.00782504E+00  1.00782504E+00  1.00782504E+00
Atom fragment info                         I   N=          14
           0           0           0           0           0           0
           0           0           0           0           0           0
           0           0
Atom residue num                           I   N=          14
           0           0           0           0           0           0
           0           0           0           0           0           0
           0           0
Nuclear spins                              I   N=          14
           0           2           0           0           0           0
           0           1           1           1           1           1
           1           1
Nuclear ZEff                               R   N=          14
 -5.60000000E+00 -4.55000000E+00 -3.60000000E+00 -3.60000000E+00 -3.60000000E+00
 -3.60000000E+00 -3.60000000E+00 -1.00000000E+00 -1.00000000E+00 -1.00000000E+00
 -1.00000000E+00 -1.00000000E+00 -1.00000000E+00 -1.00000000E+00
Nuclear QMom                               R   N=          14
  0.00000000E+00  2.04400000E+00  0.00000000E+00  0.00000000E+00  0.00000000E+00
  0.00000000E+00  0.00000000E+00  0.00000000E+00  0.00000000E+00  0.00000000E+00
  0.00000000E+00  0.00000000E+00  0.00000000E+00  0.00000000E+00
Nuclear GFac                               R   N=          14
  0.00000000E+00  4.03761000E-01  0.00000000E+00  0.00000000E+00  0.00000000E+00
  0.00000000E+00  0.00000000E+00  2.79284600E+00  2.79284600E+00  2.79284600E+00
  2.79284600E+00  2.79284600E+00  2.79284600E+00  2.79284600E+00
MicOpt                                     I   N=          14
          -1          -1          -1          -1          -1          -1
          -1          -1          -1          -1          -1          -1
          -1          -1
Number of contracted shells                I               42
Number of primitive shells                 I              105
Pure/Cartesian d shells                    I                1
Pure/Cartesian f shells                    I                0
Highest angular momentum                   I                2
Largest degree of contraction              I                6
Shell types                                I   N=          42
           0          -1          -1           2           0          -1
          -1           2           0          -1          -1           2
           0          -1          -1           2           0          -1
          -1           2           0          -1          -1           2
           0          -1          -1           2           0           0
           0           0           0           0           0           0
           0           0           0           0           0           0
Number of primitives per shell             I   N=          42
           6           3           1           1           6           3
           1           1           6           3           1           1
           6           3           1           1           6           3
           1           1           6           3           1           1
           6           3           1           1           3           1
           3           1           3           1           3           1
           3           1           3           1           3           1
Shell to atom map                          I   N=          42
           1           1           1           1           2           2
           2           2           3           3           3           3
           4           4           4           4           5           5
           5           5           6           6           6           6
           7           7           7           7           8           8
           9           9          10          10          11          11
          12          12          13          13          14          14
Primitive exponents                        R   N=         105
  5.48467166E+03  8.25234946E+02  1.88046958E+02  5.29645000E+01  1.68975704E+01
  5.79963534E+00  1.55396162E+01  3.59993359E+00  1.01376175E+00  2.70005823E-01
  8.00000000E-01  4.17351146E+03  6.27457911E+02  1.42902093E+02  4.02343293E+01
  1.28202129E+01  4.39043701E+00  1.16263619E+01  2.71627981E+00  7.72218397E-01
  2.12031498E-01  8.00000000E-01  3.04752488E+03  4.57369518E+02  1.03948685E+02
  2.92101553E+01  9.28666296E+00  3.16392696E+00  7.86827235E+00  1.88128854E+00
  5.44249258E-01  1.68714478E-01  8.00000000E-01  3.04752488E+03  4.57369518E+02
  1.03948685E+02  2.92101553E+01  9.28666296E+00  3.16392696E+00  7.86827235E+00
  1.88128854E+00  5.44249258E-01  1.68714478E-01  8.00000000E-01  3.04752488E+03
  4.57369518E+02  1.03948685E+02  2.92101553E+01  9.28666296E+00  3.16392696E+00
  7.86827235E+00  1.88128854E+00  5.44249258E-01  1.68714478E-01  8.00000000E-01
  3.04752488E+03  4.57369518E+02  1.03948685E+02  2.92101553E+01  9.28666296E+00
  3.16392696E+00  7.86827235E+00  1.88128854E+00  5.44249258E-01  1.68714478E-01
  8.00000000E-01  3.04752488E+03  4.57369518E+02  1.03948685E+02  2.92101553E+01
  9.28666296E+00  3.16392696E+00  7.86827235E+00  1.88128854E+00  5.44249258E-01
  1.68714478E-01  8.00000000E-01  1.87311370E+01  2.82539436E+00  6.40121692E-01
  1.61277759E-01  1.87311370E+01  2.82539436E+00  6.40121692E-01  1.61277759E-01
  1.87311370E+01  2.82539436E+00  6.40121692E-01  1.61277759E-01  1.87311370E+01
  2.82539436E+00  6.40121692E-01  1.61277759E-01  1.87311370E+01  2.82539436E+00
  6.40121692E-01  1.61277759E-01  1.87311370E+01  2.82539436E+00  6.40121692E-01
  1.61277759E-01  1.87311370E+01  2.82539436E+00  6.40121692E-01  1.61277759E-01
Contraction coefficients                   R   N=         105
  1.83107443E-03  1.39501722E-02  6.84450781E-02  2.32714336E-01  4.70192898E-01
  3.58520853E-01 -1.10777550E-01 -1.48026263E-01  1.13076702E+00  1.00000000E+00
  1.00000000E+00  1.83477216E-03  1.39946270E-02  6.85865518E-02  2.32240873E-01
  4.69069948E-01  3.60455199E-01 -1.14961182E-01 -1.69117479E-01  1.14585195E+00
  1.00000000E+00  1.00000000E+00  1.83473713E-03  1.40373228E-02  6.88426223E-02
  2.32184443E-01  4.67941348E-01  3.62311985E-01 -1.19332420E-01 -1.60854152E-01
  1.14345644E+00  1.00000000E+00  1.00000000E+00  1.83473713E-03  1.40373228E-02
  6.88426223E-02  2.32184443E-01  4.67941348E-01  3.62311985E-01 -1.19332420E-01
 -1.60854152E-01  1.14345644E+00  1.00000000E+00  1.00000000E+00  1.83473713E-03
  1.40373228E-02  6.88426223E-02  2.32184443E-01  4.67941348E-01  3.62311985E-01
 -1.19332420E-01 -1.60854152E-01  1.14345644E+00  1.00000000E+00  1.00000000E+00
  1.83473713E-03  1.40373228E-02  6.88426223E-02  2.32184443E-01  4.67941348E-01
  3.62311985E-01 -1.19332420E-01 -1.60854152E-01  1.14345644E+00  1.00000000E+00
  1.00000000E+00  1.83473713E-03  1.40373228E-02  6.88426223E-02  2.32184443E-01
  4.67941348E-01  3.62311985E-01 -1.19332420E-01 -1.60854152E-01  1.14345644E+00
  1.00000000E+00  1.00000000E+00  3.34946043E-02  2.34726953E-01  8.13757326E-01
  1.00000000E+00  3.34946043E-02  2.34726953E-01  8.13757326E-01  1.00000000E+00
  3.34946043E-02  2.34726953E-01  8.13757326E-01  1.00000000E+00  3.34946043E-02
  2.34726953E-01  8.13757326E-01  1.00000000E+00  3.34946043E-02  2.34726953E-01
  8.13757326E-01  1.00000000E+00  3.34946043E-02  2.34726953E-01  8.13757326E-01
  1.00000000E+00  3.34946043E-02  2.34726953E-01  8.13757326E-01  1.00000000E+00
P(S=P) Contraction coefficients            R   N=         105
  0.00000000E+00  0.00000000E+00  0.00000000E+00  0.00000000E+00  0.00000000E+00
  0.00000000E+00  7.08742682E-02  3.39752839E-01  7.27158577E-01  1.00000000E+00
  0.00000000E+00  0.00000000E+00  0.00000000E+00  0.00000000E+00  0.00000000E+00
  0.00000000E+00  0.00000000E+00  6.75797439E-02  3.23907296E-01  7.40895140E-01
  1.00000000E+00  0.00000000E+00  0.00000000E+00  0.00000000E+00  0.00000000E+00
  0.00000000E+00  0.00000000E+00  0.00000000E+00  6.89990666E-02  3.16423961E-01
  7.44308291E-01  1.00000000E+00  0.00000000E+00  0.00000000E+00  0.00000000E+00
  0.00000000E+00  0.00000000E+00  0.00000000E+00  0.00000000E+00  6.89990666E-02
  3.16423961E-01  7.44308291E-01  1.00000000E+00  0.00000000E+00  0.00000000E+00
  0.00000000E+00  0.00000000E+00  0.00000000E+00  0.00000000E+00  0.00000000E+00
  6.89990666E-02  3.16423961E-01  7.44308291E-01  1.00000000E+00  0.00000000E+00
  0.00000000E+00  0.00000000E+00  0.00000000E+00  0.00000000E+00  0.00000000E+00
  0.00000000E+00  6.89990666E-02  3.16423961E-01  7.44308291E-01  1.00000000E+00
  0.00000000E+00  0.00000000E+00  0.00000000E+00  0.00000000E+00  0.00000000E+00
  0.00000000E+00  0.00000000E+00  6.89990666E-02  3.16423961E-01  7.44308291E-01
  1.00000000E+00  0.00000000E+00  0.00000000E+00  0.00000000E+00  0.00000000E+00
  0.00000000E+00  0.00000000E+00  0.00000000E+00  0.00000000E+00  0.00000000E+00
  0.00000000E+00  0.00000000E+00  0.00000000E+00  0.00000000E+00  0.00000000E+00
  0.00000000E+00  0.00000000E+00  0.00000000E+00  0.00000000E+00  0.00000000E+00
  0.00000000E+00  0.00000000E+00  0.00000000E+00  0.00000000E+00  0.00000000E+00
  0.00000000E+00  0.00000000E+00  0.00000000E+00  0.00000000E+00  0.00000000E+00
Coordinates of each shell                  R   N=         126
 -1.67697088E+00 -2.08884272E+00 -2.32601744E-05 -1.67697088E+00 -2.08884272E+00
 -2.32601744E-05 -1.67697088E+00 -2.08884272E+00 -2.32601744E-05 -1.67697088E+00
 -2.08884272E+00 -2.32601744E-05 -5.62353534E-01  2.00062654E+00  3.30765962E-05
 -5.62353534E-01  2.00062654E+00  3.30765962E-05 -5.62353534E-01  2.00062654E+00
  3.30765962E-05 -5.62353534E-01  2.00062654E+00  3.30765962E-05  2.87402074E+00
 -1.30888538E+00  4.78381006E-05  2.87402074E+00 -1.30888538E+00  4.78381006E-05
  2.87402074E+00 -1.30888538E+00  4.78381006E-05  2.87402074E+00 -1.30888538E+00
  4.78381006E-05  2.30464197E-01 -3.39272444E-01  6.42713265E-06  2.30464197E-01
 -3.39272444E-01  6.42713265E-06  2.30464197E-01 -3.39272444E-01  6.42713265E-06
  2.30464197E-01 -3.39272444E-01  6.42713265E-06  4.79946578E+00  8.36416373E-01
 -4.31961501E-05  4.79946578E+00  8.36416373E-01 -4.31961501E-05  4.79946578E+00
  8.36416373E-01 -4.31961501E-05  4.79946578E+00  8.36416373E-01 -4.31961501E-05
 -3.85071126E+00 -6.78129660E-01 -2.52078065E-05 -3.85071126E+00 -6.78129660E-01
 -2.52078065E-05 -3.85071126E+00 -6.78129660E-01 -2.52078065E-05 -3.85071126E+00
 -6.78129660E-01 -2.52078065E-05 -3.18202656E+00  1.80409544E+00  9.07583207E-06
 -3.18202656E+00  1.80409544E+00  9.07583207E-06 -3.18202656E+00  1.80409544E+00
  9.07583207E-06 -3.18202656E+00  1.80409544E+00  9.07583207E-06  3.13691731E+00
 -2.52630952E+00  1.65621841E+00  3.13691731E+00 -2.52630952E+00  1.65621841E+00
  3.13691871E+00 -2.52646126E+00 -1.65600942E+00  3.13691871E+00 -2.52646126E+00
 -1.65600942E+00  4.56286101E+00  2.02982443E+00 -1.66570316E+00  4.56286101E+00
  2.02982443E+00 -1.66570316E+00  6.71732121E+00  6.88131745E-02 -3.92779857E-05
  6.71732121E+00  6.88131745E-02 -3.92779857E-05  4.56289952E+00  2.02993839E+00
  1.66554041E+00  4.56289952E+00  2.02993839E+00  1.66554041E+00 -5.60863066E+00
 -1.71015092E+00 -9.47206111E-06 -5.60863066E+00 -1.71015092E+00 -9.47206111E-06
 -4.38332271E+00  3.45535576E+00 -1.25629317E-05 -4.38332271E+00  3.45535576E+00
 -1.25629317E-05
Constraint Structure                       R   N=          42
 -1.67697088E+00 -2.08884272E+00 -2.32601744E-05 -5.62353534E-01  2.00062654E+00
  3.30765962E-05  2.87402074E+00 -1.30888538E+00  4.78381006E-05  2.30464197E-01
 -3.39272444E-01  6.42713265E-06  4.79946578E+00  8.36416373E-01 -4.31961501E-05
 -3.85071126E+00 -6.78129660E-01 -2.52078065E-05 -3.18202656E+00  1.80409544E+00
  9.07583207E-06  3.13691731E+00 -2.52630952E+00  1.65621841E+00  3.13691871E+00
 -2.52646126E+00 -1.65600942E+00  4.56286101E+00  2.02982443E+00 -1.66570316E+00
  6.71732121E+00  6.88131745E-02 -3.92779857E-05  4.56289952E+00  2.02993839E+00
  1.66554041E+00 -5.60863066E+00 -1.71015092E+00 -9.47206111E-06 -4.38332271E+00
  3.45535576E+00 -1.25629317E-05
Num ILSW                                   I              100
ILSW                                       I   N=         100
           0           1           0           0           2           0
           0           0           0           0           0          -1
           0           0           0           0           0           0
           0           0           0           0           1           0
           1           0           0           0           0           0
           0           0      100000           0          -1           0
           0           0           0           0           0           0
           0           0           0           1           1           0
           0           0           1           0           0           0
           0           0           4          40           0           0
           0           0           0           0           0           0
           0           0           0           0           0           0
           0           0           0           0           0           0
           0           0           0           0           0           0
           0           0           0           0           0           0
           0           0           0           0           0           0
           0           0           0           0
Num RLSW                                   I               40
RLSW                                       R   N=          40
  1.00000000E+00  1.00000000E+00  1.00000000E+00  1.00000000E+00  1.00000000E+00
  0.00000000E+00  0.00000000E+00  1.00000000E+00  0.00000000E+00  0.00000000E+00
  0.00000000E+00  0.00000000E+00  1.00000000E+00  0.00000000E+00  0.00000000E+00
  0.00000000E+00  0.00000000E+00  1.00000000E+00  0.00000000E+00  0.00000000E+00
  0.00000000E+00  0.00000000E+00  1.00000000E+00  0.00000000E+00  0.00000000E+00
  0.00000000E+00  0.00000000E+00  1.00000000E+00  0.00000000E+00  0.00000000E+00
  0.00000000E+00  0.00000000E+00  0.00000000E+00  0.00000000E+00  0.00000000E+00
  0.00000000E+00  0.00000000E+00  0.00000000E+00  1.00000000E+00  1.00000000E+00
MxBond                                     I                4
NBond                                      I   N=          14
           2           2           4           3           4           3
           3           1           1           1           1           1
           1           1
IBond                                      I   N=          56
           4           6           0           0           4           7
           0           0           4           5           8           9
           1           2           3           0           3          10
          11          12           1           7          13           0
           2           6          14           0           3           0
           0           0           3           0           0           0
           5           0           0           0           5           0
           0           0           5           0           0           0
           6           0           0           0           7           0
           0           0
RBond                                      R   N=          56
  1.50000000E+00  1.50000000E+00  0.00000000E+00  0.00000000E+00  1.50000000E+00
  1.00000000E+00  0.00000000E+00  0.00000000E+00  1.00000000E+00  1.00000000E+00
  1.00000000E+00  1.00000000E+00  1.50000000E+00  1.50000000E+00  1.00000000E+00
  0.00000000E+00  1.00000000E+00  1.00000000E+00  1.00000000E+00  1.00000000E+00
  1.50000000E+00  1.50000000E+00  1.00000000E+00  0.00000000E+00  1.00000000E+00
  1.50000000E+00  1.00000000E+00  0.00000000E+00  1.00000000E+00  0.00000000E+00
  0.00000000E+00  0.00000000E+00  1.00000000E+00  0.00000000E+00  0.00000000E+00
  0.00000000E+00  1.00000000E+00  0.00000000E+00  0.00000000E+00  0.00000000E+00
  1.00000000E+00  0.00000000E+00  0.00000000E+00  0.00000000E+00  1.00000000E+00
  0.00000000E+00  0.00000000E+00  0.00000000E+00  1.00000000E+00  0.00000000E+00
  0.00000000E+00  0.00000000E+00  1.00000000E+00  0.00000000E+00  0.00000000E+00
  0.00000000E+00
Virial Ratio                               R      2.002532041910409E+00
SCF Energy                                 R     -3.227097675530970E+02
MP2 Energy                                 R     -3.236923723334945E+02
Total Energy                               R     -3.236923723334945E+02
Post-SCF wavefunction norm                 R      1.629128317054532E+00
RMS Force                                  R      1.002498470044325E-06
RMS Density                                R      1.786353509881508E-09
External E-field                           R   N=          35
  0.00000000E+00  0.00000000E+00  0.00000000E+00  0.00000000E+00  0.00000000E+00
  0.00000000E+00  0.00000000E+00  0.00000000E+00  0.00000000E+00  0.00000000E+00
  0.00000000E+00  0.00000000E+00  0.00000000E+00  0.00000000E+00  0.00000000E+00
  0.00000000E+00  0.00000000E+00  0.00000000E+00  0.00000000E+00  0.00000000E+00
  0.00000000E+00  0.00000000E+00  0.00000000E+00  0.00000000E+00  0.00000000E+00
  0.00000000E+00  0.00000000E+00  0.00000000E+00  0.00000000E+00  0.00000000E+00
  0.00000000E+00  0.00000000E+00  0.00000000E+00  0.00000000E+00  0.00000000E+00
IOpCl                                      I                0
IROHF                                      I                0
Alpha Orbital Energies                     R   N=         119
 -2.06389595E+01 -1.55618202E+01 -1.13357767E+01 -1.12913083E+01 -1.12595078E+01
 -1.12470527E+01 -1.12201638E+01 -1.47420715E+00 -1.22284176E+00 -1.08058200E+00
 -9.95343992E-01 -8.81825461E-01 -8.24527962E-01 -7.76183858E-01 -7.14682727E-01
 -6.62423594E-01 -6.28668897E-01 -6.06516456E-01 -5.82232160E-01 -5.67809082E-01
 -5.24650462E-01 -5.12458472E-01 -5.02888001E-01 -4.51240890E-01 -4.42441876E-01
 -3.28276465E-01  1.59010931E-01  2.33110918E-01  2.40090502E-01  2.79837363E-01
  2.94733133E-01  2.98730765E-01  3.09787712E-01  3.16540089E-01  3.36560559E-01
  3.50783451E-01  3.89869778E-01  4.34093512E-01  4.46383450E-01  4.89783187E-01
  5.73833098E-01  6.63864821E-01  6.93143788E-01  7.37892927E-01  7.51591649E-01
  7.55759580E-01  7.82505188E-01  8.26465490E-01  8.27604956E-01  8.38427438E-01
  8.57102612E-01  8.62644937E-01  9.16495211E-01  9.35563979E-01  9.84531221E-01
  1.00824695E+00  1.05006874E+00  1.07418759E+00  1.08616824E+00  1.09544244E+00
  1.11053429E+00  1.12805294E+00  1.17425124E+00  1.19056341E+00  1.20204758E+00
  1.21093009E+00  1.23166253E+00  1.24525573E+00  1.26529774E+00  1.29243307E+00
  1.35881564E+00  1.48740954E+00  1.57293651E+00  1.58543990E+00  1.63812291E+00
  1.65309121E+00  1.65933961E+00  1.74988166E+00  1.78208760E+00  1.82286253E+00
  1.84519362E+00  1.85214280E+00  2.00825205E+00  2.12487184E+00  2.12556971E+00
  2.14718215E+00  2.18118108E+00  2.24670892E+00  2.30161351E+00  2.30767904E+00
  2.33242894E+00  2.35160136E+00  2.50070495E+00  2.51069886E+00  2.52924282E+00
  2.56251241E+00  2.60240092E+00  2.63322720E+00  2.65766984E+00  2.71464645E+00
  2.72384687E+00  2.80803269E+00  2.84512447E+00  2.94152560E+00  2.95576070E+00
  2.98858469E+00  3.04763927E+00  3.12386135E+00  3.21224648E+00  3.31190192E+00
  3.44110452E+00  3.53376552E+00  4.41227163E+00  4.54979842E+00  4.55422469E+00
  4.59203564E+00  4.73546954E+00  4.81416987E+00  4.97661067E+00
Alpha MO coefficients                      R   N=       14161
  9.94669358E-01  2.11960840E-02 -1.18691506E-04  1.28191158E-03  9.04591463E-09
  3.74962835E-03  9.02137944E-05 -7.63531618E-04 -5.42798418E-09 -4.09335389E-03
 -4.01198913E-03 -3.91371693E-03  1.15254401E-06 -1.38939288E-09 -8.07830900E-10
 -6.80326170E-06 -1.73761392E-05  1.62378638E-05  6.29480269E-05  1.23498970E-09
 -1.33016360E-05 -1.10431995E-04  2.31653901E-05 -2.26083918E-09  1.05090393E-05
 -6.85156850E-05 -3.29240480E-05 -4.24034570E-06  2.39253453E-10 -3.96789397E-10
 -3.26472369E-07  3.20243542E-05 -1.42153896E-05 -1.20376986E-05  1.73939920E-09
  2.24822370E-04  1.62152777E-04  1.58334578E-04 -1.34644907E-08 -5.51265941E-05
  1.20272292E-05 -1.51952331E-05 -4.41363064E-06 -1.44877704E-09 -1.88432454E-09
  6.66602317E-09  3.54704043E-04 -2.65695162E-04 -2.51613614E-04 -4.45541939E-09
 -3.49536440E-07 -8.66084900E-05  2.79071561E-04  7.06268876E-09 -2.71311091E-05
  4.03669243E-07 -4.19137232E-05 -2.52348809E-05  3.96237523E-10  3.35782315E-10
  4.40805302E-06  2.79816080E-05  9.45844613E-06 -4.45770457E-08  5.83157972E-10
 -2.50021741E-04  6.40130693E-05  9.93880504E-05 -5.54394017E-09 -5.74420237E-06
  4.35710598E-06  7.52334873E-06 -4.87638973E-06  1.78229984E-10 -3.07921777E-10
 -6.31817146E-06  3.32582749E-04  3.07882251E-04 -2.13119899E-04  8.85494519E-10
  4.02489303E-04  2.61984574E-04  6.52450735E-04  4.61912900E-09 -4.47393948E-05
  2.21436460E-06 -5.89040384E-05  7.54695335E-06  8.89079209E-10  1.32428963E-09
  7.11037472E-06  3.09484130E-05 -1.13861952E-05  6.35055580E-05  6.30956081E-10
 -8.03801908E-04 -3.31814916E-05  3.64045770E-04  5.33902714E-09  3.70921740E-06
 -5.12039675E-05 -1.93873705E-06 -1.04866610E-05 -5.05205435E-11 -9.70240020E-10
  2.40028285E-05 -1.98976439E-05  2.40057200E-05 -1.99128516E-05  7.48185029E-06
 -3.30006008E-06  1.14761504E-05  1.26474500E-05  7.48220384E-06 -3.29775097E-06
  3.46040108E-05  1.82844877E-04  1.18735979E-05 -5.55620540E-05 -4.72223685E-05
 -2.96920616E-04 -5.37129028E-05 -7.40493636E-05 -4.15197039E-10  1.29549540E-03
  1.39833751E-04  1.98766229E-04 -8.58530571E-10 -8.47325270E-05 -1.33690533E-04
 -2.37060861E-04 -1.34576631E-05  7.22174241E-10  1.23394538E-09  9.95241355E-01
  2.49280839E-02 -1.02837206E-03 -1.83152565E-03 -3.56763720E-08 -6.63028105E-03
  1.32997560E-03  2.57896447E-03  4.73388907E-08 -2.84215695E-03 -2.60506682E-03
 -3.08514488E-03 -5.36935004E-05  2.00940702E-09  5.48461298E-09 -2.80338144E-06
 -5.61638163E-05 -1.02652733E-05  8.21741770E-06 -3.48793731E-10  7.65917484E-04
 -6.67840094E-04 -3.75782562E-04 -3.20664964E-08  1.07327048E-04 -5.20843146E-05
  7.60594372E-07  5.49342466E-05  5.68105857E-09  3.90600232E-09  3.86037090E-05
  4.24992301E-04  3.59221152E-05 -2.14287344E-06  5.40996702E-10  2.40750881E-03
 -1.27255715E-03  2.34469253E-03  1.73878404E-08 -2.09650414E-04 -5.73707808E-04
 -3.23221009E-05  1.94325742E-04  6.38383179E-10 -6.72244839E-09  4.99108577E-06
  3.20835262E-05 -5.77230292E-05  2.02749300E-05 -3.14115382E-09  2.81303992E-04
  2.85561874E-04 -2.73274418E-04  3.50472359E-08 -5.78424968E-06  9.73402026E-06
 -4.93489353E-06 -8.95309635E-06 -1.55048636E-09 -6.51332704E-10  2.38697427E-05
  3.65606540E-05 -5.93533750E-06 -6.42389314E-05 -2.17478826E-09 -2.28897054E-03
 -1.35659692E-03 -9.69252146E-04 -1.24377953E-08  5.65140846E-05  9.51465932E-06
  3.42181963E-05  1.01295240E-05 -6.00531183E-10 -1.27012221E-09  3.89865269E-06
  3.43429541E-04  1.74891146E-04  2.61170495E-05  6.43939970E-10  3.78054794E-03
  1.40659309E-03 -1.61411316E-03 -4.38684956E-09 -4.48262446E-04 -5.77693171E-05
 -1.01604002E-04 -5.82215567E-06 -3.91232610E-09  1.55817419E-09 -2.00426480E-05
 -8.68655684E-05 -2.00550991E-05 -8.68791637E-05  4.24596783E-05 -9.45985896E-06
 -4.91895633E-05 -1.98674952E-04  4.24584859E-05 -9.49334941E-06 -6.84133490E-05
 -4.64926482E-04  3.28437974E-05  4.46050204E-04 -8.34929288E-06  1.03475855E-03
  1.30975305E-04  2.29873785E-04  1.79292315E-09 -3.65035193E-03 -9.18266294E-04
 -2.25359329E-03 -1.78494169E-08 -3.80685727E-05 -1.84405107E-04  7.62629587E-04
 -4.84124335E-04 -1.02784733E-08 -1.10827065E-08 -3.53855609E-04  2.58188843E-04
 -1.47339295E-05  3.07757008E-05 -1.24566629E-10 -5.28984049E-04  1.31329481E-03
  5.71898834E-04  3.18063853E-08 -1.85423314E-04 -2.61551537E-04  2.07283369E-04
 -1.78904096E-04 -5.90471654E-09 -1.30085715E-08  3.72628085E-03  2.36108078E-04
  1.50906463E-04 -7.70305482E-05  5.59356949E-09  2.91911289E-03 -1.60740288E-03
  8.26472371E-04 -2.30040840E-08 -5.80696144E-04 -1.81029383E-04 -1.01381868E-04
  7.78929884E-05 -9.67084747E-09  2.21950992E-09  9.95765433E-01  2.63575120E-02
 -1.06832793E-03 -7.06652232E-04 -8.56954214E-09 -6.88569063E-03 -3.18827195E-03
 -1.72497699E-04 -5.71585875E-08 -1.03837102E-03 -1.11019332E-03 -2.28017858E-03
  1.92373382E-05  1.27394312E-08  1.28310930E-08 -4.75395465E-05 -2.10828896E-04
  8.63779513E-05  1.75302798E-05 -1.34182118E-09  1.83330879E-04 -4.93139690E-04
 -5.14998526E-05  1.23501516E-08  6.74673980E-05  1.05955186E-05 -6.23742876E-05
  2.41746766E-05  8.39421519E-10 -4.52451455E-09 -4.25753448E-04 -1.31118970E-04
  2.02170584E-04 -1.44128135E-04  2.82092059E-10  1.34577571E-03  1.22664079E-03
  1.11010942E-03  1.15463191E-08  2.64551239E-04  3.09471792E-05 -1.23196533E-05
 -8.43852675E-06  3.51193243E-09  2.15584643E-09 -1.06730633E-04  5.43968433E-06
  2.37658714E-04  8.37585074E-05  1.68254254E-09 -5.58440415E-04  5.15565279E-04
  5.30800632E-04  1.34063066E-08  2.45693761E-04 -2.34696969E-05  3.75130069E-05
 -3.56718232E-05  9.34664745E-10 -2.39601673E-09 -1.20310624E-04  3.37498126E-04
 -1.20300880E-04  3.37484228E-04 -6.04160038E-05  2.98384055E-05  1.63095786E-05
  3.11522409E-04 -6.04022189E-05  2.97914862E-05  7.75153441E-05  6.14138262E-04
  8.96441877E-06  9.33952398E-06 -4.22400107E-05  8.81948228E-04 -2.16167829E-04
  1.74337549E-04  1.02225993E-10 -2.74732612E-03  1.10207368E-03 -1.88959723E-03
 -6.84857896E-09 -2.84858080E-04 -1.51412597E-04  6.37571336E-04  4.15548324E-04
 -4.12074497E-09 -3.96718445E-09  1.01913675E-04  3.27982117E-04 -8.17864762E-05
 -8.62242464E-06 -1.88325980E-09 -3.97520391E-03  2.36866460E-04  1.65470714E-03
  2.71072618E-08  3.45238963E-04  9.13068634E-05  2.39996426E-04  5.71231882E-05
  1.21275978E-09 -2.56229879E-09  2.88326269E-05 -1.01357150E-04 -1.21471957E-04
 -2.40534843E-05  2.24996105E-09  2.60423128E-03 -7.90740786E-04  4.86329283E-04
 -5.57188422E-08 -4.90440168E-06 -8.93431981E-06 -2.42667958E-05  3.66488654E-05
  9.49541645E-10 -1.04194254E-09  4.45864049E-04 -1.63250115E-04 -1.33978053E-05
 -4.93088675E-05 -1.09454954E-09  2.47352480E-03 -4.11204056E-03  2.11628809E-03
 -4.08148337E-09  2.95751784E-04  1.41190461E-04 -5.29066902E-05  5.09812037E-05
  1.98744467E-09  4.05257742E-09 -1.87122207E-05 -1.30622671E-05  5.84538202E-05
  1.62758971E-05 -2.26476274E-09 -1.87439521E-04 -4.79462638E-05  1.70778300E-04
  9.84063880E-09 -1.99034521E-05 -2.90989193E-05 -2.45069040E-05 -2.32547818E-05
  1.41735354E-10 -3.31830121E-10  9.95447147E-01  2.70394980E-02  1.42588882E-03
 -8.08991557E-04  2.05930061E-08 -9.08582432E-03 -2.79486252E-04 -1.50888087E-03
 -4.05565401E-08 -1.27676211E-03 -1.47515427E-03 -2.31151674E-03  1.27220629E-06