opt=Tight                                                               
Freq      RMP2-FC                                                     6-31G(d)            
Number of atoms                            I                6
Info1-9                                    I   N=           9
          15          15        1002           0           0         100
           6           2           1
Charge                                     I               -2
Multiplicity                               I                1
Number of electrons                        I               50
Number of alpha electrons                  I               25
Number of beta electrons                   I               25
Number of basis functions                  I               81
Number of independent functions            I               81
Number of point charges in /Mol/           I                0
Number of translation vectors              I                0
Atomic numbers                             I   N=           6
          15           8           8           8           8           1
Nuclear charges                            R   N=           6
  1.50000000E+01  8.00000000E+00  8.00000000E+00  8.00000000E+00  8.00000000E+00
  1.00000000E+00
Current cartesian coordinates              R   N=          18
  2.52475192E-01 -1.73644354E-06  1.26554189E-01 -2.38149279E+00  2.65516337E-05
 -1.79354543E+00 -9.65647261E-01 -3.74411318E-05  2.77542408E+00  1.67122642E+00
  2.44095182E+00 -5.73914573E-01  1.67122304E+00 -2.44093841E+00 -5.73980148E-01
 -3.74960311E+00  5.89383875E-06 -5.70184223E-01
Force Field                                I                0
Int Atom Types                             I   N=           6
           0           0           0           0           0           0
MM charges                                 R   N=           6
  0.00000000E+00  0.00000000E+00  0.00000000E+00  0.00000000E+00  0.00000000E+00
  0.00000000E+00
Integer atomic weights                     I   N=           6
          31          16          16          16          16           1
Real atomic weights                        R   N=           6
  3.09737634E+01  1.59949146E+01  1.59949146E+01  1.59949146E+01  1.59949146E+01
  1.00782504E+00
Atom fragment info                         I   N=           6
           0           0           0           0           0           0
Atom residue num                           I   N=           6
           0           0           0           0           0           0
Nuclear spins                              I   N=           6
           1           0           0           0           0           1
Nuclear ZEff                               R   N=           6
 -1.29400000E+01 -5.60000000E+00 -5.60000000E+00 -5.60000000E+00 -5.60000000E+00
 -1.00000000E+00
Nuclear QMom                               R   N=           6
  0.00000000E+00  0.00000000E+00  0.00000000E+00  0.00000000E+00  0.00000000E+00
  0.00000000E+00
Nuclear GFac                               R   N=           6
  1.13160000E+00  0.00000000E+00  0.00000000E+00  0.00000000E+00  0.00000000E+00
  2.79284600E+00
MicOpt                                     I   N=           6
          -1          -1          -1          -1          -1          -1
Number of contracted shells                I               23
Number of primitive shells                 I               65
Pure/Cartesian d shells                    I                1
Pure/Cartesian f shells                    I                0
Highest angular momentum                   I                2
Largest degree of contraction              I                6
Shell types                                I   N=          23
           0          -1          -1          -1           2           0
          -1          -1           2           0          -1          -1
           2           0          -1          -1           2           0
          -1          -1           2           0           0
Number of primitives per shell             I   N=          23
           6           6           3           1           1           6
           3           1           1           6           3           1
           1           6           3           1           1           6
           3           1           1           3           1
Shell to atom map                          I   N=          23
           1           1           1           1           1           2
           2           2           2           3           3           3
           3           4           4           4           4           5
           5           5           5           6           6
Primitive exponents                        R   N=          65
  1.94133000E+04  2.90942000E+03  6.61364000E+02  1.85759000E+02  5.91943000E+01
  2.00310000E+01  3.39478000E+02  8.10101000E+01  2.58780000E+01  9.45221000E+00
  3.66566000E+00  1.46746000E+00  2.15623000E+00  7.48997000E-01  2.83145000E-01
  9.98317000E-02  5.50000000E-01  5.48467166E+03  8.25234946E+02  1.88046958E+02
  5.29645000E+01  1.68975704E+01  5.79963534E+00  1.55396162E+01  3.59993359E+00
  1.01376175E+00  2.70005823E-01  8.00000000E-01  5.48467166E+03  8.25234946E+02
  1.88046958E+02  5.29645000E+01  1.68975704E+01  5.79963534E+00  1.55396162E+01
  3.59993359E+00  1.01376175E+00  2.70005823E-01  8.00000000E-01  5.48467166E+03
  8.25234946E+02  1.88046958E+02  5.29645000E+01  1.68975704E+01  5.79963534E+00
  1.55396162E+01  3.59993359E+00  1.01376175E+00  2.70005823E-01  8.00000000E-01
  5.48467166E+03  8.25234946E+02  1.88046958E+02  5.29645000E+01  1.68975704E+01
  5.79963534E+00  1.55396162E+01  3.59993359E+00  1.01376175E+00  2.70005823E-01
  8.00000000E-01  1.87311370E+01  2.82539436E+00  6.40121692E-01  1.61277759E-01
Contraction coefficients                   R   N=          65
  1.85159892E-03  1.42061917E-02  6.99994593E-02  2.40078860E-01  4.84761718E-01
  3.35199805E-01 -2.78217010E-03 -3.60499014E-02 -1.16631004E-01  9.68328036E-02
  6.14418023E-01  4.03798015E-01 -2.52924114E-01  3.28518447E-02  1.08125476E+00
  1.00000000E+00  1.00000000E+00  1.83107443E-03  1.39501722E-02  6.84450781E-02
  2.32714336E-01  4.70192898E-01  3.58520853E-01 -1.10777550E-01 -1.48026263E-01
  1.13076702E+00  1.00000000E+00  1.00000000E+00  1.83107443E-03  1.39501722E-02
  6.84450781E-02  2.32714336E-01  4.70192898E-01  3.58520853E-01 -1.10777550E-01
 -1.48026263E-01  1.13076702E+00  1.00000000E+00  1.00000000E+00  1.83107443E-03
  1.39501722E-02  6.84450781E-02  2.32714336E-01  4.70192898E-01  3.58520853E-01
 -1.10777550E-01 -1.48026263E-01  1.13076702E+00  1.00000000E+00  1.00000000E+00
  1.83107443E-03  1.39501722E-02  6.84450781E-02  2.32714336E-01  4.70192898E-01
  3.58520853E-01 -1.10777550E-01 -1.48026263E-01  1.13076702E+00  1.00000000E+00
  1.00000000E+00  3.34946043E-02  2.34726953E-01  8.13757326E-01  1.00000000E+00
P(S=P) Contraction coefficients            R   N=          65
  0.00000000E+00  0.00000000E+00  0.00000000E+00  0.00000000E+00  0.00000000E+00
  0.00000000E+00  4.56461619E-03  3.36935719E-02  1.39754883E-01  3.39361717E-01
  4.50920624E-01  2.38585801E-01 -1.77653127E-02  2.74058196E-01  7.85421563E-01
  1.00000000E+00  0.00000000E+00  0.00000000E+00  0.00000000E+00  0.00000000E+00
  0.00000000E+00  0.00000000E+00  0.00000000E+00  7.08742682E-02  3.39752839E-01
  7.27158577E-01  1.00000000E+00  0.00000000E+00  0.00000000E+00  0.00000000E+00
  0.00000000E+00  0.00000000E+00  0.00000000E+00  0.00000000E+00  7.08742682E-02
  3.39752839E-01  7.27158577E-01  1.00000000E+00  0.00000000E+00  0.00000000E+00
  0.00000000E+00  0.00000000E+00  0.00000000E+00  0.00000000E+00  0.00000000E+00
  7.08742682E-02  3.39752839E-01  7.27158577E-01  1.00000000E+00  0.00000000E+00
  0.00000000E+00  0.00000000E+00  0.00000000E+00  0.00000000E+00  0.00000000E+00
  0.00000000E+00  7.08742682E-02  3.39752839E-01  7.27158577E-01  1.00000000E+00
  0.00000000E+00  0.00000000E+00  0.00000000E+00  0.00000000E+00  0.00000000E+00
Coordinates of each shell                  R   N=          69
  2.52475192E-01 -1.73644354E-06  1.26554189E-01  2.52475192E-01 -1.73644354E-06
  1.26554189E-01  2.52475192E-01 -1.73644354E-06  1.26554189E-01  2.52475192E-01
 -1.73644354E-06  1.26554189E-01  2.52475192E-01 -1.73644354E-06  1.26554189E-01
 -2.38149279E+00  2.65516337E-05 -1.79354543E+00 -2.38149279E+00  2.65516337E-05
 -1.79354543E+00 -2.38149279E+00  2.65516337E-05 -1.79354543E+00 -2.38149279E+00
  2.65516337E-05 -1.79354543E+00 -9.65647261E-01 -3.74411318E-05  2.77542408E+00
 -9.65647261E-01 -3.74411318E-05  2.77542408E+00 -9.65647261E-01 -3.74411318E-05
  2.77542408E+00 -9.65647261E-01 -3.74411318E-05  2.77542408E+00  1.67122642E+00
  2.44095182E+00 -5.73914573E-01  1.67122642E+00  2.44095182E+00 -5.73914573E-01
  1.67122642E+00  2.44095182E+00 -5.73914573E-01  1.67122642E+00  2.44095182E+00
 -5.73914573E-01  1.67122304E+00 -2.44093841E+00 -5.73980148E-01  1.67122304E+00
 -2.44093841E+00 -5.73980148E-01  1.67122304E+00 -2.44093841E+00 -5.73980148E-01
  1.67122304E+00 -2.44093841E+00 -5.73980148E-01 -3.74960311E+00  5.89383875E-06
 -5.70184223E-01 -3.74960311E+00  5.89383875E-06 -5.70184223E-01
Constraint Structure                       R   N=          18
  2.52475192E-01 -1.73644354E-06  1.26554189E-01 -2.38149279E+00  2.65516337E-05
 -1.79354543E+00 -9.65647261E-01 -3.74411318E-05  2.77542408E+00  1.67122642E+00
  2.44095182E+00 -5.73914573E-01  1.67122304E+00 -2.44093841E+00 -5.73980148E-01
 -3.74960311E+00  5.89383875E-06 -5.70184223E-01
Num ILSW                                   I              100
ILSW                                       I   N=         100
           0           1           0           0           2           0
           0           0           0           0           0          -1
           0           0           0           0           0           0
           0           0           0           0           1           0
           1           0           0           0           0           0
           0           0      100000           0          -1           0
           0           0           0           0           0           0
           0           0           0           1           1           0
           0           0           1           0           0           0
           0           0           4          40           0           0
           0           0           0           0           0           0
           0           0           0           0           0           0
           0           0           0           0           0           0
           0           0           0           0           0           0
           0           0           0           0           0           0
           0           0           0           0           0           0
           0           0           0           0
Num RLSW                                   I               40
RLSW                                       R   N=          40
  1.00000000E+00  1.00000000E+00  1.00000000E+00  1.00000000E+00  1.00000000E+00
  0.00000000E+00  0.00000000E+00  1.00000000E+00  0.00000000E+00  0.00000000E+00
  0.00000000E+00  0.00000000E+00  1.00000000E+00  0.00000000E+00  0.00000000E+00
  0.00000000E+00  0.00000000E+00  1.00000000E+00  0.00000000E+00  0.00000000E+00
  0.00000000E+00  0.00000000E+00  1.00000000E+00  0.00000000E+00  0.00000000E+00
  0.00000000E+00  0.00000000E+00  1.00000000E+00  0.00000000E+00  0.00000000E+00
  0.00000000E+00  0.00000000E+00  0.00000000E+00  0.00000000E+00  0.00000000E+00
  0.00000000E+00  0.00000000E+00  0.00000000E+00  1.00000000E+00  1.00000000E+00
MxBond                                     I                4
NBond                                      I   N=           6
           4           2           1           1           1           1
IBond                                      I   N=          24
           2           3           4           5           1           6
           0           0           1           0           0           0
           1           0           0           0           1           0
           0           0           2           0           0           0
RBond                                      R   N=          24
  1.00000000E+00  1.00000000E+00  1.00000000E+00  1.00000000E+00  1.00000000E+00
  1.00000000E+00  0.00000000E+00  0.00000000E+00  1.00000000E+00  0.00000000E+00
  0.00000000E+00  0.00000000E+00  1.00000000E+00  0.00000000E+00  0.00000000E+00
  0.00000000E+00  1.00000000E+00  0.00000000E+00  0.00000000E+00  0.00000000E+00
  1.00000000E+00  0.00000000E+00  0.00000000E+00  0.00000000E+00
Virial Ratio                               R      2.002475785494725E+00
SCF Energy                                 R     -6.410689580425939E+02
MP2 Energy                                 R     -6.419086170269205E+02
Total Energy                               R     -6.419086170269205E+02
Post-SCF wavefunction norm                 R      1.575407272086810E+00
RMS Force                                  R      5.425634424541250E-06
RMS Density                                R      4.293001416751369E-10
External E-field                           R   N=          35
  0.00000000E+00  0.00000000E+00  0.00000000E+00  0.00000000E+00  0.00000000E+00
  0.00000000E+00  0.00000000E+00  0.00000000E+00  0.00000000E+00  0.00000000E+00
  0.00000000E+00  0.00000000E+00  0.00000000E+00  0.00000000E+00  0.00000000E+00
  0.00000000E+00  0.00000000E+00  0.00000000E+00  0.00000000E+00  0.00000000E+00
  0.00000000E+00  0.00000000E+00  0.00000000E+00  0.00000000E+00  0.00000000E+00
  0.00000000E+00  0.00000000E+00  0.00000000E+00  0.00000000E+00  0.00000000E+00
  0.00000000E+00  0.00000000E+00  0.00000000E+00  0.00000000E+00  0.00000000E+00
IOpCl                                      I                0
IROHF                                      I                0
Alpha Orbital Energies                     R   N=          81
 -7.99847341E+01 -2.05105233E+01 -2.04246778E+01 -2.04235023E+01 -2.04234842E+01
 -7.50386258E+00 -5.40324765E+00 -5.40167623E+00 -5.40147556E+00 -1.30093616E+00
 -1.21959838E+00 -1.16227209E+00 -1.15989475E+00 -6.70057327E-01 -5.88992322E-01
 -5.34352969E-01 -5.16483764E-01 -4.86509934E-01 -4.49966767E-01 -3.98994054E-01
 -3.96968959E-01 -3.93905824E-01 -3.58349900E-01 -3.50327152E-01 -3.26018709E-01
  2.74745614E-01  3.43583123E-01  3.92546048E-01  3.99715786E-01  4.32621468E-01
  5.47986542E-01  6.07554783E-01  6.75001317E-01  6.84031454E-01  9.81243535E-01
  1.00525460E+00  1.09719862E+00  1.12525527E+00  1.12624957E+00  1.17207615E+00
  1.23595053E+00  1.25246428E+00  1.36875545E+00  1.39121785E+00  1.39145397E+00
  1.39280314E+00  1.39640656E+00  1.42211486E+00  1.47290657E+00  1.56885927E+00
  1.61230358E+00  1.61675940E+00  1.62038121E+00  1.68653279E+00  1.69683438E+00
  1.87103009E+00  2.09874505E+00  2.14373457E+00  2.15707514E+00  2.17228775E+00
  2.20241266E+00  2.20536662E+00  2.21804029E+00  2.22265443E+00  2.22412112E+00
  2.24033538E+00  2.47506538E+00  2.50748372E+00  2.52451515E+00  2.69378383E+00
  2.70433040E+00  2.72716286E+00  2.89407704E+00  3.12044201E+00  3.24285620E+00
  3.25009188E+00  3.95858568E+00  4.11658520E+00  4.20746746E+00  4.21473047E+00
  4.37428546E+00
Alpha MO coefficients                      R   N=        6561
  9.96430489E-01  1.35006494E-02 -3.30474187E-05  2.85129435E-10 -1.92102063E-05
 -2.18586976E-02  4.55630278E-05 -6.48733524E-12  2.32177649E-06  1.70648528E-03
  3.57166961E-05 -8.99499820E-10  5.85485681E-05  7.42729921E-03  7.42542679E-03
  7.45324937E-03 -4.27731084E-10  2.95050543E-05 -3.88720149E-10 -3.36275502E-05
 -1.26612027E-04 -1.76405051E-05  5.97207460E-10 -3.70363906E-05  9.85187869E-04
  2.61122674E-04 -5.50365462E-09  3.55839908E-04 -1.42037052E-04 -1.21482556E-04
 -1.23804339E-04  1.31489632E-09 -8.48408357E-05 -3.75784555E-11 -1.30338227E-05
 -1.11804648E-04 -5.51533001E-05 -1.68861416E-09  1.24448760E-04  8.25860653E-04
  1.95212996E-04  6.50302527E-09 -4.79565008E-04 -6.64152023E-05 -3.79808225E-05
 -1.47361173E-04 -8.62899791E-10  6.56358098E-05  1.70518069E-09 -1.35907450E-05
 -1.14779994E-04  6.78036892E-05  1.18452561E-04 -3.25749259E-05  8.37631792E-04
 -2.58205744E-04 -4.33997155E-04  1.12587022E-04 -6.98566516E-05 -1.39733036E-04
 -4.76005310E-05 -6.47780741E-05  2.02109171E-05  3.60011872E-05 -1.35907214E-05
 -1.14779924E-04  6.78035132E-05 -1.18451778E-04 -3.25780829E-05  8.37631455E-04
 -2.58205088E-04  4.33994441E-04  1.12598600E-04 -6.98564056E-05 -1.39731445E-04
 -4.76021364E-05  6.47774327E-05  2.02126243E-05 -3.60040778E-05 -8.38402799E-05
 -1.81924725E-04  6.66510640E-06 -3.25954012E-05  6.16100403E-05 -5.99536295E-10
  4.07550940E-05  9.24198575E-06 -2.60991146E-04  2.44764698E-09 -1.65967095E-04
 -4.98734611E-04  4.96438016E-05 -6.36545775E-09  3.93685262E-04  1.99007843E-04
 -2.80223330E-05  6.01117186E-05 -2.39342159E-09  1.65457861E-04 -1.46919933E-09
  9.94639204E-01  2.10591642E-02 -2.15340038E-04 -1.69015999E-08  1.03309146E-03
  4.28953596E-03  1.69489407E-04  7.79679992E-09 -4.72935105E-04 -4.21070713E-03
 -3.94798736E-03 -4.11896819E-03 -4.96223269E-10  1.48707349E-05  3.19000963E-09
 -1.05419119E-04  1.09385965E-05  1.97910083E-05 -3.19766496E-10  1.84672840E-05
 -4.77505574E-05 -1.39036644E-05  8.13190512E-10 -4.09794370E-05  7.54171370E-06
  6.37839357E-06 -1.04184798E-05  4.20413466E-10 -2.87875027E-05  2.60900563E-10
 -8.87191223E-05 -4.28081996E-05 -6.39717976E-06  2.93471793E-06  1.40486652E-05
  2.77752722E-04  1.90629653E-05 -7.24411127E-05 -3.71805873E-05 -5.54120623E-05
 -7.57877724E-06 -2.76223184E-05 -1.37082103E-05 -1.97874556E-05 -6.54681693E-07
 -8.87190645E-05 -4.28079766E-05 -6.39714926E-06 -2.93513096E-06  1.40486758E-05
  2.77751307E-04  1.90630912E-05  7.24421908E-05 -3.71789497E-05 -5.54118111E-05
 -7.57863449E-06 -2.76221581E-05  1.37087630E-05 -1.97870260E-05  6.55321212E-07
  3.72329151E-04 -1.49769729E-04  1.69314096E-05 -6.43010509E-05  1.70788154E-05
  4.65794098E-10 -3.41323368E-05  5.96401833E-04 -1.68482094E-04 -4.78329915E-09
  3.49721740E-04 -4.15984694E-04  1.95431325E-04  4.43669790E-09 -3.16698213E-04
 -1.29510846E-04 -1.73773142E-04 -2.07296715E-05  8.99230778E-10 -7.01702741E-05
 -2.35595618E-09  1.02584669E-04 -1.30516765E-05 -1.00587427E-06  2.77216939E-10
 -1.95883462E-05  1.02918884E-04 -1.26541812E-05 -4.15650138E-10  2.68500362E-05
 -5.74256271E-06 -1.21968586E-05 -4.98886502E-05  1.69342200E-10 -1.11700887E-05
  5.88027761E-10  9.94630613E-01  2.08971293E-02  4.01005529E-04  1.20605309E-08
 -8.85975478E-04  4.20328237E-03 -1.68775968E-04 -4.77524965E-09  3.48377637E-04
 -4.00014537E-03 -3.96208367E-03 -4.07927947E-03 -8.75803392E-10  6.19065319E-05
  1.85103143E-09 -7.04106645E-03 -1.40486823E-04  9.49540391E-06 -1.23312141E-06
 -1.73775532E-05 -3.07172397E-05 -2.22505536E-05  7.67445196E-06  2.69858941E-05
  3.25763453E-05  4.17843841E-05  1.45996024E-05 -1.22162293E-06  1.59482557E-05
  1.04016268E-05 -7.04087659E-03 -1.40482892E-04  9.49534250E-06  1.23372419E-06
 -1.73774880E-05 -3.07160538E-05 -2.22505430E-05 -7.67525123E-06  2.69856408E-05
  3.25754879E-05  4.17839978E-05  1.45982538E-05  1.22125163E-06  1.59483126E-05
 -1.04008394E-05 -2.02399700E-05  1.04456992E-05  2.23681707E-08 -8.63311490E-08
 -2.17676874E-08 -4.34040046E-05  1.20855775E-08  7.88920116E-07  2.35315637E-07
  4.53827338E-04 -1.17261425E-07 -4.96091592E-07 -2.09678196E-07 -4.43681527E-04
  1.30685428E-07 -1.64607728E-07 -6.95813614E-08 -2.02059210E-07  1.10744655E-04
 -1.63974412E-08 -5.94347037E-05  9.92291647E-08 -9.60748810E-09 -1.02965945E-08
 -1.80468582E-05 -2.16787046E-10  9.02344269E-08  1.35938681E-09  3.14942834E-05
 -9.55719723E-09 -3.27785066E-08 -2.36889487E-08 -5.44446444E-09 -2.99496133E-05
 -5.21979943E-09 -6.11538104E-06  9.17919490E-06  2.06262738E-07 -3.19029352E-09
 -2.42757867E-05 -1.07274420E-08  1.70094036E-08  5.14185625E-09  4.67189991E-05
  1.94986649E-09 -3.49028299E-08 -4.07683783E-08 -2.34046449E-08 -2.14401867E-05
  1.30595517E-08  2.16312465E-05  7.03982411E-01  1.47835040E-02 -3.27639287E-04
 -5.89880036E-04  1.61951423E-04  2.97623927E-03  1.16989644E-04  2.45327484E-04
 -5.67447501E-05 -2.83972430E-03 -2.85987549E-03 -2.82360869E-03 -5.42694266E-05
  9.84710591E-06  2.72205244E-05 -7.02705510E-01 -1.47566621E-02  3.27010799E-04
 -5.88835432E-04 -1.61653748E-04 -2.97087555E-03 -1.16723451E-04  2.44928127E-04
  5.66021464E-05  2.83460900E-03  2.85463334E-03  2.81851819E-03 -5.42025793E-05
 -9.83235646E-06  2.71836654E-05  4.69810890E-09 -2.26560425E-08  2.46389900E-05
 -9.50805747E-05 -2.39400546E-05  3.92260949E-08  1.39532930E-05  8.69051623E-04
  2.58829670E-04 -4.10310313E-07 -1.35901132E-04 -5.46866823E-04 -2.30443089E-04
  4.00869436E-07  1.50429102E-04 -1.81442317E-04 -7.80248937E-05 -2.21065119E-04
 -1.00183024E-07 -1.96734305E-05  5.61908425E-08  1.09325584E-04 -1.04960275E-05
 -1.13674062E-05  1.64009666E-08  6.91315493E-08  9.89182843E-05  1.70187565E-06
 -2.84818334E-08 -1.10905796E-05 -3.59608897E-05 -2.61810719E-05 -5.73658570E-06
  2.72600965E-08 -5.26268986E-06  5.23100097E-09  9.96378351E-03  2.24035029E-04
 -3.57707127E-06  2.22007924E-08 -1.13012879E-05  1.85843823E-05  5.67688554E-06
 -4.24057705E-08  1.38761048E-06 -3.79229945E-05 -4.38598324E-05 -2.58542333E-05
  1.92749808E-08  1.47089822E-05 -1.99520553E-08  7.02673606E-01  1.47710076E-02
 -3.45439279E-04 -5.72660736E-04  1.72402900E-04  2.95176813E-03  1.46262606E-04
  2.18966215E-04 -8.20388543E-05 -2.81488036E-03 -2.88417718E-03 -2.80197727E-03
 -3.65867345E-05  8.87540498E-06  2.08878969E-05  7.03950567E-01  1.47978236E-02
 -3.46032818E-04  5.73726541E-04  1.72711853E-04  2.95716680E-03  1.46474478E-04
 -2.19409226E-04 -8.21475680E-05 -2.82003135E-03 -2.88936383E-03 -2.80710003E-03
  3.66848331E-05  8.89419765E-06 -2.09398343E-05  5.15382826E-06 -2.44439246E-05
 -2.76180484E-01  1.03105764E+00 -2.75742845E-03  3.18623884E-08 -2.06323426E-03
  1.53522850E-02 -6.52952024E-04  5.60334848E-09 -3.58203418E-04 -1.95616672E-03
  8.72871588E-05  3.68481737E-10 -1.62328459E-05 -4.06629097E-04 -7.98010773E-04
 -5.98789974E-04 -3.27902128E-09  2.40000484E-04 -3.33231026E-09 -2.60998698E-05
  5.24061718E-04  2.61390845E-04 -3.56175993E-09  2.35864237E-04 -1.67462228E-03
 -4.70004841E-04  1.05492324E-08 -6.83439350E-04  1.61194347E-04  2.97703894E-04
  2.15550130E-04 -6.08294539E-10  3.05174910E-05  1.53910729E-09 -2.18214443E-04
  5.16872884E-04  3.18916907E-04  9.39253566E-09 -6.96342625E-04 -9.77832880E-04
 -1.67636780E-04 -6.54163845E-09  4.80602221E-04  1.73903458E-04  5.50265269E-05
  5.27326067E-04  3.79200506E-09 -2.82863969E-04 -7.35214640E-09 -2.20837869E-04
  5.25031483E-04 -3.80250095E-04 -6.61520386E-04  1.88556979E-04 -9.83117706E-04
  2.37370440E-04  3.98440530E-04 -8.89799525E-05  1.92738507E-04  5.04299160E-04
  9.61520488E-05  2.92588362E-04 -9.17920656E-05 -1.60833770E-04 -2.20837928E-04
  5.25031301E-04 -3.80249180E-04  6.61515893E-04  1.88574753E-04 -9.83116738E-04
  2.37369640E-04 -3.98438148E-04 -8.89904642E-05  1.92737663E-04  5.04292374E-04
  9.61593667E-05 -2.92585515E-04 -9.17997381E-05  1.60846617E-04  1.73897651E-04
  3.79641543E-04 -1.03576737E-03  3.98224582E-03  7.71055123E-01 -8.36437878E-06
  6.28124919E-01 -2.22211281E-03  1.52192337E-02 -1.62479119E-07  1.21389968E-02
 -6.14246251E-05 -2.50958499E-03  2.52290077E-08 -1.93504832E-03  7.14622274E-06
  1.44530148E-03  7.17049517E-04  1.66106394E-08 -1.13207069E-03  1.19841603E-08
  2.44774373E-04 -1.07102777E-03 -7.17986429E-04  9.32617832E-09 -6.14951440E-04
  2.94110971E-03  1.05517856E-03 -2.24440784E-08  1.45361443E-03 -3.47774374E-04
 -3.55571530E-04 -3.57166118E-04  4.85294951E-09 -3.15022663E-04 -3.59528534E-10
 -2.10366411E-04  3.10588541E-04  5.15208126E-04  4.44729932E-09 -3.24193445E-04
 -2.79393544E-04 -5.22934409E-04 -1.97262660E-09  1.44785077E-04 -2.23800399E-05
 -8.28379791E-05  2.65726597E-04  1.28092127E-09 -9.35704601E-05 -5.46302360E-09
 -1.97022656E-04  2.83796694E-04  4.89852773E-06 -4.42434101E-04  3.51650582E-04
 -2.46238452E-04 -6.73366835E-05  3.55835017E-04 -3.54723209E-04  3.05043979E-05
  1.16068151E-04 -5.54548005E-05  1.46736378E-04 -6.97215780E-06 -5.43611714E-05
 -1.97021737E-04  2.83795734E-04  4.90038375E-06  4.42422931E-04  3.51661836E-04
 -2.46238619E-04 -6.73376079E-05 -3.55824886E-04 -3.54732556E-04  3.05040815E-05
  1.16065063E-04 -5.54518874E-05 -1.46735080E-04 -6.97574529E-06  5.43660113E-05
 -3.99740339E-04 -7.19604371E-04  5.37641804E-05 -1.82966641E-04 -6.28125953E-01
 -9.99199606E-06  7.71162767E-01  2.69541364E-04 -1.17497497E-02 -1.83891119E-07
  1.41752237E-02 -4.62870075E-04  1.76555905E-03  2.30764721E-08 -1.77923152E-03
  3.92499996E-04 -4.83595892E-04 -2.08543692E-05  3.10325336E-09 -2.75685729E-04
 -6.82950857E-09  3.13223421E-05  2.24253569E-04 -1.12864992E-04 -2.67693699E-09
  1.94439181E-04 -1.00643308E-03  7.29591625E-04  1.14800493E-08 -7.57876413E-04
  3.39100706E-04  1.90149028E-04 -1.22644090E-04 -9.67168520E-10  2.73957758E-05
  5.35355353E-09 -7.84722738E-04  1.24713356E-03  7.78234246E-04  2.62834023E-08
 -1.94280956E-03 -1.51557754E-03 -1.49941080E-04 -1.12901096E-08  8.25524388E-04
  1.22743538E-04 -2.51175672E-04  1.31152345E-03  1.22515702E-08 -9.10860091E-04
 -2.42707852E-08  3.98088614E-04 -6.92703666E-04  3.93726408E-04  1.07308537E-03
 -1.56981585E-06  9.91617400E-04 -1.07256464E-04 -5.94845372E-04 -2.56108370E-04
 -1.16073522E-04 -6.02337928E-04  3.48645553E-05 -4.55888289E-04  1.43504741E-04
  2.59306890E-04  3.98088475E-04 -6.92703823E-04  3.93724906E-04 -1.07308579E-03
 -1.59864160E-06  9.91618217E-04 -1.07255756E-04  5.94852460E-04 -2.56092362E-04
 -1.16072700E-04 -6.02327074E-04  3.48522569E-05  4.55883568E-04  1.43516605E-04
 -2.59326766E-04  2.95635241E-04  9.08830753E-04  1.27227365E-09 -4.87736269E-09
  1.74991563E-07  9.94640876E-01  1.30304264E-05  2.45345203E-09  3.04643240E-09
  1.82096407E-02  2.37852825E-07 -3.50814601E-10 -6.08401151E-11 -2.27870318E-03
 -3.03968408E-08 -5.64370562E-10  9.56361829E-09 -1.16959249E-08  8.23671718E-05
  1.72430565E-09 -4.58314003E-04 -3.14355764E-10  3.90604062E-10  7.26655723E-10
  1.84785336E-04  2.96216566E-09 -2.98740979E-10 -2.04224969E-09 -4.50934215E-04
 -6.31941202E-09 -2.03390867E-10  4.02333947E-09 -3.79465088E-09 -2.25458638E-04
 -3.13446681E-09 -1.66362725E-04  2.94575161E-10 -7.34146517E-10 -3.03969512E-10
  3.91138315E-04  6.05962268E-09  1.68925543E-09  1.42823395E-10 -5.37904904E-04
 -7.85290303E-09 -1.41452602E-10 -5.06057737E-10 -8.22276587E-11 -9.73057648E-06
  1.74901156E-10  2.13795209E-05 -6.81522412E-04  1.13852012E-03 -1.06820907E-03
 -1.43850799E-03  5.25313278E-04 -1.50765660E-03  6.04244806E-04  4.34481791E-04
 -2.53600141E-04  1.72732593E-04  1.04398125E-03 -8.82899259E-05  7.93513264E-04
 -2.38998284E-04 -4.32626324E-04  6.81522753E-04 -1.13852060E-03  1.06820717E-03
 -1.43849613E-03 -5.25352454E-04  1.50765672E-03 -6.04243931E-04  4.34476120E-04
  2.53612512E-04 -1.72730783E-04 -1.04396324E-03  8.82699639E-05  7.93505783E-04
  2.39019026E-04 -4.32661853E-04 -5.90195461E-10 -6.65970736E-10  2.68358469E-02
 -1.26828294E-01  2.25385239E-02 -1.56275016E-07  1.07462308E-02  2.08924318E-01
 -4.32676965E-02  3.00300229E-07 -2.06065632E-02 -1.40614800E-02  8.47096735E-03
 -4.21766579E-08  2.53604487E-03  8.05182811E-03 -8.68688876E-03 -2.73794307E-04
 -1.18226188E-07  8.07419958E-03 -1.44694571E-07 -1.75823619E-01  3.90076601E-01
 -1.46479626E-04 -1.15631347E-06  7.25810144E-02  3.89597782E-01  4.31892751E-03
 -6.55170967E-07  4.08002427E-02  1.90505739E-02 -1.39757661E-03  1.62878955E-02
  4.88273193E-08 -1.93192447E-03 -3.28242816E-07 -5.94565131E-02  1.26499952E-01
  1.14827815E-02  5.40917519E-07 -4.00994862E-02  1.32551505E-01  5.10034807E-03
  2.68204999E-07 -1.97474991E-02  1.18475345E-03 -1.49500015E-03  8.73267159E-03
  6.94852855E-08 -5.02554240E-03 -1.59696259E-07 -5.15333903E-02  1.10895388E-01
 -2.07872310E-02 -3.01668925E-02  6.67678500E-03  1.12517712E-01 -1.06874038E-02
 -1.53506626E-02  3.83767737E-03  2.30973093E-03  7.60043468E-03  1.55058296E-04
  5.69627409E-03 -1.58583258E-03 -2.80460195E-03 -5.15333862E-02  1.10895383E-01
 -2.07871914E-02  3.01667415E-02  6.67759806E-03  1.12517691E-01 -1.06873823E-02
  1.53505710E-02  3.83808231E-03  2.30972031E-03  7.60032114E-03  1.55189229E-04
 -5.69622308E-03 -1.58598013E-03  2.80483391E-03  1.07807610E-01  5.30265973E-03
 -2.55669696E-02  1.20994894E-01  4.23353539E-02 -3.87162084E-07  2.56664412E-02
 -2.11632007E-01 -7.80072640E-02  7.05567688E-07 -4.66673592E-02  1.06390332E-02
 -6.30996096E-04 -1.84305049E-09 -6.13959486E-05  2.66421912E-02 -2.14132364E-02
  8.61570259E-03 -5.74600675E-07  3.92485316E-02 -4.85772745E-07 -1.15876298E-01
  2.63099063E-01 -2.86646371E-02 -5.63757184E-07  3.36214114E-02  2.57304024E-01
 -2.23375753E-02 -2.94395504E-07  1.69504010E-02  9.95302009E-03  9.02051145E-04
  9.22213859E-03  1.34499658E-07 -7.89184915E-03 -1.60241693E-07  9.22272225E-02
 -1.99662500E-01 -2.71286609E-02 -5.62623631E-07  4.24422189E-02 -2.07425949E-01
 -1.07524796E-02 -2.94281087E-07  2.15238452E-02 -1.84014243E-03  1.16375360E-03
 -1.10833842E-02 -8.44023012E-08  6.12409930E-03  1.93045168E-07  1.01959675E-01
 -2.21249394E-01  2.24478114E-02  4.76397657E-02 -1.67786493E-02 -2.26062708E-01
  1.17882780E-02  1.99822373E-02 -5.89963340E-03 -2.70792244E-03 -9.66408547E-03
 -1.64511528E-04 -7.08660361E-03  1.71855497E-03  3.77614947E-03  1.01959677E-01
 -2.21249396E-01  2.24477523E-02 -4.76393489E-02 -1.67799322E-02 -2.26062705E-01
  1.17882557E-02 -1.99820924E-02 -5.90015689E-03 -2.70790705E-03 -9.66392893E-03
 -1.64684603E-04  7.08654695E-03  1.71873751E-03 -3.77644529E-03  7.79029920E-02
 -4.31275893E-03 -8.54525473E-05  4.43254790E-04  5.86833681E-02  1.75794039E-06
 -7.92135962E-02 -9.82025714E-05 -1.15951367E-01 -3.44711456E-06  1.55044313E-01