214_P-dioxane Gaussian OPT Calculation on node35.bme.utexas.edu         
Freq      RMP2-FC                                                     6-31G(d)            
Number of atoms                            I               14
Info1-9                                    I   N=           9
          24          24        1002           0           0         100
           6           2           1
Charge                                     I                0
Multiplicity                               I                1
Number of electrons                        I               48
Number of alpha electrons                  I               24
Number of beta electrons                   I               24
Number of basis functions                  I              106
Number of independent functions            I              106
Number of point charges in /Mol/           I                0
Number of translation vectors              I                0
Atomic numbers                             I   N=          14
           8           6           6           8           6           6
           1           1           1           1           1           1
           1           1
Nuclear charges                            R   N=          14
  8.00000000E+00  6.00000000E+00  6.00000000E+00  8.00000000E+00  6.00000000E+00
  6.00000000E+00  1.00000000E+00  1.00000000E+00  1.00000000E+00  1.00000000E+00
  1.00000000E+00  1.00000000E+00  1.00000000E+00  1.00000000E+00
Current cartesian coordinates              R   N=          42
 -3.37200317E-05  2.60963900E+00  5.68969832E-01  2.20572571E+00  1.38088374E+00
 -3.83191030E-01  2.20576239E+00 -1.38082823E+00  3.83194037E-01  3.51039852E-05
 -2.60963736E+00 -5.68975387E-01 -2.20572622E+00 -1.38088417E+00  3.83193054E-01
 -2.20576430E+00  1.38082823E+00 -3.83190746E-01  2.26618597E+00  1.52607216E+00
 -2.45719442E+00  3.82598047E+00  2.38824958E+00  4.12589112E-01  3.82604469E+00
 -2.38814969E+00 -4.12586611E-01  2.26622083E+00 -1.52602322E+00  2.45719649E+00
 -2.26617937E+00 -1.52607530E+00  2.45719566E+00 -3.82598052E+00 -2.38825207E+00
 -4.12584927E-01 -3.82604382E+00  2.38815325E+00  4.12590544E-01 -2.26622482E+00
  1.52601470E+00 -2.45719329E+00
Force Field                                I                0
Int Atom Types                             I   N=          14
           0           0           0           0           0           0
           0           0           0           0           0           0
           0           0
MM charges                                 R   N=          14
  0.00000000E+00  0.00000000E+00  0.00000000E+00  0.00000000E+00  0.00000000E+00
  0.00000000E+00  0.00000000E+00  0.00000000E+00  0.00000000E+00  0.00000000E+00
  0.00000000E+00  0.00000000E+00  0.00000000E+00  0.00000000E+00
Integer atomic weights                     I   N=          14
          16          12          12          16          12          12
           1           1           1           1           1           1
           1           1
Real atomic weights                        R   N=          14
  1.59949146E+01  1.20000000E+01  1.20000000E+01  1.59949146E+01  1.20000000E+01
  1.20000000E+01  1.00782504E+00  1.00782504E+00  1.00782504E+00  1.00782504E+00
  1.00782504E+00  1.00782504E+00  1.00782504E+00  1.00782504E+00
Atom fragment info                         I   N=          14
           0           0           0           0           0           0
           0           0           0           0           0           0
           0           0
Atom residue num                           I   N=          14
           0           0           0           0           0           0
           0           0           0           0           0           0
           0           0
Nuclear spins                              I   N=          14
           0           0           0           0           0           0
           1           1           1           1           1           1
           1           1
Nuclear ZEff                               R   N=          14
 -5.60000000E+00 -3.60000000E+00 -3.60000000E+00 -5.60000000E+00 -3.60000000E+00
 -3.60000000E+00 -1.00000000E+00 -1.00000000E+00 -1.00000000E+00 -1.00000000E+00
 -1.00000000E+00 -1.00000000E+00 -1.00000000E+00 -1.00000000E+00
Nuclear QMom                               R   N=          14
  0.00000000E+00  0.00000000E+00  0.00000000E+00  0.00000000E+00  0.00000000E+00
  0.00000000E+00  0.00000000E+00  0.00000000E+00  0.00000000E+00  0.00000000E+00
  0.00000000E+00  0.00000000E+00  0.00000000E+00  0.00000000E+00
Nuclear GFac                               R   N=          14
  0.00000000E+00  0.00000000E+00  0.00000000E+00  0.00000000E+00  0.00000000E+00
  0.00000000E+00  2.79284600E+00  2.79284600E+00  2.79284600E+00  2.79284600E+00
  2.79284600E+00  2.79284600E+00  2.79284600E+00  2.79284600E+00
MicOpt                                     I   N=          14
          -1          -1          -1          -1          -1          -1
          -1          -1          -1          -1          -1          -1
          -1          -1
Number of contracted shells                I               40
Number of primitive shells                 I               98
Pure/Cartesian d shells                    I                1
Pure/Cartesian f shells                    I                0
Highest angular momentum                   I                2
Largest degree of contraction              I                6
Shell types                                I   N=          40
           0          -1          -1           2           0          -1
          -1           2           0          -1          -1           2
           0          -1          -1           2           0          -1
          -1           2           0          -1          -1           2
           0           0           0           0           0           0
           0           0           0           0           0           0
           0           0           0           0
Number of primitives per shell             I   N=          40
           6           3           1           1           6           3
           1           1           6           3           1           1
           6           3           1           1           6           3
           1           1           6           3           1           1
           3           1           3           1           3           1
           3           1           3           1           3           1
           3           1           3           1
Shell to atom map                          I   N=          40
           1           1           1           1           2           2
           2           2           3           3           3           3
           4           4           4           4           5           5
           5           5           6           6           6           6
           7           7           8           8           9           9
          10          10          11          11          12          12
          13          13          14          14
Primitive exponents                        R   N=          98
  5.48467166E+03  8.25234946E+02  1.88046958E+02  5.29645000E+01  1.68975704E+01
  5.79963534E+00  1.55396162E+01  3.59993359E+00  1.01376175E+00  2.70005823E-01
  8.00000000E-01  3.04752488E+03  4.57369518E+02  1.03948685E+02  2.92101553E+01
  9.28666296E+00  3.16392696E+00  7.86827235E+00  1.88128854E+00  5.44249258E-01
  1.68714478E-01  8.00000000E-01  3.04752488E+03  4.57369518E+02  1.03948685E+02
  2.92101553E+01  9.28666296E+00  3.16392696E+00  7.86827235E+00  1.88128854E+00
  5.44249258E-01  1.68714478E-01  8.00000000E-01  5.48467166E+03  8.25234946E+02
  1.88046958E+02  5.29645000E+01  1.68975704E+01  5.79963534E+00  1.55396162E+01
  3.59993359E+00  1.01376175E+00  2.70005823E-01  8.00000000E-01  3.04752488E+03
  4.57369518E+02  1.03948685E+02  2.92101553E+01  9.28666296E+00  3.16392696E+00
  7.86827235E+00  1.88128854E+00  5.44249258E-01  1.68714478E-01  8.00000000E-01
  3.04752488E+03  4.57369518E+02  1.03948685E+02  2.92101553E+01  9.28666296E+00
  3.16392696E+00  7.86827235E+00  1.88128854E+00  5.44249258E-01  1.68714478E-01
  8.00000000E-01  1.87311370E+01  2.82539436E+00  6.40121692E-01  1.61277759E-01
  1.87311370E+01  2.82539436E+00  6.40121692E-01  1.61277759E-01  1.87311370E+01
  2.82539436E+00  6.40121692E-01  1.61277759E-01  1.87311370E+01  2.82539436E+00
  6.40121692E-01  1.61277759E-01  1.87311370E+01  2.82539436E+00  6.40121692E-01
  1.61277759E-01  1.87311370E+01  2.82539436E+00  6.40121692E-01  1.61277759E-01
  1.87311370E+01  2.82539436E+00  6.40121692E-01  1.61277759E-01  1.87311370E+01
  2.82539436E+00  6.40121692E-01  1.61277759E-01
Contraction coefficients                   R   N=          98
  1.83107443E-03  1.39501722E-02  6.84450781E-02  2.32714336E-01  4.70192898E-01
  3.58520853E-01 -1.10777550E-01 -1.48026263E-01  1.13076702E+00  1.00000000E+00
  1.00000000E+00  1.83473713E-03  1.40373228E-02  6.88426223E-02  2.32184443E-01
  4.67941348E-01  3.62311985E-01 -1.19332420E-01 -1.60854152E-01  1.14345644E+00
  1.00000000E+00  1.00000000E+00  1.83473713E-03  1.40373228E-02  6.88426223E-02
  2.32184443E-01  4.67941348E-01  3.62311985E-01 -1.19332420E-01 -1.60854152E-01
  1.14345644E+00  1.00000000E+00  1.00000000E+00  1.83107443E-03  1.39501722E-02
  6.84450781E-02  2.32714336E-01  4.70192898E-01  3.58520853E-01 -1.10777550E-01
 -1.48026263E-01  1.13076702E+00  1.00000000E+00  1.00000000E+00  1.83473713E-03
  1.40373228E-02  6.88426223E-02  2.32184443E-01  4.67941348E-01  3.62311985E-01
 -1.19332420E-01 -1.60854152E-01  1.14345644E+00  1.00000000E+00  1.00000000E+00
  1.83473713E-03  1.40373228E-02  6.88426223E-02  2.32184443E-01  4.67941348E-01
  3.62311985E-01 -1.19332420E-01 -1.60854152E-01  1.14345644E+00  1.00000000E+00
  1.00000000E+00  3.34946043E-02  2.34726953E-01  8.13757326E-01  1.00000000E+00
  3.34946043E-02  2.34726953E-01  8.13757326E-01  1.00000000E+00  3.34946043E-02
  2.34726953E-01  8.13757326E-01  1.00000000E+00  3.34946043E-02  2.34726953E-01
  8.13757326E-01  1.00000000E+00  3.34946043E-02  2.34726953E-01  8.13757326E-01
  1.00000000E+00  3.34946043E-02  2.34726953E-01  8.13757326E-01  1.00000000E+00
  3.34946043E-02  2.34726953E-01  8.13757326E-01  1.00000000E+00  3.34946043E-02
  2.34726953E-01  8.13757326E-01  1.00000000E+00
P(S=P) Contraction coefficients            R   N=          98
  0.00000000E+00  0.00000000E+00  0.00000000E+00  0.00000000E+00  0.00000000E+00
  0.00000000E+00  7.08742682E-02  3.39752839E-01  7.27158577E-01  1.00000000E+00
  0.00000000E+00  0.00000000E+00  0.00000000E+00  0.00000000E+00  0.00000000E+00
  0.00000000E+00  0.00000000E+00  6.89990666E-02  3.16423961E-01  7.44308291E-01
  1.00000000E+00  0.00000000E+00  0.00000000E+00  0.00000000E+00  0.00000000E+00
  0.00000000E+00  0.00000000E+00  0.00000000E+00  6.89990666E-02  3.16423961E-01
  7.44308291E-01  1.00000000E+00  0.00000000E+00  0.00000000E+00  0.00000000E+00
  0.00000000E+00  0.00000000E+00  0.00000000E+00  0.00000000E+00  7.08742682E-02
  3.39752839E-01  7.27158577E-01  1.00000000E+00  0.00000000E+00  0.00000000E+00
  0.00000000E+00  0.00000000E+00  0.00000000E+00  0.00000000E+00  0.00000000E+00
  6.89990666E-02  3.16423961E-01  7.44308291E-01  1.00000000E+00  0.00000000E+00
  0.00000000E+00  0.00000000E+00  0.00000000E+00  0.00000000E+00  0.00000000E+00
  0.00000000E+00  6.89990666E-02  3.16423961E-01  7.44308291E-01  1.00000000E+00
  0.00000000E+00  0.00000000E+00  0.00000000E+00  0.00000000E+00  0.00000000E+00
  0.00000000E+00  0.00000000E+00  0.00000000E+00  0.00000000E+00  0.00000000E+00
  0.00000000E+00  0.00000000E+00  0.00000000E+00  0.00000000E+00  0.00000000E+00
  0.00000000E+00  0.00000000E+00  0.00000000E+00  0.00000000E+00  0.00000000E+00
  0.00000000E+00  0.00000000E+00  0.00000000E+00  0.00000000E+00  0.00000000E+00
  0.00000000E+00  0.00000000E+00  0.00000000E+00  0.00000000E+00  0.00000000E+00
  0.00000000E+00  0.00000000E+00  0.00000000E+00
Coordinates of each shell                  R   N=         120
 -3.37200317E-05  2.60963900E+00  5.68969832E-01 -3.37200317E-05  2.60963900E+00
  5.68969832E-01 -3.37200317E-05  2.60963900E+00  5.68969832E-01 -3.37200317E-05
  2.60963900E+00  5.68969832E-01  2.20572571E+00  1.38088374E+00 -3.83191030E-01
  2.20572571E+00  1.38088374E+00 -3.83191030E-01  2.20572571E+00  1.38088374E+00
 -3.83191030E-01  2.20572571E+00  1.38088374E+00 -3.83191030E-01  2.20576239E+00
 -1.38082823E+00  3.83194037E-01  2.20576239E+00 -1.38082823E+00  3.83194037E-01
  2.20576239E+00 -1.38082823E+00  3.83194037E-01  2.20576239E+00 -1.38082823E+00
  3.83194037E-01  3.51039852E-05 -2.60963736E+00 -5.68975387E-01  3.51039852E-05
 -2.60963736E+00 -5.68975387E-01  3.51039852E-05 -2.60963736E+00 -5.68975387E-01
  3.51039852E-05 -2.60963736E+00 -5.68975387E-01 -2.20572622E+00 -1.38088417E+00
  3.83193054E-01 -2.20572622E+00 -1.38088417E+00  3.83193054E-01 -2.20572622E+00
 -1.38088417E+00  3.83193054E-01 -2.20572622E+00 -1.38088417E+00  3.83193054E-01
 -2.20576430E+00  1.38082823E+00 -3.83190746E-01 -2.20576430E+00  1.38082823E+00
 -3.83190746E-01 -2.20576430E+00  1.38082823E+00 -3.83190746E-01 -2.20576430E+00
  1.38082823E+00 -3.83190746E-01  2.26618597E+00  1.52607216E+00 -2.45719442E+00
  2.26618597E+00  1.52607216E+00 -2.45719442E+00  3.82598047E+00  2.38824958E+00
  4.12589112E-01  3.82598047E+00  2.38824958E+00  4.12589112E-01  3.82604469E+00
 -2.38814969E+00 -4.12586611E-01  3.82604469E+00 -2.38814969E+00 -4.12586611E-01
  2.26622083E+00 -1.52602322E+00  2.45719649E+00  2.26622083E+00 -1.52602322E+00
  2.45719649E+00 -2.26617937E+00 -1.52607530E+00  2.45719566E+00 -2.26617937E+00
 -1.52607530E+00  2.45719566E+00 -3.82598052E+00 -2.38825207E+00 -4.12584927E-01
 -3.82598052E+00 -2.38825207E+00 -4.12584927E-01 -3.82604382E+00  2.38815325E+00
  4.12590544E-01 -3.82604382E+00  2.38815325E+00  4.12590544E-01 -2.26622482E+00
  1.52601470E+00 -2.45719329E+00 -2.26622482E+00  1.52601470E+00 -2.45719329E+00
Constraint Structure                       R   N=          42
 -3.37200317E-05  2.60963900E+00  5.68969832E-01  2.20572571E+00  1.38088374E+00
 -3.83191030E-01  2.20576239E+00 -1.38082823E+00  3.83194037E-01  3.51039852E-05
 -2.60963736E+00 -5.68975387E-01 -2.20572622E+00 -1.38088417E+00  3.83193054E-01
 -2.20576430E+00  1.38082823E+00 -3.83190746E-01  2.26618597E+00  1.52607216E+00
 -2.45719442E+00  3.82598047E+00  2.38824958E+00  4.12589112E-01  3.82604469E+00
 -2.38814969E+00 -4.12586611E-01  2.26622083E+00 -1.52602322E+00  2.45719649E+00
 -2.26617937E+00 -1.52607530E+00  2.45719566E+00 -3.82598052E+00 -2.38825207E+00
 -4.12584927E-01 -3.82604382E+00  2.38815325E+00  4.12590544E-01 -2.26622482E+00
  1.52601470E+00 -2.45719329E+00
Num ILSW                                   I              100
ILSW                                       I   N=         100
           0           1           0           0           2           0
           0           0           0           0           0          -1
           0           0           0           0           0           0
           0           0           0           0           1           0
           1           0           0           0           0           0
           0           0      100000           0          -1           0
           0           0           0           0           0           0
           0           0           0           1           1           0
           0           0           1           0           0           0
           0           0           4          40           0           0
           0           0           0           0           0           0
           0           0           0           0           0           0
           0           0           0           0           0           0
           0           0           0           0           0           0
           0           0           0           0           0           0
           0           0           0           0           0           0
           0           0           0           0
Num RLSW                                   I               40
RLSW                                       R   N=          40
  1.00000000E+00  1.00000000E+00  1.00000000E+00  1.00000000E+00  1.00000000E+00
  0.00000000E+00  0.00000000E+00  1.00000000E+00  0.00000000E+00  0.00000000E+00
  0.00000000E+00  0.00000000E+00  1.00000000E+00  0.00000000E+00  0.00000000E+00
  0.00000000E+00  0.00000000E+00  1.00000000E+00  0.00000000E+00  0.00000000E+00
  0.00000000E+00  0.00000000E+00  1.00000000E+00  0.00000000E+00  0.00000000E+00
  0.00000000E+00  0.00000000E+00  1.00000000E+00  0.00000000E+00  0.00000000E+00
  0.00000000E+00  0.00000000E+00  0.00000000E+00  0.00000000E+00  0.00000000E+00
  0.00000000E+00  0.00000000E+00  0.00000000E+00  1.00000000E+00  1.00000000E+00
MxBond                                     I                4
NBond                                      I   N=          14
           2           4           4           2           4           4
           1           1           1           1           1           1
           1           1
IBond                                      I   N=          56
           2           6           0           0           1           3
           7           8           2           4           9          10
           3           5           0           0           4           6
          11          12           1           5          13          14
           2           0           0           0           2           0
           0           0           3           0           0           0
           3           0           0           0           5           0
           0           0           5           0           0           0
           6           0           0           0           6           0
           0           0
RBond                                      R   N=          56
  1.00000000E+00  1.00000000E+00  0.00000000E+00  0.00000000E+00  1.00000000E+00
  1.00000000E+00  1.00000000E+00  1.00000000E+00  1.00000000E+00  1.00000000E+00
  1.00000000E+00  1.00000000E+00  1.00000000E+00  1.00000000E+00  0.00000000E+00
  0.00000000E+00  1.00000000E+00  1.00000000E+00  1.00000000E+00  1.00000000E+00
  1.00000000E+00  1.00000000E+00  1.00000000E+00  1.00000000E+00  1.00000000E+00
  0.00000000E+00  0.00000000E+00  0.00000000E+00  1.00000000E+00  0.00000000E+00
  0.00000000E+00  0.00000000E+00  1.00000000E+00  0.00000000E+00  0.00000000E+00
  0.00000000E+00  1.00000000E+00  0.00000000E+00  0.00000000E+00  0.00000000E+00
  1.00000000E+00  0.00000000E+00  0.00000000E+00  0.00000000E+00  1.00000000E+00
  0.00000000E+00  0.00000000E+00  0.00000000E+00  1.00000000E+00  0.00000000E+00
  0.00000000E+00  0.00000000E+00  1.00000000E+00  0.00000000E+00  0.00000000E+00
  0.00000000E+00
Virial Ratio                               R      2.002235412599191E+00
SCF Energy                                 R     -3.058222751790401E+02
MP2 Energy                                 R     -3.066932033457991E+02
Total Energy                               R     -3.066932033457991E+02
Post-SCF wavefunction norm                 R      1.590227578824193E+00
RMS Force                                  R      3.291939894611536E-06
RMS Density                                R      2.356650435594946E-09
External E-field                           R   N=          35
  0.00000000E+00  0.00000000E+00  0.00000000E+00  0.00000000E+00  0.00000000E+00
  0.00000000E+00  0.00000000E+00  0.00000000E+00  0.00000000E+00  0.00000000E+00
  0.00000000E+00  0.00000000E+00  0.00000000E+00  0.00000000E+00  0.00000000E+00
  0.00000000E+00  0.00000000E+00  0.00000000E+00  0.00000000E+00  0.00000000E+00
  0.00000000E+00  0.00000000E+00  0.00000000E+00  0.00000000E+00  0.00000000E+00
  0.00000000E+00  0.00000000E+00  0.00000000E+00  0.00000000E+00  0.00000000E+00
  0.00000000E+00  0.00000000E+00  0.00000000E+00  0.00000000E+00  0.00000000E+00
IOpCl                                      I                0
IROHF                                      I                0
Alpha Orbital Energies                     R   N=         106
 -2.05651688E+01 -2.05651672E+01 -1.12783122E+01 -1.12782912E+01 -1.12776660E+01
 -1.12776532E+01 -1.39409081E+00 -1.35120379E+00 -1.04635829E+00 -9.51539963E-01
 -8.86806679E-01 -7.97488654E-01 -6.95628474E-01 -6.49879984E-01 -6.48700981E-01
 -6.33869365E-01 -6.30558027E-01 -5.55345022E-01 -5.48900037E-01 -5.10869972E-01
 -5.10355286E-01 -4.56862755E-01 -4.55964642E-01 -3.93794915E-01  2.45309896E-01
  2.56711005E-01  2.76209018E-01  2.85312135E-01  2.95300911E-01  3.18137418E-01
  3.18534505E-01  3.33987566E-01  3.36796624E-01  3.64837344E-01  4.25631466E-01
  4.25650994E-01  4.28698513E-01  4.61492628E-01  7.40830583E-01  7.56088296E-01
  7.73469150E-01  7.78426775E-01  7.84873222E-01  8.16902357E-01  8.30000556E-01
  8.64711430E-01  9.00148851E-01  9.07149478E-01  1.04308696E+00  1.05146238E+00
  1.06940384E+00  1.11058177E+00  1.11625542E+00  1.12373897E+00  1.13180867E+00
  1.17209765E+00  1.17661517E+00  1.19644446E+00  1.21508539E+00  1.21678028E+00
  1.33731057E+00  1.42495765E+00  1.42631377E+00  1.46295778E+00  1.52001726E+00
  1.63166394E+00  1.65351339E+00  1.68258340E+00  1.69362706E+00  1.77093600E+00
  1.83310241E+00  1.91174449E+00  1.93209581E+00  2.01124083E+00  2.05916040E+00
  2.09233243E+00  2.16411870E+00  2.24094846E+00  2.31127086E+00  2.33270363E+00
  2.34180155E+00  2.40352379E+00  2.42365976E+00  2.43641730E+00  2.46388053E+00
  2.46570731E+00  2.51895707E+00  2.62805771E+00  2.73185402E+00  2.75139872E+00
  2.77101935E+00  2.81244153E+00  2.81676598E+00  2.91889748E+00  3.04478521E+00
  3.05167746E+00  3.08347375E+00  3.12527835E+00  3.30365870E+00  3.30921112E+00
  4.26510314E+00  4.44950386E+00  4.61635347E+00  4.74082794E+00  4.88761984E+00
  4.93071533E+00
Alpha MO coefficients                      R   N=       11236
 -6.98945797E-01 -1.48692122E-02 -9.30552821E-09  7.14786675E-04  5.43998686E-04
 -2.73020542E-03  4.41236271E-09 -3.82852468E-04 -2.70811510E-04  2.95883442E-03
  2.78659110E-03  2.74973077E-03  2.71859976E-09 -1.16852503E-09  1.06624784E-04
  1.07391791E-05 -1.38252354E-04  2.28560580E-04 -9.65423358E-05 -8.98327529E-05
 -1.56900451E-04 -3.76548612E-05  2.32301801E-04  1.89203494E-05 -4.53885057E-05
 -2.51066546E-05  1.03780559E-05  1.93133289E-05  2.81082574E-05  4.88987466E-06
 -1.09120756E-05  1.40556744E-04 -2.31267150E-04 -9.85743889E-05 -9.13264939E-05
  1.57799918E-04  3.71671224E-05  2.34227068E-04  2.25421758E-05  4.56113917E-05
  2.45091199E-05 -1.08615868E-05  1.99495704E-05  2.85213902E-05 -4.83889370E-06
  7.07699070E-01  1.50561975E-02 -8.88062957E-09  7.23978506E-04  5.50923263E-04
  2.76164422E-03  5.47164766E-09 -3.88801018E-04 -2.75409177E-04 -2.99517381E-03
 -2.82123983E-03 -2.78363810E-03 -2.06965374E-09  1.53449347E-09 -1.08051073E-04
 -1.09121348E-05  1.40555271E-04  2.31269866E-04 -9.85683410E-05 -9.13263492E-05
  1.57800741E-04 -3.71726465E-05  2.34225743E-04  2.25416543E-05  4.56136231E-05
  2.45085848E-05 -1.08612058E-05 -1.99496398E-05 -2.85217210E-05 -4.83941111E-06
  1.07392716E-05 -1.38250839E-04 -2.28558109E-04 -9.65482213E-05 -8.98327555E-05
 -1.56901799E-04  3.76471794E-05  2.32302827E-04  1.89208113E-05 -4.53886826E-05
 -2.51076085E-05  1.03779265E-05 -1.93143330E-05 -2.81087689E-05  4.88897447E-06
  3.43418921E-05  4.62877717E-06  5.07931812E-06  2.74331054E-05 -4.76955983E-06
 -2.70784909E-05 -3.49040341E-05 -6.92610895E-06 -3.49040336E-05 -6.92590992E-06
 -4.76951406E-06 -2.70786229E-05  5.07914210E-06  2.74325403E-05  3.43420433E-05
  4.62913292E-06  7.07713100E-01  1.51177371E-02  9.66604935E-09 -7.43294600E-04
 -5.59517377E-04  2.54348933E-03 -5.93841913E-09  4.80527196E-04  3.70955622E-04
 -2.93849796E-03 -2.80166395E-03 -2.74170718E-03 -2.17373252E-09  1.30030640E-09
 -1.15218002E-04 -1.39564165E-05  1.86102121E-04 -2.19134599E-04  1.63443384E-04
  1.20525494E-04  7.31314369E-05 -3.84191167E-05 -1.56185287E-04 -2.91123742E-04
  1.82248679E-05 -4.79388672E-05 -3.89347022E-05 -5.11848092E-05 -3.33351655E-05
  3.99715481E-06 -1.38214572E-05  1.84367592E-04 -2.16268819E-04 -1.62234399E-04
 -1.19398733E-04  7.11650477E-05 -3.88887711E-05  1.53275902E-04  2.90865743E-04
  1.76571471E-05 -4.82449539E-05 -3.88018595E-05  5.09427378E-05  3.29830189E-05
  4.05882843E-06  6.98960004E-01  1.49315199E-02 -8.98590690E-09  7.34338778E-04
  5.52707617E-04  2.50931094E-03  6.59910956E-09 -4.75723873E-04 -3.67558855E-04
 -2.90144690E-03 -2.76676616E-03 -2.70727457E-03 -1.48609240E-09  1.60107167E-09
 -1.13882772E-04 -1.38216837E-05  1.84365385E-04  2.16272971E-04 -1.62228914E-04
 -1.19398713E-04  7.11693607E-05  3.88869420E-05  1.53278687E-04  2.90865959E-04
  1.76605187E-05 -4.82470621E-05 -3.88017321E-05 -5.09414044E-05 -3.29836504E-05
  4.05821821E-06 -1.39563535E-05  1.86101342E-04  2.19130488E-04  1.63448825E-04
  1.20525308E-04  7.31278890E-05  3.84230865E-05 -1.56183032E-04 -2.91123797E-04
  1.82237071E-05 -4.79361075E-05 -3.89341980E-05  5.11873777E-05  3.33354272E-05
  3.99821120E-06 -4.53899631E-05 -1.84599303E-04  2.48655197E-05  2.83327692E-05
  2.49269638E-05  2.86716308E-05 -4.49586682E-05 -1.84526156E-04 -4.49589897E-05
 -1.84526925E-04  2.49271172E-05  2.86724130E-05  2.48657914E-05  2.83332093E-05
 -4.53898462E-05 -1.84599029E-04 -5.44463144E-07  5.90104317E-08 -1.04964442E-04
 -2.68848793E-07 -3.38325611E-07  5.79901449E-06  3.54079179E-05  6.55199329E-07
  1.10161946E-06 -1.98065954E-06 -5.04272167E-07 -6.46635092E-07 -2.39263681E-04
 -1.98673822E-04 -8.40260942E-07 -4.96255142E-01 -1.41250574E-02  4.65661513E-04
  2.87761886E-05 -7.87798042E-05  5.75926383E-03 -9.17061491E-04 -1.39349246E-04
 -1.14262699E-03  8.34794812E-04  9.05972853E-04  7.41417332E-04 -5.22895999E-06
 -1.15811862E-05 -6.93992068E-05 -4.96259642E-01 -1.41251818E-02  4.65664557E-04
 -2.87631548E-05  7.87821601E-05  5.75935170E-03 -9.17072782E-04  1.39329274E-04
  1.14261684E-03  8.34800417E-04  9.05978180E-04  7.41422441E-04  5.22752739E-06
  1.15838112E-05 -6.93976523E-05 -5.43322099E-07  5.69837739E-08 -1.04963996E-04
  2.64665632E-07  3.37058560E-07  5.78585666E-06  3.53960209E-05 -6.53181310E-07
 -1.09721460E-06 -1.98749323E-06 -4.92808208E-07 -6.46704084E-07  2.39261490E-04
  1.98675496E-04 -8.33320672E-07  4.99554982E-01  1.42157437E-02  4.68175480E-04
  2.80129676E-05 -8.00427963E-05 -5.79108942E-03 -9.15272953E-04 -1.35591346E-04
 -1.14066461E-03 -8.39434686E-04 -9.12552350E-04 -7.47175549E-04  5.12807958E-06
  1.17088122E-05  6.99420682E-05  4.99558966E-01  1.42158523E-02  4.68181323E-04
 -2.79990109E-05  8.00440806E-05 -5.79114580E-03 -9.15263133E-04  1.35583147E-04
  1.14066269E-03 -8.39437417E-04 -9.12558267E-04 -7.47181721E-04 -5.12474368E-06
 -1.17100689E-05  6.99419727E-05 -1.60478902E-04 -1.83785798E-03  1.12795634E-04
 -6.12224806E-04  1.12793628E-04 -6.12236747E-04 -1.60479005E-04 -1.83786728E-03
  1.60017987E-04  1.84482164E-03 -1.12631423E-04  6.21536007E-04 -1.12630894E-04
  6.21546378E-04  1.60018631E-04  1.84482951E-03 -1.64123558E-04  1.77987100E-05
  3.48028192E-07 -8.05456344E-05 -1.01944699E-04  1.74630200E-03 -1.26322891E-07
  1.98168494E-04  3.32243331E-04 -5.98524732E-04 -1.50358302E-04 -1.94931870E-04
  7.85609836E-07  6.60625312E-07 -2.52650207E-04  4.99484620E-01  1.37284029E-02
 -3.81158716E-04  1.15424734E-04  1.90795495E-04 -4.81805063E-03 -2.69116526E-04
 -5.66027956E-04 -2.91853693E-04 -7.02531792E-04 -9.95834880E-04 -8.71368367E-04
 -1.55399044E-05  1.90820997E-05  8.22552621E-05  4.99489475E-01  1.37285457E-02
 -3.81158622E-04 -1.15435669E-04 -1.90797131E-04 -4.81819138E-03 -2.69110113E-04
  5.65989940E-04  2.91865210E-04 -7.02539293E-04 -9.95839133E-04 -8.71372464E-04
  1.55484887E-05 -1.90856390E-05  8.22542729E-05 -1.64123135E-04  1.77989912E-05
  3.47052050E-07  8.05460419E-05  1.01945550E-04  1.74630652E-03 -1.11288256E-07
 -1.98165716E-04 -3.32244397E-04 -5.98522575E-04 -1.50356539E-04 -1.94933625E-04
 -8.00560035E-07 -6.56547043E-07 -2.52651163E-04  4.96184941E-01  1.36344937E-02
  3.78063189E-04 -1.15611477E-04 -1.90269827E-04 -4.77979204E-03  2.75183992E-04
  5.66934927E-04  2.99425551E-04 -6.96984512E-04 -9.89808719E-04 -8.66433964E-04
 -1.55724129E-05  1.90064660E-05  8.17928177E-05  4.96189062E-01  1.36346151E-02
  3.78064495E-04  1.15623054E-04  1.90269177E-04 -4.77990285E-03  2.75179386E-04
 -5.66906032E-04 -2.99424814E-04 -6.96990850E-04 -9.89812094E-04 -8.66439470E-04
  1.55826693E-05 -1.90087967E-05  8.17928764E-05 -6.91512515E-05  1.05649055E-03
  2.44370177E-05  1.40700612E-03  2.44389838E-05  1.40701459E-03 -6.91477783E-05
  1.05650177E-03 -7.02138688E-05  1.04428670E-03  2.51841132E-05  1.40291844E-03
  2.51849792E-05  1.40292303E-03 -7.02091304E-05  1.04430203E-03  5.71341862E-07
 -2.10597227E-06  1.23072981E-04  9.13641522E-07  6.63598214E-07 -4.53518768E-06
  7.58710862E-04 -1.52902482E-06 -2.27419545E-06  2.28439933E-06  7.06978415E-07
 -7.07598046E-07  2.62522205E-04  2.52549274E-04  1.07150503E-06  4.95410415E-01
  1.43798808E-02 -4.27261757E-04  1.44328657E-04  3.07010356E-05 -1.28058022E-02
  1.88831961E-03  2.61821868E-03 -2.50528742E-04 -6.51340016E-04 -4.51540970E-04
 -5.85146908E-04 -4.68593842E-05  4.15232197E-05  2.42620226E-05 -4.95405684E-01
 -1.43797524E-02  4.27253217E-04  1.44338943E-04  3.07001171E-05  1.28057689E-02
 -1.88839818E-03  2.61816842E-03 -2.50528329E-04  6.51336463E-04  4.51529454E-04
  5.85137363E-04 -4.68526862E-05  4.15236925E-05 -2.42596811E-05 -5.72827971E-07
  2.10548474E-06 -1.23072684E-04  9.10717715E-07  6.64733956E-07  4.54882290E-06
 -7.58719372E-04 -1.54581864E-06 -2.28024384E-06 -2.30200699E-06 -6.95299937E-07
  7.04806602E-07  2.62521321E-04  2.52549900E-04 -1.06757262E-06  5.00831297E-01