
    -----------------------------------------------------------------------
          Psi4: An Open-Source Ab Initio Electronic Structure Package
                               Psi4 1.3.2 release

                         Git: Rev {HEAD} ecbda83 


    R. M. Parrish, L. A. Burns, D. G. A. Smith, A. C. Simmonett,
    A. E. DePrince III, E. G. Hohenstein, U. Bozkaya, A. Yu. Sokolov,
    R. Di Remigio, R. M. Richard, J. F. Gonthier, A. M. James,
    H. R. McAlexander, A. Kumar, M. Saitow, X. Wang, B. P. Pritchard,
    P. Verma, H. F. Schaefer III, K. Patkowski, R. A. King, E. F. Valeev,
    F. A. Evangelista, J. M. Turney, T. D. Crawford, and C. D. Sherrill,
    J. Chem. Theory Comput. 13(7) pp 3185--3197 (2017).
    (doi: 10.1021/acs.jctc.7b00174)


                         Additional Contributions by
    P. Kraus, H. Kruse, M. H. Lechner, M. C. Schieber, R. A. Shaw,
    A. Alenaizan, R. Galvelis, Z. L. Glick, S. Lehtola, and J. P. Misiewicz

    -----------------------------------------------------------------------


    Psi4 started on: Friday, 06 November 2020 03:14PM

    Process ID: 54004
    Host:       node142.bme.utexas.edu
    PSIDATADIR: /home/xy3866/psi4conda/share/psi4
    Memory:     500.0 MiB
    Threads:    8
    
  ==> Input File <==

--------------------------------------------------------------------------
#psi4
#
memory 32 gb

molecule  {
0 1
  S       -2.7285110    -0.3883160    -0.0213010
  S        2.7978520    -0.2715570    -0.0789790
  C       -0.0046350    -0.1692960    -0.0145170
  C       -1.2242306     0.6424773     0.0287916
  C        1.2550670     0.6870920     0.0422130
  H       -0.0121870    -0.8698730     0.8286010
  H        0.0048720    -0.7692750    -0.9300540
  H       -1.2744540     1.2874770     0.9507400
  H       -1.2751080     1.3772510    -0.8218930
  H        1.2709800     1.2945630     0.9518460
  H        1.2830650     1.3753670    -0.8081880
  H       -3.6465450     0.5877870     0.0421630
  H        2.6042880    -0.9975790     1.0326360
units angstrom
no_reorient  #important for SAPT in psi4, default
symmetry c1  #important for SAPT in psi4, default
}

set PROPERTIES_ORIGIN ["COM"]
properties('MP2/aug-cc-pvtz', properties = ['dipole'])
--------------------------------------------------------------------------

  Memory set to  29.802 GiB by Python driver.
    SCF Algorithm Type (re)set to DF.

*** tstart() called on node142.bme.utexas.edu
*** at Fri Nov  6 15:14:43 2020

   => Loading Basis Set <=

    Name: AUG-CC-PVTZ
    Role: ORBITAL
    Keyword: BASIS
    atoms 1-2  entry S          line   902 file /home/xy3866/psi4conda/share/psi4/basis/aug-cc-pvtz.gbs 
    atoms 3-5  entry C          line   235 file /home/xy3866/psi4conda/share/psi4/basis/aug-cc-pvtz.gbs 
    atoms 6-13 entry H          line    36 file /home/xy3866/psi4conda/share/psi4/basis/aug-cc-pvtz.gbs 


         ---------------------------------------------------------
                                   SCF
               by Justin Turney, Rob Parrish, Andy Simmonett
                          and Daniel G. A. Smith
                              RHF Reference
                        8 Threads,  30517 MiB Core
         ---------------------------------------------------------

  ==> Geometry <==

    Molecular point group: c1
    Full point group: C1

    Geometry (in Angstrom), charge = 0, multiplicity = 1:

       Center              X                  Y                   Z               Mass       
    ------------   -----------------  -----------------  -----------------  -----------------
         S           -2.742196491262    -0.352551584005    -0.009517399806    31.972071174400
         S            2.784166508738    -0.235792584005    -0.067195399806    31.972071174400
         C           -0.018320491262    -0.133531584005    -0.002733399806    12.000000000000
         C           -1.237916091262     0.678241715995     0.040575200194    12.000000000000
         C            1.241381508738     0.722856415995     0.053996600194    12.000000000000
         H           -0.025872491262    -0.834108584005     0.840384600194     1.007825032230
         H           -0.008813491262    -0.733510584005    -0.918270399806     1.007825032230
         H           -1.288139491262     1.323241415995     0.962523600194     1.007825032230
         H           -1.288793491262     1.413015415995    -0.810109399806     1.007825032230
         H            1.257294508738     1.330327415995     0.963629600194     1.007825032230
         H            1.269379508738     1.411131415995    -0.796404399806     1.007825032230
         H           -3.660230491262     0.623551415995     0.053946600194     1.007825032230
         H            2.590602508738    -0.961814584005     1.044419600194     1.007825032230

  Running in c1 symmetry.

  Rotational constants: A =      0.49798  B =      0.03021  C =      0.02907 [cm^-1]
  Rotational constants: A =  14928.99334  B =    905.62521  C =    871.50234 [MHz]
  Nuclear repulsion =  268.207970234438164

  Charge       = 0
  Multiplicity = 1
  Electrons    = 58
  Nalpha       = 29
  Nbeta        = 29

  ==> Algorithm <==

  SCF Algorithm Type is DF.
  DIIS enabled.
  MOM disabled.
  Fractional occupation disabled.
  Guess Type is SAD.
  Energy threshold   = 1.00e-10
  Density threshold  = 1.00e-10
  Integral threshold = 0.00e+00

  ==> Primary Basis <==

  Basis Set: AUG-CC-PVTZ
    Blend: AUG-CC-PVTZ
    Number of shells: 146
    Number of basis function: 422
    Number of Cartesian functions: 483
    Spherical Harmonics?: true
    Max angular momentum: 3

   => Loading Basis Set <=

    Name: (AUG-CC-PVTZ AUX)
    Role: JKFIT
    Keyword: DF_BASIS_SCF
    atoms 1-2  entry S          line   730 file /home/xy3866/psi4conda/share/psi4/basis/aug-cc-pvtz-jkfit.gbs 
    atoms 3-5  entry C          line   162 file /home/xy3866/psi4conda/share/psi4/basis/aug-cc-pvtz-jkfit.gbs 
    atoms 6-13 entry H          line    70 file /home/xy3866/psi4conda/share/psi4/basis/aug-cc-pvtz-jkfit.gbs 

  ==> Pre-Iterations <==

   -------------------------------------------------------
    Irrep   Nso     Nmo     Nalpha   Nbeta   Ndocc  Nsocc
   -------------------------------------------------------
     A        422     422       0       0       0       0
   -------------------------------------------------------
    Total     422     422      29      29      29       0
   -------------------------------------------------------

  ==> Integral Setup <==

  DFHelper Memory: AOs need 1.315 GiB; user supplied 22.352 GiB. Using in-core AOs.

  ==> MemDFJK: Density-Fitted J/K Matrices <==

    J tasked:                   Yes
    K tasked:                   Yes
    wK tasked:                   No
    OpenMP threads:               8
    Memory [MiB]:             22888
    Algorithm:                 Core
    Schwarz Cutoff:           1E-12
    Mask sparsity (%):       2.1709
    Fitting Condition:        1E-10

   => Auxiliary Basis Set <=

  Basis Set: (AUG-CC-PVTZ AUX)
    Blend: AUG-CC-PVTZ-JKFIT
    Number of shells: 286
    Number of basis function: 972
    Number of Cartesian functions: 1193
    Spherical Harmonics?: true
    Max angular momentum: 4

  Minimum eigenvalue in the overlap matrix is 1.1717016189E-05.
  Using Symmetric Orthogonalization.

  SCF Guess: Superposition of Atomic Densities via on-the-fly atomic UHF.

  ==> Iterations <==

                           Total Energy        Delta E     RMS |[F,P]|

   @DF-RHF iter SAD:  -913.11952976477596   -9.13120e+02   0.00000e+00 
   @DF-RHF iter   1:  -913.21639510849627   -9.68653e-02   1.22715e-03 DIIS
   @DF-RHF iter   2:  -913.35495030353616   -1.38555e-01   6.10025e-04 DIIS
   @DF-RHF iter   3:  -913.39083305271447   -3.58827e-02   1.35761e-04 DIIS
   @DF-RHF iter   4:  -913.39399401048695   -3.16096e-03   3.64878e-05 DIIS
   @DF-RHF iter   5:  -913.39423085471719   -2.36844e-04   8.97216e-06 DIIS
   @DF-RHF iter   6:  -913.39425043070491   -1.95760e-05   2.55406e-06 DIIS
   @DF-RHF iter   7:  -913.39425214035930   -1.70965e-06   7.84267e-07 DIIS
   @DF-RHF iter   8:  -913.39425231285725   -1.72498e-07   2.15447e-07 DIIS
   @DF-RHF iter   9:  -913.39425232397002   -1.11128e-08   6.21117e-08 DIIS
   @DF-RHF iter  10:  -913.39425232478447   -8.14453e-10   1.58215e-08 DIIS
   @DF-RHF iter  11:  -913.39425232482631   -4.18368e-11   4.42923e-09 DIIS
   @DF-RHF iter  12:  -913.39425232483052   -4.20641e-12   1.27875e-09 DIIS
   @DF-RHF iter  13:  -913.39425232483256   -2.04636e-12   3.89605e-10 DIIS
   @DF-RHF iter  14:  -913.39425232482881    3.75167e-12   1.33228e-10 DIIS
   @DF-RHF iter  15:  -913.39425232483154   -2.72848e-12   5.07349e-11 DIIS
  Energy and wave function converged.


  ==> Post-Iterations <==

    Orbital Energies [Eh]
    ---------------------

    Doubly Occupied:                                                      

       1A    -91.956907     2A    -91.956142     3A    -11.272686  
       4A    -11.271293     5A    -11.241600     6A     -8.958052  
       7A     -8.957401     8A     -6.639398     9A     -6.638750  
      10A     -6.638384    11A     -6.637800    12A     -6.637353  
      13A     -6.636724    14A     -1.117607    15A     -1.037707  
      16A     -0.949801    17A     -0.850903    18A     -0.809536  
      19A     -0.671097    20A     -0.616390    21A     -0.592133  
      22A     -0.572044    23A     -0.529061    24A     -0.516911  
      25A     -0.495756    26A     -0.461348    27A     -0.445949  
      28A     -0.362599    29A     -0.358671  

    Virtual:                                                              

      30A      0.027345    31A      0.035588    32A      0.038741  
      33A      0.041299    34A      0.057077    35A      0.059875  
      36A      0.062873    37A      0.065053    38A      0.087365  
      39A      0.089406    40A      0.094524    41A      0.111426  
      42A      0.120826    43A      0.121809    44A      0.124480  
      45A      0.127258    46A      0.134749    47A      0.137634  
      48A      0.139986    49A      0.150174    50A      0.153089  
      51A      0.164204    52A      0.172941    53A      0.182197  
      54A      0.192629    55A      0.199338    56A      0.204173  
      57A      0.210594    58A      0.212229    59A      0.223581  
      60A      0.228129    61A      0.241238    62A      0.245675  
      63A      0.256593    64A      0.272600    65A      0.277541  
      66A      0.282901    67A      0.285573    68A      0.297642  
      69A      0.305366    70A      0.315093    71A      0.334781  
      72A      0.340666    73A      0.342994    74A      0.345657  
      75A      0.352310    76A      0.358786    77A      0.362856  
      78A      0.372521    79A      0.380324    80A      0.381082  
      81A      0.385040    82A      0.386686    83A      0.394989  
      84A      0.400204    85A      0.403778    86A      0.411444  
      87A      0.414201    88A      0.421169    89A      0.425425  
      90A      0.427132    91A      0.434103    92A      0.440889  
      93A      0.448831    94A      0.452814    95A      0.454886  
      96A      0.462889    97A      0.467904    98A      0.473000  
      99A      0.482035   100A      0.495889   101A      0.503707  
     102A      0.516795   103A      0.522953   104A      0.524528  
     105A      0.535931   106A      0.538967   107A      0.552474  
     108A      0.556582   109A      0.578828   110A      0.586087  
     111A      0.593322   112A      0.596832   113A      0.607915  
     114A      0.613610   115A      0.617898   116A      0.627528  
     117A      0.643082   118A      0.674674   119A      0.676745  
     120A      0.691482   121A      0.707999   122A      0.721333  
     123A      0.736279   124A      0.740271   125A      0.744280  
     126A      0.753031   127A      0.781671   128A      0.793921  
     129A      0.803068   130A      0.808355   131A      0.809340  
     132A      0.818539   133A      0.822044   134A      0.832963  
     135A      0.835761   136A      0.844705   137A      0.850519  
     138A      0.863687   139A      0.867351   140A      0.875923  
     141A      0.879302   142A      0.891373   143A      0.896546  
     144A      0.905230   145A      0.906402   146A      0.920015  
     147A      0.925657   148A      0.936941   149A      0.942588  
     150A      0.943891   151A      0.950054   152A      0.956513  
     153A      0.968872   154A      0.974808   155A      0.991516  
     156A      0.997015   157A      1.011746   158A      1.021047  
     159A      1.029728   160A      1.035715   161A      1.057167  
     162A      1.066586   163A      1.074664   164A      1.090514  
     165A      1.093852   166A      1.096022   167A      1.107140  
     168A      1.110657   169A      1.116768   170A      1.128887  
     171A      1.131090   172A      1.134217   173A      1.140299  
     174A      1.151102   175A      1.166400   176A      1.180132  
     177A      1.190140   178A      1.197893   179A      1.199255  
     180A      1.212415   181A      1.220181   182A      1.230691  
     183A      1.237230   184A      1.249916   185A      1.262352  
     186A      1.263594   187A      1.267332   188A      1.282091  
     189A      1.297496   190A      1.315703   191A      1.322279  
     192A      1.325742   193A      1.353428   194A      1.361311  
     195A      1.379430   196A      1.398503   197A      1.404102  
     198A      1.419925   199A      1.433960   200A      1.454497  
     201A      1.466666   202A      1.473990   203A      1.484713  
     204A      1.494341   205A      1.515032   206A      1.530584  
     207A      1.534183   208A      1.540616   209A      1.562379  
     210A      1.570819   211A      1.593066   212A      1.594493  
     213A      1.597352   214A      1.615929   215A      1.626448  
     216A      1.649036   217A      1.655245   218A      1.666100  
     219A      1.671121   220A      1.675549   221A      1.699128  
     222A      1.707308   223A      1.718388   224A      1.731675  
     225A      1.743479   226A      1.754823   227A      1.760511  
     228A      1.766176   229A      1.776969   230A      1.787716  
     231A      1.799978   232A      1.809356   233A      1.825483  
     234A      1.835771   235A      1.842712   236A      1.854379  
     237A      1.880640   238A      1.884415   239A      1.905338  
     240A      1.917465   241A      1.935534   242A      1.957678  
     243A      1.965665   244A      1.979044   245A      2.011039  
     246A      2.038414   247A      2.041065   248A      2.047574  
     249A      2.054233   250A      2.065395   251A      2.111280  
     252A      2.125832   253A      2.161942   254A      2.192055  
     255A      2.204541   256A      2.211310   257A      2.225829  
     258A      2.234305   259A      2.243813   260A      2.251852  
     261A      2.269965   262A      2.275847   263A      2.281926  
     264A      2.292768   265A      2.310937   266A      2.333881  
     267A      2.340549   268A      2.372902   269A      2.403040  
     270A      2.424803   271A      2.450611   272A      2.479023  
     273A      2.492382   274A      2.502237   275A      2.529704  
     276A      2.536240   277A      2.552561   278A      2.568816  
     279A      2.591950   280A      2.606455   281A      2.624801  
     282A      2.637412   283A      2.674102   284A      2.688369  
     285A      2.708500   286A      2.722196   287A      2.738125  
     288A      2.788398   289A      2.808041   290A      2.849248  
     291A      2.869844   292A      2.883243   293A      2.913831  
     294A      2.961177   295A      2.994637   296A      3.103250  
     297A      3.137775   298A      3.163927   299A      3.198320  
     300A      3.267575   301A      3.308562   302A      3.376860  
     303A      3.393304   304A      3.409144   305A      3.440749  
     306A      3.476025   307A      3.491064   308A      3.569403  
     309A      3.596263   310A      3.610302   311A      3.618379  
     312A      3.630647   313A      3.653610   314A      3.657871  
     315A      3.687204   316A      3.717074   317A      3.725928  
     318A      3.753388   319A      3.773326   320A      3.786612  
     321A      3.820267   322A      3.841355   323A      3.862761  
     324A      3.889095   325A      3.899252   326A      3.901190  
     327A      3.924985   328A      3.951877   329A      3.967135  
     330A      3.969716   331A      4.010158   332A      4.023653  
     333A      4.029823   334A      4.048584   335A      4.064632  
     336A      4.102428   337A      4.127370   338A      4.140407  
     339A      4.152835   340A      4.174982   341A      4.204567  
     342A      4.214200   343A      4.253176   344A      4.260915  
     345A      4.282278   346A      4.292292   347A      4.312472  
     348A      4.317557   349A      4.357432   350A      4.383283  
     351A      4.387978   352A      4.396123   353A      4.417927  
     354A      4.441923   355A      4.443198   356A      4.462808  
     357A      4.479339   358A      4.528833   359A      4.533027  
     360A      4.564119   361A      4.580823   362A      4.609198  
     363A      4.621112   364A      4.670802   365A      4.684436  
     366A      4.703512   367A      4.711396   368A      4.729610  
     369A      4.748707   370A      4.765116   371A      4.796799  
     372A      4.808639   373A      4.851504   374A      4.875198  
     375A      4.886622   376A      4.904427   377A      4.934418  
     378A      4.939920   379A      5.015614   380A      5.024240  
     381A      5.044361   382A      5.051025   383A      5.125371  
     384A      5.131270   385A      5.138739   386A      5.167934  
     387A      5.169316   388A      5.214436   389A      5.237540  
     390A      5.243298   391A      5.282723   392A      5.299157  
     393A      5.320759   394A      5.381729   395A      5.414129  
     396A      5.429648   397A      5.475708   398A      5.539483  
     399A      5.567941   400A      5.581161   401A      5.644172  
     402A      5.678199   403A      5.714631   404A      5.805176  
     405A      5.823993   406A      5.923685   407A      5.943463  
     408A      6.049591   409A      6.082417   410A      6.171215  
     411A      6.182470   412A      6.257096   413A      6.400720  
     414A      6.482249   415A      6.702133   416A      6.766081  
     417A      6.929917   418A      7.946867   419A      8.083202  
     420A     17.030641   421A     17.411507   422A     18.527182  

    Final Occupation by Irrep:
              A 
    DOCC [    29 ]

  @DF-RHF Final Energy:  -913.39425232483154

   => Energetics <=

    Nuclear Repulsion Energy =            268.2079702344381644
    One-Electron Energy =               -1791.5444422849800503
    Two-Electron Energy =                 609.9422197257104017
    Total Energy =                       -913.3942523248315410

Computation Completed

*** tstop() called on node142.bme.utexas.edu at Fri Nov  6 15:14:54 2020
Module time:
	user time   =      69.37 seconds =       1.16 minutes
	system time =       2.40 seconds =       0.04 minutes
	total time  =         11 seconds =       0.18 minutes
Total time:
	user time   =      69.37 seconds =       1.16 minutes
	system time =       2.40 seconds =       0.04 minutes
	total time  =         11 seconds =       0.18 minutes
   => Loading Basis Set <=

    Name: (AUG-CC-PVTZ AUX)
    Role: RIFIT
    Keyword: DF_BASIS_MP2
    atoms 1-2  entry S          line   666 file /home/xy3866/psi4conda/share/psi4/basis/aug-cc-pvtz-ri.gbs 
    atoms 3-5  entry C          line   148 file /home/xy3866/psi4conda/share/psi4/basis/aug-cc-pvtz-ri.gbs 
    atoms 6-13 entry H          line    30 file /home/xy3866/psi4conda/share/psi4/basis/aug-cc-pvtz-ri.gbs 


*** tstart() called on node142.bme.utexas.edu
*** at Fri Nov  6 15:14:55 2020


  //>>>>>>>>>>>>>>>>>>>>>>>>>>>>>>>>>>>//
  //               DFMP2               //
  //<<<<<<<<<<<<<<<<<<<<<<<<<<<<<<<<<<<//

	 --------------------------------------------------------
	                          DF-MP2                         
	      2nd-Order Density-Fitted Moller-Plesset Theory     
	              RMP2 Wavefunction,   8 Threads             
	                                                         
	        Rob Parrish, Justin Turney, Andy Simmonett,      
	           Ed Hohenstein, and C. David Sherrill          
	 --------------------------------------------------------

   => Auxiliary Basis Set <=

  Basis Set: (AUG-CC-PVTZ AUX)
    Blend: AUG-CC-PVTZ-RI
    Number of shells: 270
    Number of basis function: 980
    Number of Cartesian functions: 1230
    Spherical Harmonics?: true
    Max angular momentum: 4

	 --------------------------------------------------------
	                 NBF =   422, NAUX =   980
	 --------------------------------------------------------
	   CLASS    FOCC     OCC    AOCC    AVIR     VIR    FVIR
	   PAIRS       0      29      29     393     393       0
	 --------------------------------------------------------


Traceback (most recent call last):
  File "/home/xy3866/psi4conda/bin/psi4", line 287, in <module>
    exec(content)
  File "<string>", line 42, in <module>
  File "/home/xy3866/psi4conda/lib//python3.7/site-packages/psi4/driver/driver.py", line 816, in properties
    return driver_cbs._cbs_gufunc(properties, lowername, ptype='properties', **kwargs)
  File "/home/xy3866/psi4conda/lib//python3.7/site-packages/psi4/driver/driver_cbs.py", line 1949, in _cbs_gufunc
    ptype_value, wfn = func(method_name, return_wfn=True, molecule=molecule, **kwargs)
  File "/home/xy3866/psi4conda/lib//python3.7/site-packages/psi4/driver/driver.py", line 826, in properties
    wfn = procedures['properties'][lowername](lowername, **kwargs)
  File "/home/xy3866/psi4conda/lib//python3.7/site-packages/psi4/driver/procrouting/proc.py", line 194, in select_mp2_property
    return func(name, **kwargs)
  File "/home/xy3866/psi4conda/lib//python3.7/site-packages/psi4/driver/procrouting/proc.py", line 2701, in run_dfmp2_property
    grad = dfmp2_wfn.compute_gradient()

RuntimeError: 
Fatal Error: PSIO Error
Error occurred in file: /scratch/psilocaluser/conda-builds/psi4-multiout_1557940846948/work/psi4/src/psi4/libpsio/error.cc on line: 128
The most recent 5 function calls were:

psi::PSIO::rw(unsigned long, char*, psi::psio_address, unsigned long, int)



Printing out the relevant lines from the Psithon --> Python processed input file:
    no_reorient 
    symmetry c1 
    """)
    core.IO.set_default_namespace("")
    core.set_global_option("PROPERTIES_ORIGIN", ["COM"])
--> properties('MP2/aug-cc-pvtz', properties = ['dipole'])

    Psi4 stopped on: Friday, 06 November 2020 03:15PM
    Psi4 wall time for execution: 0:00:24.37

*** Psi4 encountered an error. Buy a developer more coffee!
*** Resources and help at github.com/psi4/psi4.
