132075127                                                               
Freq      RMP2-FC                                                     6-31G(d)            
Number of atoms                            I               16
Info1-9                                    I   N=           9
          28          26        1002           0           0         100
           6           2           1
Charge                                     I                0
Multiplicity                               I                1
Number of electrons                        I               62
Number of alpha electrons                  I               31
Number of beta electrons                   I               31
Number of basis functions                  I              136
Number of independent functions            I              136
Number of point charges in /Mol/           I                0
Number of translation vectors              I                0
Atomic numbers                             I   N=          16
           9           8           7           6           6           6
           6           6           1           1           1           1
           1           1           1           1
Nuclear charges                            R   N=          16
  9.00000000E+00  8.00000000E+00  7.00000000E+00  6.00000000E+00  6.00000000E+00
  6.00000000E+00  6.00000000E+00  6.00000000E+00  1.00000000E+00  1.00000000E+00
  1.00000000E+00  1.00000000E+00  1.00000000E+00  1.00000000E+00  1.00000000E+00
  1.00000000E+00
Current cartesian coordinates              R   N=          48
 -1.67757866E+00  3.10642992E+00 -1.68912661E-05  1.12690288E+00 -3.01434575E+00
 -1.80835773E-05  2.81133443E+00  9.98419340E-01  1.44696099E-05 -1.69094356E+00
  4.74884224E-01  3.90351912E-07 -3.77019805E+00 -7.89877773E-01  1.42671857E+00
 -3.77020838E+00 -7.89881803E-01 -1.42669520E+00  8.86199135E-01 -6.91606928E-01
 -7.48422881E-07  5.43617144E+00  2.12476185E-01  2.21382084E-06 -5.09884830E+00
  4.55905745E-01  2.36705874E+00 -3.29126494E+00 -2.52858870E+00  2.39888798E+00
 -3.29133429E+00 -2.52859030E+00 -2.39889774E+00 -5.09885759E+00  4.55925657E-01
 -2.36700962E+00  2.35705698E+00  2.85385033E+00  8.59592300E-07  6.41300246E+00
  9.05060855E-01  1.68411242E+00  6.41296372E+00  9.04957507E-01 -1.68417383E+00
  5.45480228E+00 -1.84652318E+00  6.52230667E-05
Force Field                                I                0
Int Atom Types                             I   N=          16
           0           0           0           0           0           0
           0           0           0           0           0           0
           0           0           0           0
MM charges                                 R   N=          16
  0.00000000E+00  0.00000000E+00  0.00000000E+00  0.00000000E+00  0.00000000E+00
  0.00000000E+00  0.00000000E+00  0.00000000E+00  0.00000000E+00  0.00000000E+00
  0.00000000E+00  0.00000000E+00  0.00000000E+00  0.00000000E+00  0.00000000E+00
  0.00000000E+00
Integer atomic weights                     I   N=          16
          19          16          14          12          12          12
          12          12           1           1           1           1
           1           1           1           1
Real atomic weights                        R   N=          16
  1.89984032E+01  1.59949146E+01  1.40030740E+01  1.20000000E+01  1.20000000E+01
  1.20000000E+01  1.20000000E+01  1.20000000E+01  1.00782504E+00  1.00782504E+00
  1.00782504E+00  1.00782504E+00  1.00782504E+00  1.00782504E+00  1.00782504E+00
  1.00782504E+00
Atom fragment info                         I   N=          16
           0           0           0           0           0           0
           0           0           0           0           0           0
           0           0           0           0
Atom residue num                           I   N=          16
           0           0           0           0           0           0
           0           0           0           0           0           0
           0           0           0           0
Nuclear spins                              I   N=          16
           1           0           2           0           0           0
           0           0           1           1           1           1
           1           1           1           1
Nuclear ZEff                               R   N=          16
 -6.75000000E+00 -5.60000000E+00 -4.55000000E+00 -3.60000000E+00 -3.60000000E+00
 -3.60000000E+00 -3.60000000E+00 -3.60000000E+00 -1.00000000E+00 -1.00000000E+00
 -1.00000000E+00 -1.00000000E+00 -1.00000000E+00 -1.00000000E+00 -1.00000000E+00
 -1.00000000E+00
Nuclear QMom                               R   N=          16
  0.00000000E+00  0.00000000E+00  2.04400000E+00  0.00000000E+00  0.00000000E+00
  0.00000000E+00  0.00000000E+00  0.00000000E+00  0.00000000E+00  0.00000000E+00
  0.00000000E+00  0.00000000E+00  0.00000000E+00  0.00000000E+00  0.00000000E+00
  0.00000000E+00
Nuclear GFac                               R   N=          16
  2.62886700E+00  0.00000000E+00  4.03761000E-01  0.00000000E+00  0.00000000E+00
  0.00000000E+00  0.00000000E+00  0.00000000E+00  2.79284600E+00  2.79284600E+00
  2.79284600E+00  2.79284600E+00  2.79284600E+00  2.79284600E+00  2.79284600E+00
  2.79284600E+00
MicOpt                                     I   N=          16
          -1          -1          -1          -1          -1          -1
          -1          -1          -1          -1          -1          -1
          -1          -1          -1          -1
Number of contracted shells                I               48
Number of primitive shells                 I              120
Pure/Cartesian d shells                    I                1
Pure/Cartesian f shells                    I                0
Highest angular momentum                   I                2
Largest degree of contraction              I                6
Shell types                                I   N=          48
           0          -1          -1           2           0          -1
          -1           2           0          -1          -1           2
           0          -1          -1           2           0          -1
          -1           2           0          -1          -1           2
           0          -1          -1           2           0          -1
          -1           2           0           0           0           0
           0           0           0           0           0           0
           0           0           0           0           0           0
Number of primitives per shell             I   N=          48
           6           3           1           1           6           3
           1           1           6           3           1           1
           6           3           1           1           6           3
           1           1           6           3           1           1
           6           3           1           1           6           3
           1           1           3           1           3           1
           3           1           3           1           3           1
           3           1           3           1           3           1
Shell to atom map                          I   N=          48
           1           1           1           1           2           2
           2           2           3           3           3           3
           4           4           4           4           5           5
           5           5           6           6           6           6
           7           7           7           7           8           8
           8           8           9           9          10          10
          11          11          12          12          13          13
          14          14          15          15          16          16
Primitive exponents                        R   N=         120
  7.00171309E+03  1.05136609E+03  2.39285690E+02  6.73974453E+01  2.15199573E+01
  7.40310130E+00  2.08479528E+01  4.80830834E+00  1.34406986E+00  3.58151393E-01
  8.00000000E-01  5.48467166E+03  8.25234946E+02  1.88046958E+02  5.29645000E+01
  1.68975704E+01  5.79963534E+00  1.55396162E+01  3.59993359E+00  1.01376175E+00
  2.70005823E-01  8.00000000E-01  4.17351146E+03  6.27457911E+02  1.42902093E+02
  4.02343293E+01  1.28202129E+01  4.39043701E+00  1.16263619E+01  2.71627981E+00
  7.72218397E-01  2.12031498E-01  8.00000000E-01  3.04752488E+03  4.57369518E+02
  1.03948685E+02  2.92101553E+01  9.28666296E+00  3.16392696E+00  7.86827235E+00
  1.88128854E+00  5.44249258E-01  1.68714478E-01  8.00000000E-01  3.04752488E+03
  4.57369518E+02  1.03948685E+02  2.92101553E+01  9.28666296E+00  3.16392696E+00
  7.86827235E+00  1.88128854E+00  5.44249258E-01  1.68714478E-01  8.00000000E-01
  3.04752488E+03  4.57369518E+02  1.03948685E+02  2.92101553E+01  9.28666296E+00
  3.16392696E+00  7.86827235E+00  1.88128854E+00  5.44249258E-01  1.68714478E-01
  8.00000000E-01  3.04752488E+03  4.57369518E+02  1.03948685E+02  2.92101553E+01
  9.28666296E+00  3.16392696E+00  7.86827235E+00  1.88128854E+00  5.44249258E-01
  1.68714478E-01  8.00000000E-01  3.04752488E+03  4.57369518E+02  1.03948685E+02
  2.92101553E+01  9.28666296E+00  3.16392696E+00  7.86827235E+00  1.88128854E+00
  5.44249258E-01  1.68714478E-01  8.00000000E-01  1.87311370E+01  2.82539436E+00
  6.40121692E-01  1.61277759E-01  1.87311370E+01  2.82539436E+00  6.40121692E-01
  1.61277759E-01  1.87311370E+01  2.82539436E+00  6.40121692E-01  1.61277759E-01
  1.87311370E+01  2.82539436E+00  6.40121692E-01  1.61277759E-01  1.87311370E+01
  2.82539436E+00  6.40121692E-01  1.61277759E-01  1.87311370E+01  2.82539436E+00
  6.40121692E-01  1.61277759E-01  1.87311370E+01  2.82539436E+00  6.40121692E-01
  1.61277759E-01  1.87311370E+01  2.82539436E+00  6.40121692E-01  1.61277759E-01
Contraction coefficients                   R   N=         120
  1.81961690E-03  1.39160796E-02  6.84053245E-02  2.33185760E-01  4.71267439E-01
  3.56618546E-01 -1.08506975E-01 -1.46451658E-01  1.12868858E+00  1.00000000E+00
  1.00000000E+00  1.83107443E-03  1.39501722E-02  6.84450781E-02  2.32714336E-01
  4.70192898E-01  3.58520853E-01 -1.10777550E-01 -1.48026263E-01  1.13076702E+00
  1.00000000E+00  1.00000000E+00  1.83477216E-03  1.39946270E-02  6.85865518E-02
  2.32240873E-01  4.69069948E-01  3.60455199E-01 -1.14961182E-01 -1.69117479E-01
  1.14585195E+00  1.00000000E+00  1.00000000E+00  1.83473713E-03  1.40373228E-02
  6.88426223E-02  2.32184443E-01  4.67941348E-01  3.62311985E-01 -1.19332420E-01
 -1.60854152E-01  1.14345644E+00  1.00000000E+00  1.00000000E+00  1.83473713E-03
  1.40373228E-02  6.88426223E-02  2.32184443E-01  4.67941348E-01  3.62311985E-01
 -1.19332420E-01 -1.60854152E-01  1.14345644E+00  1.00000000E+00  1.00000000E+00
  1.83473713E-03  1.40373228E-02  6.88426223E-02  2.32184443E-01  4.67941348E-01
  3.62311985E-01 -1.19332420E-01 -1.60854152E-01  1.14345644E+00  1.00000000E+00
  1.00000000E+00  1.83473713E-03  1.40373228E-02  6.88426223E-02  2.32184443E-01
  4.67941348E-01  3.62311985E-01 -1.19332420E-01 -1.60854152E-01  1.14345644E+00
  1.00000000E+00  1.00000000E+00  1.83473713E-03  1.40373228E-02  6.88426223E-02
  2.32184443E-01  4.67941348E-01  3.62311985E-01 -1.19332420E-01 -1.60854152E-01
  1.14345644E+00  1.00000000E+00  1.00000000E+00  3.34946043E-02  2.34726953E-01
  8.13757326E-01  1.00000000E+00  3.34946043E-02  2.34726953E-01  8.13757326E-01
  1.00000000E+00  3.34946043E-02  2.34726953E-01  8.13757326E-01  1.00000000E+00
  3.34946043E-02  2.34726953E-01  8.13757326E-01  1.00000000E+00  3.34946043E-02
  2.34726953E-01  8.13757326E-01  1.00000000E+00  3.34946043E-02  2.34726953E-01
  8.13757326E-01  1.00000000E+00  3.34946043E-02  2.34726953E-01  8.13757326E-01
  1.00000000E+00  3.34946043E-02  2.34726953E-01  8.13757326E-01  1.00000000E+00
P(S=P) Contraction coefficients            R   N=         120
  0.00000000E+00  0.00000000E+00  0.00000000E+00  0.00000000E+00  0.00000000E+00
  0.00000000E+00  7.16287242E-02  3.45912103E-01  7.22469956E-01  1.00000000E+00
  0.00000000E+00  0.00000000E+00  0.00000000E+00  0.00000000E+00  0.00000000E+00
  0.00000000E+00  0.00000000E+00  7.08742682E-02  3.39752839E-01  7.27158577E-01
  1.00000000E+00  0.00000000E+00  0.00000000E+00  0.00000000E+00  0.00000000E+00
  0.00000000E+00  0.00000000E+00  0.00000000E+00  6.75797439E-02  3.23907296E-01
  7.40895140E-01  1.00000000E+00  0.00000000E+00  0.00000000E+00  0.00000000E+00
  0.00000000E+00  0.00000000E+00  0.00000000E+00  0.00000000E+00  6.89990666E-02
  3.16423961E-01  7.44308291E-01  1.00000000E+00  0.00000000E+00  0.00000000E+00
  0.00000000E+00  0.00000000E+00  0.00000000E+00  0.00000000E+00  0.00000000E+00
  6.89990666E-02  3.16423961E-01  7.44308291E-01  1.00000000E+00  0.00000000E+00
  0.00000000E+00  0.00000000E+00  0.00000000E+00  0.00000000E+00  0.00000000E+00
  0.00000000E+00  6.89990666E-02  3.16423961E-01  7.44308291E-01  1.00000000E+00
  0.00000000E+00  0.00000000E+00  0.00000000E+00  0.00000000E+00  0.00000000E+00
  0.00000000E+00  0.00000000E+00  6.89990666E-02  3.16423961E-01  7.44308291E-01
  1.00000000E+00  0.00000000E+00  0.00000000E+00  0.00000000E+00  0.00000000E+00
  0.00000000E+00  0.00000000E+00  0.00000000E+00  6.89990666E-02  3.16423961E-01
  7.44308291E-01  1.00000000E+00  0.00000000E+00  0.00000000E+00  0.00000000E+00
  0.00000000E+00  0.00000000E+00  0.00000000E+00  0.00000000E+00  0.00000000E+00
  0.00000000E+00  0.00000000E+00  0.00000000E+00  0.00000000E+00  0.00000000E+00
  0.00000000E+00  0.00000000E+00  0.00000000E+00  0.00000000E+00  0.00000000E+00
  0.00000000E+00  0.00000000E+00  0.00000000E+00  0.00000000E+00  0.00000000E+00
  0.00000000E+00  0.00000000E+00  0.00000000E+00  0.00000000E+00  0.00000000E+00
  0.00000000E+00  0.00000000E+00  0.00000000E+00  0.00000000E+00  0.00000000E+00
Coordinates of each shell                  R   N=         144
 -1.67757866E+00  3.10642992E+00 -1.68912661E-05 -1.67757866E+00  3.10642992E+00
 -1.68912661E-05 -1.67757866E+00  3.10642992E+00 -1.68912661E-05 -1.67757866E+00
  3.10642992E+00 -1.68912661E-05  1.12690288E+00 -3.01434575E+00 -1.80835773E-05
  1.12690288E+00 -3.01434575E+00 -1.80835773E-05  1.12690288E+00 -3.01434575E+00
 -1.80835773E-05  1.12690288E+00 -3.01434575E+00 -1.80835773E-05  2.81133443E+00
  9.98419340E-01  1.44696099E-05  2.81133443E+00  9.98419340E-01  1.44696099E-05
  2.81133443E+00  9.98419340E-01  1.44696099E-05  2.81133443E+00  9.98419340E-01
  1.44696099E-05 -1.69094356E+00  4.74884224E-01  3.90351912E-07 -1.69094356E+00
  4.74884224E-01  3.90351912E-07 -1.69094356E+00  4.74884224E-01  3.90351912E-07
 -1.69094356E+00  4.74884224E-01  3.90351912E-07 -3.77019805E+00 -7.89877773E-01
  1.42671857E+00 -3.77019805E+00 -7.89877773E-01  1.42671857E+00 -3.77019805E+00
 -7.89877773E-01  1.42671857E+00 -3.77019805E+00 -7.89877773E-01  1.42671857E+00
 -3.77020838E+00 -7.89881803E-01 -1.42669520E+00 -3.77020838E+00 -7.89881803E-01
 -1.42669520E+00 -3.77020838E+00 -7.89881803E-01 -1.42669520E+00 -3.77020838E+00
 -7.89881803E-01 -1.42669520E+00  8.86199135E-01 -6.91606928E-01 -7.48422881E-07
  8.86199135E-01 -6.91606928E-01 -7.48422881E-07  8.86199135E-01 -6.91606928E-01
 -7.48422881E-07  8.86199135E-01 -6.91606928E-01 -7.48422881E-07  5.43617144E+00
  2.12476185E-01  2.21382084E-06  5.43617144E+00  2.12476185E-01  2.21382084E-06
  5.43617144E+00  2.12476185E-01  2.21382084E-06  5.43617144E+00  2.12476185E-01
  2.21382084E-06 -5.09884830E+00  4.55905745E-01  2.36705874E+00 -5.09884830E+00
  4.55905745E-01  2.36705874E+00 -3.29126494E+00 -2.52858870E+00  2.39888798E+00
 -3.29126494E+00 -2.52858870E+00  2.39888798E+00 -3.29133429E+00 -2.52859030E+00
 -2.39889774E+00 -3.29133429E+00 -2.52859030E+00 -2.39889774E+00 -5.09885759E+00
  4.55925657E-01 -2.36700962E+00 -5.09885759E+00  4.55925657E-01 -2.36700962E+00
  2.35705698E+00  2.85385033E+00  8.59592300E-07  2.35705698E+00  2.85385033E+00
  8.59592300E-07  6.41300246E+00  9.05060855E-01  1.68411242E+00  6.41300246E+00
  9.05060855E-01  1.68411242E+00  6.41296372E+00  9.04957507E-01 -1.68417383E+00
  6.41296372E+00  9.04957507E-01 -1.68417383E+00  5.45480228E+00 -1.84652318E+00
  6.52230667E-05  5.45480228E+00 -1.84652318E+00  6.52230667E-05
Constraint Structure                       R   N=          48
 -1.67757866E+00  3.10642992E+00 -1.68912661E-05  1.12690288E+00 -3.01434575E+00
 -1.80835773E-05  2.81133443E+00  9.98419340E-01  1.44696099E-05 -1.69094356E+00
  4.74884224E-01  3.90351912E-07 -3.77019805E+00 -7.89877773E-01  1.42671857E+00
 -3.77020838E+00 -7.89881803E-01 -1.42669520E+00  8.86199135E-01 -6.91606928E-01
 -7.48422881E-07  5.43617144E+00  2.12476185E-01  2.21382084E-06 -5.09884830E+00
  4.55905745E-01  2.36705874E+00 -3.29126494E+00 -2.52858870E+00  2.39888798E+00
 -3.29133429E+00 -2.52859030E+00 -2.39889774E+00 -5.09885759E+00  4.55925657E-01
 -2.36700962E+00  2.35705698E+00  2.85385033E+00  8.59592300E-07  6.41300246E+00
  9.05060855E-01  1.68411242E+00  6.41296372E+00  9.04957507E-01 -1.68417383E+00
  5.45480228E+00 -1.84652318E+00  6.52230667E-05
Num ILSW                                   I              100
ILSW                                       I   N=         100
           0           1           0           0           2           0
           0           0           0           0           0          -1
           0           0           0           0           0           0
           0           0           0           0           1           0
           1           0           0           0           0           0
           0           0      100000           0          -1           0
           0           0           0           0           0           0
           0           0           0           1           1           0
           0           0           1           0           0           0
           0           0           4          40           0           0
           0           0           0           0           0           0
           0           0           0           0           0           0
           0           0           0           0           0           0
           0           0           0           0           0           0
           0           0           0           0           0           0
           0           0           0           0           0           0
           0           0           0           0
Num RLSW                                   I               40
RLSW                                       R   N=          40
  1.00000000E+00  1.00000000E+00  1.00000000E+00  1.00000000E+00  1.00000000E+00
  0.00000000E+00  0.00000000E+00  1.00000000E+00  0.00000000E+00  0.00000000E+00
  0.00000000E+00  0.00000000E+00  1.00000000E+00  0.00000000E+00  0.00000000E+00
  0.00000000E+00  0.00000000E+00  1.00000000E+00  0.00000000E+00  0.00000000E+00
  0.00000000E+00  0.00000000E+00  1.00000000E+00  0.00000000E+00  0.00000000E+00
  0.00000000E+00  0.00000000E+00  1.00000000E+00  0.00000000E+00  0.00000000E+00
  0.00000000E+00  0.00000000E+00  0.00000000E+00  0.00000000E+00  0.00000000E+00
  0.00000000E+00  0.00000000E+00  0.00000000E+00  1.00000000E+00  1.00000000E+00
MxBond                                     I                4
NBond                                      I   N=          16
           1           1           3           4           4           4
           3           4           1           1           1           1
           1           1           1           1
IBond                                      I   N=          64
           4           0           0           0           7           0
           0           0           7           8          13           0
           1           5           6           7           4           6
           9          10           4           5          11          12
           2           3           4           0           3          14
          15          16           5           0           0           0
           5           0           0           0           6           0
           0           0           6           0           0           0
           3           0           0           0           8           0
           0           0           8           0           0           0
           8           0           0           0
RBond                                      R   N=          64
  1.00000000E+00  0.00000000E+00  0.00000000E+00  0.00000000E+00  2.00000000E+00
  0.00000000E+00  0.00000000E+00  0.00000000E+00  1.00000000E+00  1.00000000E+00
  1.00000000E+00  0.00000000E+00  1.00000000E+00  1.00000000E+00  1.00000000E+00
  1.00000000E+00  1.00000000E+00  1.00000000E+00  1.00000000E+00  1.00000000E+00
  1.00000000E+00  1.00000000E+00  1.00000000E+00  1.00000000E+00  2.00000000E+00
  1.00000000E+00  1.00000000E+00  0.00000000E+00  1.00000000E+00  1.00000000E+00
  1.00000000E+00  1.00000000E+00  1.00000000E+00  0.00000000E+00  0.00000000E+00
  0.00000000E+00  1.00000000E+00  0.00000000E+00  0.00000000E+00  0.00000000E+00
  1.00000000E+00  0.00000000E+00  0.00000000E+00  0.00000000E+00  1.00000000E+00
  0.00000000E+00  0.00000000E+00  0.00000000E+00  1.00000000E+00  0.00000000E+00
  0.00000000E+00  0.00000000E+00  1.00000000E+00  0.00000000E+00  0.00000000E+00
  0.00000000E+00  1.00000000E+00  0.00000000E+00  0.00000000E+00  0.00000000E+00
  1.00000000E+00  0.00000000E+00  0.00000000E+00  0.00000000E+00
Virial Ratio                               R      2.002394718495177E+00
SCF Energy                                 R     -4.227253324957085E+02
MP2 Energy                                 R     -4.238773819270492E+02
Total Energy                               R     -4.238773819270492E+02
Post-SCF wavefunction norm                 R      1.643714876759041E+00
RMS Force                                  R      1.002303820259034E-06
RMS Density                                R      3.384589760098642E-09
External E-field                           R   N=          35
  0.00000000E+00  0.00000000E+00  0.00000000E+00  0.00000000E+00  0.00000000E+00
  0.00000000E+00  0.00000000E+00  0.00000000E+00  0.00000000E+00  0.00000000E+00
  0.00000000E+00  0.00000000E+00  0.00000000E+00  0.00000000E+00  0.00000000E+00
  0.00000000E+00  0.00000000E+00  0.00000000E+00  0.00000000E+00  0.00000000E+00
  0.00000000E+00  0.00000000E+00  0.00000000E+00  0.00000000E+00  0.00000000E+00
  0.00000000E+00  0.00000000E+00  0.00000000E+00  0.00000000E+00  0.00000000E+00
  0.00000000E+00  0.00000000E+00  0.00000000E+00  0.00000000E+00  0.00000000E+00
IOpCl                                      I                0
IROHF                                      I                0
Alpha Orbital Energies                     R   N=         136
 -2.63040467E+01 -2.05259555E+01 -1.55954876E+01 -1.13615190E+01 -1.13314178E+01
 -1.12625453E+01 -1.12464447E+01 -1.12457965E+01 -1.60542839E+00 -1.37458280E+00
 -1.23325750E+00 -1.16462861E+00 -9.78337524E-01 -8.73382190E-01 -8.49049220E-01
 -7.82127029E-01 -7.60334943E-01 -6.98947302E-01 -6.78402507E-01 -6.43586519E-01
 -6.37541017E-01 -6.23113056E-01 -6.19683229E-01 -5.79918117E-01 -5.52033681E-01
 -5.47982724E-01 -5.23357740E-01 -4.64815084E-01 -4.27839137E-01 -4.18042792E-01
 -3.91025175E-01  1.86698454E-01  2.40455615E-01  2.44273680E-01  2.68280202E-01
  2.84450676E-01  2.93208585E-01  3.19050681E-01  3.22380930E-01  3.50844911E-01
  3.58570670E-01  3.71244691E-01  3.78173079E-01  3.93354190E-01  4.39097229E-01
  5.11303225E-01  5.26257341E-01  5.99325630E-01  6.79185780E-01  7.23933175E-01
  7.48711904E-01  7.54104627E-01  7.66151513E-01  8.21629058E-01  8.32411361E-01
  8.49036151E-01  8.64902142E-01  8.83464783E-01  9.20389333E-01  9.23845823E-01
  9.38068353E-01  9.52114678E-01  1.01114887E+00  1.05329652E+00  1.07685825E+00
  1.07967083E+00  1.13033407E+00  1.14733049E+00  1.15215297E+00  1.16074764E+00
  1.18489596E+00  1.19242239E+00  1.21091702E+00  1.22608517E+00  1.23114578E+00
  1.30304339E+00  1.33863141E+00  1.35952200E+00  1.47683391E+00  1.49351999E+00
  1.51023694E+00  1.54322351E+00  1.63192829E+00  1.64285448E+00  1.68385159E+00
  1.71392431E+00  1.76265684E+00  1.78037190E+00  1.82023536E+00  1.84185974E+00
  1.94096604E+00  2.00922548E+00  2.04302121E+00  2.08696973E+00  2.11241062E+00
  2.12477874E+00  2.13067036E+00  2.15253914E+00  2.16368137E+00  2.19588963E+00
  2.25984118E+00  2.29526664E+00  2.30166423E+00  2.37480420E+00  2.38483192E+00
  2.40295776E+00  2.41334209E+00  2.46936968E+00  2.57426231E+00  2.57746609E+00
  2.61680060E+00  2.62001011E+00  2.62213816E+00  2.64310446E+00  2.72595878E+00
  2.75263525E+00  2.80587210E+00  2.85071675E+00  2.89034374E+00  2.97072708E+00
  2.97973843E+00  3.04862163E+00  3.09411254E+00  3.18149772E+00  3.28722309E+00
  3.35343882E+00  3.50431850E+00  3.54994128E+00  4.37863569E+00  4.51352967E+00
  4.62668731E+00  4.66408703E+00  4.81235061E+00  4.82091049E+00  5.05660790E+00
  5.55536087E+00
Alpha MO coefficients                      R   N=       18496
  9.94433312E-01  1.77885845E-02  1.69401827E-05 -8.60054931E-04  6.15059761E-09
  7.97412808E-03  4.07843874E-05  6.80236591E-04 -4.63788564E-09 -4.51095474E-03
 -5.05449603E-03 -4.53563895E-03 -1.88246828E-06  9.89170741E-11  4.07221132E-09
  6.45562726E-06  3.18644685E-05  6.63042624E-06  1.00367237E-05  3.45608688E-10
 -2.14903726E-04 -4.71660977E-05 -3.92842189E-05 -1.39339937E-09  1.84535976E-05
  3.00253046E-05  9.92911035E-06 -3.83291959E-06  2.11562986E-11  1.39706422E-10
 -5.75866126E-06 -3.08444469E-06 -1.93559455E-05 -2.35133999E-05  2.62823994E-10
  2.08938707E-04  6.55970528E-05  2.36244733E-04 -1.58478530E-09 -2.90752752E-05
 -1.93482455E-05 -5.68732847E-06 -6.75913233E-06 -2.05044767E-10 -2.32283312E-10
 -2.95564081E-05  6.94191203E-05 -1.09261591E-05  5.18185700E-04 -3.39287784E-09
  6.29020305E-04  1.81042990E-05  1.74478521E-05 -5.71652120E-10 -1.56884989E-06
  4.12357658E-04 -6.67620157E-05  3.06620875E-06  1.08156575E-10 -3.60993656E-09
  8.99666676E-06  9.13564034E-05 -3.33045240E-06 -9.08782964E-06 -1.99793383E-06
 -1.81368554E-04 -9.13682073E-05 -1.11478431E-04  4.53017424E-05 -6.12713582E-06
 -3.76467671E-05  2.83535377E-06 -2.99855285E-05  2.18203936E-05  8.61376204E-06
  8.99620517E-06  9.13557975E-05 -3.33040897E-06 -9.08869555E-06  1.99826658E-06
 -1.81358035E-04 -9.13713463E-05 -1.11478259E-04 -4.53000728E-05 -6.12876007E-06
 -3.76489629E-05  2.83505806E-06 -2.99863812E-05 -2.18199080E-05 -8.61324199E-06
  6.50034069E-06  8.16279765E-05  1.98734180E-05  1.41690953E-05  5.20356666E-12
 -4.91349951E-05  2.55670447E-04 -2.45833929E-04  1.50503734E-09 -2.03461503E-05
 -4.40291722E-05  5.56316281E-06  3.97497154E-05  2.84572774E-11  2.85792471E-10
  2.82091521E-06  1.31003006E-05  9.63674477E-08 -1.37924531E-05  1.02039765E-10
 -9.26220106E-05  2.42828308E-05 -1.03624043E-05  3.87829499E-10  9.28333228E-06
 -3.54706241E-06  5.19537842E-06  7.26822262E-06 -1.18326330E-10  2.19323325E-11
  3.66532056E-05 -3.27042842E-05  4.33118874E-06 -1.60731455E-05  4.33065504E-06
 -1.60749684E-05  3.66535283E-05 -3.27097149E-05 -6.18292479E-06 -3.32812748E-04
  6.03832006E-07  1.54115861E-05  6.04267177E-07  1.54114958E-05  6.38514108E-06
 -1.89801344E-06  3.71407062E-06  2.57521770E-05  6.43935367E-06 -6.62570278E-06
 -7.23913661E-11 -6.97687022E-05 -1.69898993E-05  7.36429140E-06  4.77126083E-10
  8.54952864E-06  2.70572082E-05  2.04487766E-05  1.93598358E-05 -1.63927160E-10
 -1.92495713E-10  9.94691624E-01  2.09858420E-02 -1.53620219E-04  1.53615880E-03
  1.37286054E-08  4.38220984E-03  3.97190561E-05 -1.12261148E-04 -1.53975796E-09
 -3.90218229E-03 -3.67378302E-03 -4.08665827E-03 -3.23082234E-05  4.32395612E-10
  2.96605542E-09 -4.75657158E-06 -2.85296685E-05 -8.29965706E-06  2.40857508E-05
  4.92110763E-10  6.56183468E-05 -1.85086092E-05 -5.36617071E-05 -2.51078522E-09
  1.11203496E-04 -8.21728310E-05 -4.28136657E-05  6.03839534E-06 -3.75508809E-11
 -1.27590372E-10 -3.39451817E-06 -1.20329383E-05 -1.90537378E-05  2.88025737E-05
  2.72022730E-10  6.01432453E-05 -2.10368156E-04 -4.25568657E-05 -2.21460284E-09
  2.52494655E-05 -5.40312820E-05 -2.14936597E-05  6.49656954E-05  4.78074825E-10
  2.51780789E-12  2.92750492E-06  1.38842090E-05  3.59009157E-06 -5.68358469E-06
 -6.10315677E-06 -5.20621556E-05 -7.46503797E-05 -4.79339096E-05  7.39401685E-05
 -5.88330197E-07  2.63533343E-06 -5.26055484E-07 -8.31040587E-06  9.25481358E-06
  1.19830134E-05  2.92776968E-06  1.38856995E-05  3.59029449E-06 -5.68443054E-06
  6.10282829E-06 -5.20729662E-05 -7.46558682E-05 -4.79306019E-05 -7.39413652E-05
 -5.88217316E-07  2.63531548E-06 -5.25723247E-07 -8.31086726E-06 -9.25518197E-06
 -1.19833037E-05 -4.42989172E-06  5.19458463E-04  2.84494391E-06 -3.74206525E-06
 -5.94427088E-11 -2.47332901E-04 -2.01239739E-04  4.27051545E-04  4.76976913E-09
 -5.21927790E-05 -7.62192356E-04 -5.48895015E-05  5.69416995E-05  5.17506626E-10
 -6.06500208E-09 -7.27834929E-06 -1.28510190E-05  1.80836736E-05 -6.57705729E-06
 -1.17051296E-09  1.69097981E-04  2.72831977E-05 -5.49279851E-05  6.02174973E-09
 -4.62916851E-05 -1.79659014E-05 -9.79188319E-06  1.82325681E-05  4.31149936E-10
  1.09571305E-10 -3.61528364E-06 -2.57872895E-05  2.60068768E-05 -9.38444153E-05
  2.60075618E-05 -9.38399930E-05 -3.61531847E-06 -2.57884605E-05  1.68141350E-05
 -7.78244414E-06 -9.75892853E-06 -1.50431792E-05 -9.75788908E-06 -1.50388908E-05
  1.32166183E-05 -1.58903864E-04 -4.43998850E-05 -2.55024959E-04 -1.25714085E-06
  2.28364024E-05 -4.34956005E-10  1.00494850E-03 -2.48676785E-05 -1.88728235E-04
  2.53221473E-09 -1.99012128E-04 -1.49440009E-04 -1.64258860E-04 -2.84986506E-06
  1.37061772E-10 -4.24267856E-10 -3.22081916E-05 -1.79294037E-04  3.61529189E-06
 -1.75142865E-05 -4.61201915E-10  1.15785102E-03 -4.17386193E-04  2.28257981E-04
  4.11914880E-09 -8.71616735E-05 -8.42441769E-05 -1.36580402E-04 -1.01113395E-04