
    -----------------------------------------------------------------------
          Psi4: An Open-Source Ab Initio Electronic Structure Package
                               Psi4 1.4a2.dev612 

                         Git: Rev {master} 58d3bc0 


    D. G. A. Smith, L. A. Burns, A. C. Simmonett, R. M. Parrish,
    M. C. Schieber, R. Galvelis, P. Kraus, H. Kruse, R. Di Remigio,
    A. Alenaizan, A. M. James, S. Lehtola, J. P. Misiewicz, M. Scheurer,
    R. A. Shaw, J. B. Schriber, Y. Xie, Z. L. Glick, D. A. Sirianni,
    J. S. O'Brien, J. M. Waldrop, A. Kumar, E. G. Hohenstein,
    B. P. Pritchard, B. R. Brooks, H. F. Schaefer III, A. Yu. Sokolov,
    K. Patkowski, A. E. DePrince III, U. Bozkaya, R. A. King,
    F. A. Evangelista, J. M. Turney, T. D. Crawford, C. D. Sherrill,
    J. Chem. Phys. 152(18) 184108 (2020). https://doi.org/10.1063/5.0006002

                            Additional Code Authors
    E. T. Seidl, C. L. Janssen, E. F. Valeev, M. L. Leininger,
    J. F. Gonthier, R. M. Richard, H. R. McAlexander, M. Saitow, X. Wang,
    P. Verma, and M. H. Lechner

             Previous Authors, Complete List of Code Contributors,
                       and Citations for Specific Modules
    https://github.com/psi4/psi4/blob/master/codemeta.json
    https://github.com/psi4/psi4/graphs/contributors
    http://psicode.org/psi4manual/master/introduction.html#citing-psifour

    -----------------------------------------------------------------------


    Psi4 started on: Wednesday, 03 February 2021 08:59AM

    Process ID: 98234
    Host:       node59.bme.utexas.edu
    PSIDATADIR: /home/xy3866/.conda/envs/test-rdkit/share/psi4
    Memory:     500.0 MiB
    Threads:    8
    
  ==> Input File <==

--------------------------------------------------------------------------
#psi4
#
memory 32 gb

molecule  {
0 1
  N        1.4447430     0.9271060    -0.5600120
  N       -0.8646290     2.1728000     0.5033790
  C       -0.6433280    -0.2041590    -0.0552500
  C        0.8343400    -0.1560850    -0.0228830
  C       -1.4414270     0.9434540     0.1762700
  C       -1.2729090    -1.4294320    -0.3272730
  C       -2.8381000     0.7953410     0.1919050
  C        1.5703020    -1.2114420     0.5410850
  C       -2.6593290    -1.5570310    -0.3269880
  C       -3.4429950    -0.4315550    -0.0645950
  C        2.9613910    -1.1706130     0.5101660
  C        3.5885550    -0.0650650    -0.0636080
  C        2.7882770     0.9583460    -0.5692770
  H       -0.6539860    -2.2940070    -0.5598860
  H       -3.4538380     1.6721500     0.3887520
  H        1.0497850    -2.0407580     1.0110860
  H       -3.1218920    -2.5149200    -0.5495680
  H       -4.5281350    -0.5063600    -0.0566640
  H        3.5454838    -2.1192945     0.6758329
  H        0.0235730     2.3183180     0.0298570
  H       -1.4980030     2.9543290     0.3690670
  H        4.6711930     0.0129590    -0.1060480
  H        3.2359550     1.8482630    -1.0089550
units angstrom
no_reorient  #important for SAPT in psi4, default
symmetry c1  #important for SAPT in psi4, default
}

set PROPERTIES_ORIGIN ["COM"]
properties('MP2/aug-cc-pvtz', properties = ['dipole'])
--------------------------------------------------------------------------

  Memory set to  29.802 GiB by Python driver.
    SCF Algorithm Type (re)set to DF.

*** tstart() called on node59.bme.utexas.edu
*** at Wed Feb  3 08:59:03 2021

   => Loading Basis Set <=

    Name: AUG-CC-PVTZ
    Role: ORBITAL
    Keyword: BASIS
    atoms 1-2   entry N          line   285 file /home/xy3866/.conda/envs/test-rdkit/share/psi4/basis/aug-cc-pvtz.gbs 
    atoms 3-13  entry C          line   239 file /home/xy3866/.conda/envs/test-rdkit/share/psi4/basis/aug-cc-pvtz.gbs 
    atoms 14-23 entry H          line    40 file /home/xy3866/.conda/envs/test-rdkit/share/psi4/basis/aug-cc-pvtz.gbs 


         ---------------------------------------------------------
                                   SCF
               by Justin Turney, Rob Parrish, Andy Simmonett
                          and Daniel G. A. Smith
                              RHF Reference
                        8 Threads,  30517 MiB Core
         ---------------------------------------------------------

  ==> Geometry <==

    Molecular point group: c1
    Full point group: C1

    Geometry (in Angstrom), charge = 0, multiplicity = 1:

       Center              X                  Y                   Z               Mass       
    ------------   -----------------  -----------------  -----------------  -----------------
         N            1.440479658569     0.924785015982    -0.555758674841    14.003074004430
         N           -0.868892341431     2.170479015982     0.507632325159    14.003074004430
         C           -0.647591341431    -0.206479984018    -0.050996674841    12.000000000000
         C            0.830076658569    -0.158405984018    -0.018629674841    12.000000000000
         C           -1.445690341431     0.941133015982     0.180523325159    12.000000000000
         C           -1.277172341431    -1.431752984018    -0.323019674841    12.000000000000
         C           -2.842363341431     0.793020015982     0.196158325159    12.000000000000
         C            1.566038658569    -1.213762984018     0.545338325159    12.000000000000
         C           -2.663592341431    -1.559351984018    -0.322734674841    12.000000000000
         C           -3.447258341431    -0.433875984018    -0.060341674841    12.000000000000
         C            2.957127658569    -1.172933984018     0.514419325159    12.000000000000
         C            3.584291658569    -0.067385984018    -0.059354674841    12.000000000000
         C            2.784013658569     0.956025015982    -0.565023674841    12.000000000000
         H           -0.658249341431    -2.296327984018    -0.555632674841     1.007825032230
         H           -3.458101341431     1.669829015982     0.393005325159     1.007825032230
         H            1.045521658569    -2.043078984018     1.015339325159     1.007825032230
         H           -3.126155341431    -2.517240984018    -0.545314674841     1.007825032230
         H           -4.532398341431    -0.508680984018    -0.052410674841     1.007825032230
         H            3.541220458569    -2.121615484018     0.680086225159     1.007825032230
         H            0.019309658569     2.315997015982     0.034110325159     1.007825032230
         H           -1.502266341431     2.952008015982     0.373320325159     1.007825032230
         H            4.666929658569     0.010638015982    -0.101794674841     1.007825032230
         H            3.231691658569     1.845942015982    -1.004701674841     1.007825032230

  Running in c1 symmetry.

  Rotational constants: A =      0.06368  B =      0.01831  C =      0.01486 [cm^-1]
  Rotational constants: A =   1908.97264  B =    548.87152  C =    445.39403 [MHz]
  Nuclear repulsion =  714.489186941781895

  Charge       = 0
  Multiplicity = 1
  Electrons    = 90
  Nalpha       = 45
  Nbeta        = 45

  ==> Algorithm <==

  SCF Algorithm Type is DF.
  DIIS enabled.
  MOM disabled.
  Fractional occupation disabled.
  Guess Type is SAD.
  Energy threshold   = 1.00e-10
  Density threshold  = 1.00e-10
  Integral threshold = 0.00e+00

  ==> Primary Basis <==

  Basis Set: AUG-CC-PVTZ
    Blend: AUG-CC-PVTZ
    Number of shells: 272
    Number of basis function: 828
    Number of Cartesian functions: 965
    Spherical Harmonics?: true
    Max angular momentum: 3

   => Loading Basis Set <=

    Name: (AUG-CC-PVTZ AUX)
    Role: JKFIT
    Keyword: DF_BASIS_SCF
    atoms 1-2   entry N          line   224 file /home/xy3866/.conda/envs/test-rdkit/share/psi4/basis/aug-cc-pvtz-jkfit.gbs 
    atoms 3-13  entry C          line   162 file /home/xy3866/.conda/envs/test-rdkit/share/psi4/basis/aug-cc-pvtz-jkfit.gbs 
    atoms 14-23 entry H          line    70 file /home/xy3866/.conda/envs/test-rdkit/share/psi4/basis/aug-cc-pvtz-jkfit.gbs 

  ==> Integral Setup <==

  DFHelper Memory: AOs need 8.636 GiB; user supplied 22.352 GiB. Using in-core AOs.

  ==> MemDFJK: Density-Fitted J/K Matrices <==

    J tasked:                   Yes
    K tasked:                   Yes
    wK tasked:                   No
    OpenMP threads:               8
    Memory [MiB]:             22888
    Algorithm:                 Core
    Schwarz Cutoff:           1E-12
    Mask sparsity (%):       8.8917
    Fitting Condition:        1E-10

   => Auxiliary Basis Set <=

  Basis Set: (AUG-CC-PVTZ AUX)
    Blend: AUG-CC-PVTZ-JKFIT
    Number of shells: 530
    Number of basis function: 1812
    Number of Cartesian functions: 2253
    Spherical Harmonics?: true
    Max angular momentum: 4

  Minimum eigenvalue in the overlap matrix is 5.4301867225E-07.
  Reciprocal condition number of the overlap matrix is 2.6700833767E-08.
    Using symmetric orthogonalization.

  ==> Pre-Iterations <==

  SCF Guess: Superposition of Atomic Densities via on-the-fly atomic UHF (no occupation information).

   -------------------------
    Irrep   Nso     Nmo    
   -------------------------
     A        828     828 
   -------------------------
    Total     828     828
   -------------------------

  ==> Iterations <==

                           Total Energy        Delta E     RMS |[F,P]|

   @DF-RHF iter SAD:  -530.93212398854280   -5.30932e+02   0.00000e+00 
   @DF-RHF iter   1:  -531.10821385916779   -1.76090e-01   9.05996e-04 DIIS
   @DF-RHF iter   2:  -531.39140878439844   -2.83195e-01   3.95680e-04 DIIS
   @DF-RHF iter   3:  -531.44356739806096   -5.21586e-02   7.73441e-05 DIIS
   @DF-RHF iter   4:  -531.44692591055400   -3.35851e-03   2.27807e-05 DIIS
   @DF-RHF iter   5:  -531.44713423573933   -2.08325e-04   9.00037e-06 DIIS
   @DF-RHF iter   6:  -531.44717328194020   -3.90462e-05   2.60807e-06 DIIS
   @DF-RHF iter   7:  -531.44717888539299   -5.60345e-06   1.08300e-06 DIIS
   @DF-RHF iter   8:  -531.44717984737531   -9.61982e-07   3.51492e-07 DIIS
   @DF-RHF iter   9:  -531.44718001576382   -1.68389e-07   1.32109e-07 DIIS
   @DF-RHF iter  10:  -531.44718004214735   -2.63835e-08   7.68851e-08 DIIS
   @DF-RHF iter  11:  -531.44718005052471   -8.37736e-09   3.29603e-08 DIIS
   @DF-RHF iter  12:  -531.44718005284335   -2.31864e-09   1.43168e-08 DIIS
   @DF-RHF iter  13:  -531.44718005306754   -2.24190e-10   5.18439e-09 DIIS
   @DF-RHF iter  14:  -531.44718005310153   -3.39924e-11   2.09741e-09 DIIS
   @DF-RHF iter  15:  -531.44718005310585   -4.32010e-12   9.41581e-10 DIIS
   @DF-RHF iter  16:  -531.44718005310972   -3.86535e-12   4.19397e-10 DIIS
   @DF-RHF iter  17:  -531.44718005311120   -1.47793e-12   2.05714e-10 DIIS
   @DF-RHF iter  18:  -531.44718005310926    1.93268e-12   9.21803e-11 DIIS
  Energy and wave function converged.


  ==> Post-Iterations <==

    Orbital Energies [Eh]
    ---------------------

    Doubly Occupied:                                                      

       1A    -15.569444     2A    -15.551224     3A    -11.290309  
       4A    -11.281719     5A    -11.281055     6A    -11.267206  
       7A    -11.243244     8A    -11.242722     9A    -11.239313  
      10A    -11.238285    11A    -11.234795    12A    -11.224115  
      13A    -11.221369    14A     -1.262954    15A     -1.214181  
      16A     -1.128084    17A     -1.088406    18A     -1.061696  
      19A     -0.998016    20A     -0.980853    21A     -0.871759  
      22A     -0.862587    23A     -0.817149    24A     -0.799609  
      25A     -0.716404    26A     -0.690904    27A     -0.684487  
      28A     -0.663696    29A     -0.653616    30A     -0.626669  
      31A     -0.595446    32A     -0.592716    33A     -0.585677  
      34A     -0.569371    35A     -0.551085    36A     -0.536971  
      37A     -0.519145    38A     -0.501687    39A     -0.493999  
      40A     -0.445477    41A     -0.422231    42A     -0.386342  
      43A     -0.369003    44A     -0.319392    45A     -0.286870  

    Virtual:                                                              

      46A      0.026152    47A      0.030710    48A      0.031279  
      49A      0.039835    50A      0.040824    51A      0.048076  
      52A      0.052462    53A      0.057287    54A      0.067467  
      55A      0.076030    56A      0.080826    57A      0.083281  
      58A      0.086064    59A      0.090984    60A      0.096826  
      61A      0.101357    62A      0.107471    63A      0.110229  
      64A      0.114180    65A      0.116581    66A      0.117588  
      67A      0.120522    68A      0.122901    69A      0.124305  
      70A      0.124973    71A      0.129727    72A      0.133198  
      73A      0.135603    74A      0.139674    75A      0.142914  
      76A      0.149100    77A      0.150353    78A      0.155645  
      79A      0.156385    80A      0.160065    81A      0.163550  
      82A      0.170293    83A      0.171344    84A      0.174468  
      85A      0.178353    86A      0.181356    87A      0.188460  
      88A      0.196480    89A      0.198053    90A      0.201894  
      91A      0.207207    92A      0.218191    93A      0.221000  
      94A      0.223272    95A      0.228481    96A      0.236554  
      97A      0.240242    98A      0.242944    99A      0.251235  
     100A      0.254714   101A      0.258518   102A      0.260088  
     103A      0.265244   104A      0.267650   105A      0.273822  
     106A      0.279620   107A      0.282009   108A      0.287409  
     109A      0.293274   110A      0.298171   111A      0.303606  
     112A      0.306176   113A      0.310471   114A      0.310836  
     115A      0.312277   116A      0.314992   117A      0.323878  
     118A      0.326131   119A      0.330029   120A      0.333059  
     121A      0.337731   122A      0.341359   123A      0.343538  
     124A      0.347583   125A      0.352661   126A      0.356159  
     127A      0.357674   128A      0.363185   129A      0.365872  
     130A      0.379996   131A      0.384486   132A      0.387576  
     133A      0.390239   134A      0.400676   135A      0.408811  
     136A      0.411432   137A      0.413689   138A      0.417445  
     139A      0.420281   140A      0.422665   141A      0.427038  
     142A      0.432417   143A      0.434921   144A      0.441512  
     145A      0.444161   146A      0.445514   147A      0.451297  
     148A      0.456883   149A      0.457819   150A      0.466160  
     151A      0.466931   152A      0.470974   153A      0.474361  
     154A      0.478507   155A      0.481113   156A      0.482125  
     157A      0.485700   158A      0.489847   159A      0.491569  
     160A      0.492798   161A      0.497856   162A      0.503199  
     163A      0.504756   164A      0.506066   165A      0.510771  
     166A      0.515236   167A      0.518929   168A      0.519894  
     169A      0.525830   170A      0.526930   171A      0.534254  
     172A      0.535993   173A      0.541386   174A      0.542507  
     175A      0.545925   176A      0.549654   177A      0.553636  
     178A      0.559267   179A      0.563839   180A      0.565257  
     181A      0.567302   182A      0.573149   183A      0.578476  
     184A      0.581502   185A      0.586203   186A      0.594771  
     187A      0.599699   188A      0.605097   189A      0.607213  
     190A      0.616934   191A      0.618498   192A      0.630035  
     193A      0.641064   194A      0.644499   195A      0.649595  
     196A      0.653760   197A      0.660876   198A      0.670305  
     199A      0.675127   200A      0.679940   201A      0.682095  
     202A      0.693243   203A      0.694529   204A      0.699584  
     205A      0.704838   206A      0.710980   207A      0.717237  
     208A      0.720623   209A      0.727879   210A      0.733541  
     211A      0.737476   212A      0.746121   213A      0.747366  
     214A      0.755407   215A      0.756677   216A      0.760344  
     217A      0.763940   218A      0.770270   219A      0.779888  
     220A      0.787404   221A      0.793739   222A      0.801786  
     223A      0.804522   224A      0.809043   225A      0.812749  
     226A      0.820914   227A      0.824620   228A      0.830691  
     229A      0.838458   230A      0.841786   231A      0.847485  
     232A      0.856059   233A      0.860071   234A      0.865647  
     235A      0.867474   236A      0.870889   237A      0.875575  
     238A      0.881201   239A      0.882096   240A      0.888493  
     241A      0.891288   242A      0.898834   243A      0.901345  
     244A      0.904956   245A      0.907483   246A      0.914927  
     247A      0.917790   248A      0.925401   249A      0.928262  
     250A      0.936515   251A      0.938768   252A      0.947468  
     253A      0.954741   254A      0.959751   255A      0.962721  
     256A      0.966194   257A      0.972220   258A      0.979892  
     259A      0.983164   260A      0.989414   261A      0.990452  
     262A      1.000226   263A      1.004103   264A      1.007332  
     265A      1.014365   266A      1.018824   267A      1.024108  
     268A      1.029560   269A      1.032858   270A      1.034716  
     271A      1.038496   272A      1.047537   273A      1.052130  
     274A      1.055293   275A      1.059405   276A      1.064037  
     277A      1.071111   278A      1.072180   279A      1.083114  
     280A      1.083457   281A      1.088248   282A      1.090535  
     283A      1.093006   284A      1.099289   285A      1.101584  
     286A      1.103557   287A      1.108660   288A      1.112440  
     289A      1.114302   290A      1.117949   291A      1.119279  
     292A      1.129867   293A      1.133120   294A      1.135556  
     295A      1.142503   296A      1.147066   297A      1.153927  
     298A      1.156005   299A      1.161289   300A      1.163960  
     301A      1.175776   302A      1.182273   303A      1.187519  
     304A      1.191775   305A      1.194939   306A      1.197738  
     307A      1.203850   308A      1.205904   309A      1.213978  
     310A      1.216158   311A      1.220602   312A      1.226205  
     313A      1.230231   314A      1.234503   315A      1.236650  
     316A      1.243353   317A      1.250014   318A      1.252728  
     319A      1.258766   320A      1.263351   321A      1.269970  
     322A      1.279347   323A      1.285137   324A      1.286658  
     325A      1.290456   326A      1.299166   327A      1.303713  
     328A      1.306591   329A      1.315517   330A      1.321009  
     331A      1.332645   332A      1.340163   333A      1.343356  
     334A      1.350002   335A      1.353600   336A      1.370508  
     337A      1.374065   338A      1.375973   339A      1.377598  
     340A      1.391038   341A      1.398812   342A      1.404319  
     343A      1.411178   344A      1.415979   345A      1.421809  
     346A      1.430712   347A      1.438695   348A      1.442768  
     349A      1.458866   350A      1.459891   351A      1.463378  
     352A      1.469876   353A      1.478381   354A      1.488180  
     355A      1.490989   356A      1.506660   357A      1.512050  
     358A      1.514405   359A      1.522255   360A      1.526815  
     361A      1.536806   362A      1.539294   363A      1.552806  
     364A      1.554913   365A      1.562096   366A      1.573365  
     367A      1.575730   368A      1.585148   369A      1.594369  
     370A      1.596182   371A      1.604125   372A      1.615832  
     373A      1.621310   374A      1.629830   375A      1.636893  
     376A      1.642447   377A      1.656302   378A      1.663774  
     379A      1.671019   380A      1.676113   381A      1.680000  
     382A      1.684079   383A      1.698858   384A      1.707385  
     385A      1.707547   386A      1.725908   387A      1.734311  
     388A      1.740642   389A      1.744725   390A      1.757960  
     391A      1.767864   392A      1.770912   393A      1.778922  
     394A      1.782667   395A      1.792860   396A      1.799864  
     397A      1.817922   398A      1.821293   399A      1.827132  
     400A      1.831010   401A      1.834351   402A      1.842475  
     403A      1.854349   404A      1.857955   405A      1.865322  
     406A      1.870547   407A      1.875901   408A      1.886126  
     409A      1.895279   410A      1.903442   411A      1.908394  
     412A      1.913567   413A      1.921860   414A      1.929888  
     415A      1.941435   416A      1.943554   417A      1.955421  
     418A      1.968794   419A      1.971201   420A      1.973250  
     421A      1.983231   422A      1.989258   423A      1.995848  
     424A      2.002144   425A      2.007884   426A      2.023194  
     427A      2.029210   428A      2.033895   429A      2.043717  
     430A      2.044323   431A      2.051183   432A      2.065996  
     433A      2.073406   434A      2.075837   435A      2.080175  
     436A      2.084116   437A      2.094560   438A      2.100685  
     439A      2.116083   440A      2.119018   441A      2.127941  
     442A      2.136535   443A      2.143695   444A      2.148418  
     445A      2.159350   446A      2.164870   447A      2.169675  
     448A      2.187089   449A      2.197446   450A      2.202669  
     451A      2.215884   452A      2.219393   453A      2.234951  
     454A      2.239019   455A      2.241998   456A      2.249965  
     457A      2.265413   458A      2.268660   459A      2.271133  
     460A      2.284820   461A      2.289484   462A      2.299452  
     463A      2.308243   464A      2.313809   465A      2.320116  
     466A      2.342676   467A      2.346447   468A      2.357852  
     469A      2.361627   470A      2.370812   471A      2.386384  
     472A      2.390676   473A      2.401587   474A      2.405179  
     475A      2.408460   476A      2.420352   477A      2.437148  
     478A      2.451907   479A      2.464390   480A      2.469125  
     481A      2.478060   482A      2.493785   483A      2.495450  
     484A      2.514266   485A      2.519470   486A      2.537234  
     487A      2.542320   488A      2.555529   489A      2.562553  
     490A      2.574498   491A      2.578568   492A      2.584017  
     493A      2.610843   494A      2.621490   495A      2.634668  
     496A      2.654541   497A      2.660630   498A      2.675177  
     499A      2.687341   500A      2.687931   501A      2.711088  
     502A      2.713159   503A      2.736780   504A      2.756492  
     505A      2.761021   506A      2.768502   507A      2.791127  
     508A      2.798227   509A      2.821327   510A      2.845335  
     511A      2.852183   512A      2.874761   513A      2.881925  
     514A      2.886578   515A      2.928292   516A      2.939932  
     517A      2.957025   518A      2.982331   519A      3.009586  
     520A      3.039188   521A      3.057381   522A      3.087169  
     523A      3.105534   524A      3.112082   525A      3.126149  
     526A      3.152061   527A      3.170097   528A      3.201899  
     529A      3.222125   530A      3.229952   531A      3.260769  
     532A      3.265087   533A      3.278949   534A      3.286671  
     535A      3.305828   536A      3.322657   537A      3.332750  
     538A      3.343229   539A      3.347922   540A      3.366287  
     541A      3.380991   542A      3.382009   543A      3.407155  
     544A      3.409222   545A      3.422015   546A      3.426368  
     547A      3.440485   548A      3.452097   549A      3.456821  
     550A      3.471005   551A      3.478481   552A      3.479656  
     553A      3.488522   554A      3.498718   555A      3.503709  
     556A      3.530437   557A      3.535576   558A      3.544621  
     559A      3.550010   560A      3.554219   561A      3.563564  
     562A      3.570731   563A      3.578834   564A      3.582838  
     565A      3.591901   566A      3.604485   567A      3.615023  
     568A      3.623780   569A      3.632076   570A      3.633593  
     571A      3.648978   572A      3.665186   573A      3.668911  
     574A      3.674695   575A      3.677290   576A      3.701505  
     577A      3.705940   578A      3.710985   579A      3.719049  
     580A      3.723069   581A      3.736748   582A      3.748474  
     583A      3.761716   584A      3.768758   585A      3.781705  
     586A      3.791581   587A      3.795768   588A      3.814984  
     589A      3.833586   590A      3.834960   591A      3.842844  
     592A      3.854521   593A      3.863973   594A      3.868749  
     595A      3.882026   596A      3.888017   597A      3.890093  
     598A      3.913711   599A      3.915015   600A      3.918944  
     601A      3.927733   602A      3.939128   603A      3.950629  
     604A      3.958839   605A      3.962129   606A      3.969348  
     607A      3.979013   608A      3.985651   609A      3.991629  
     610A      3.999723   611A      4.006833   612A      4.009875  
     613A      4.025817   614A      4.034059   615A      4.037525  
     616A      4.044205   617A      4.047313   618A      4.058236  
     619A      4.068496   620A      4.080316   621A      4.090538  
     622A      4.096751   623A      4.113348   624A      4.118857  
     625A      4.122534   626A      4.129699   627A      4.148826  
     628A      4.152098   629A      4.164405   630A      4.173352  
     631A      4.180003   632A      4.190913   633A      4.204368  
     634A      4.211516   635A      4.217001   636A      4.228185  
     637A      4.231579   638A      4.237501   639A      4.250430  
     640A      4.270728   641A      4.281757   642A      4.287056  
     643A      4.299430   644A      4.301717   645A      4.311116  
     646A      4.313516   647A      4.320368   648A      4.337028  
     649A      4.344869   650A      4.356366   651A      4.364829  
     652A      4.374309   653A      4.380515   654A      4.388482  
     655A      4.395526   656A      4.402455   657A      4.411792  
     658A      4.420000   659A      4.422874   660A      4.431903  
     661A      4.440833   662A      4.447266   663A      4.448659  
     664A      4.464991   665A      4.476236   666A      4.482099  
     667A      4.498536   668A      4.511317   669A      4.518979  
     670A      4.526749   671A      4.538621   672A      4.543585  
     673A      4.567001   674A      4.572709   675A      4.581441  
     676A      4.585240   677A      4.591493   678A      4.607989  
     679A      4.620417   680A      4.646188   681A      4.666753  
     682A      4.673343   683A      4.682415   684A      4.686497  
     685A      4.712041   686A      4.727634   687A      4.732575  
     688A      4.738189   689A      4.743004   690A      4.755799  
     691A      4.760292   692A      4.778406   693A      4.788209  
     694A      4.806566   695A      4.818592   696A      4.821835  
     697A      4.842303   698A      4.855926   699A      4.861120  
     700A      4.885224   701A      4.903773   702A      4.920029  
     703A      4.932333   704A      4.938216   705A      4.944030  
     706A      4.960179   707A      4.971033   708A      4.979393  
     709A      4.988189   710A      4.993376   711A      5.008264  
     712A      5.022127   713A      5.030279   714A      5.039419  
     715A      5.051412   716A      5.060959   717A      5.068268  
     718A      5.079415   719A      5.084363   720A      5.105859  
     721A      5.119886   722A      5.129527   723A      5.140319  
     724A      5.152131   725A      5.161797   726A      5.170300  
     727A      5.181644   728A      5.188479   729A      5.195477  
     730A      5.210542   731A      5.219620   732A      5.224104  
     733A      5.233833   734A      5.245104   735A      5.256642  
     736A      5.280072   737A      5.293092   738A      5.312309  
     739A      5.319514   740A      5.329562   741A      5.339439  
     742A      5.355890   743A      5.380262   744A      5.389273  
     745A      5.395861   746A      5.412933   747A      5.444231  
     748A      5.448730   749A      5.462043   750A      5.486547  
     751A      5.498845   752A      5.515652   753A      5.540259  
     754A      5.545433   755A      5.554930   756A      5.593061  
     757A      5.615825   758A      5.629867   759A      5.646873  
     760A      5.669615   761A      5.688557   762A      5.716280  
     763A      5.725977   764A      5.741408   765A      5.750534  
     766A      5.788204   767A      5.826162   768A      5.849206  
     769A      5.862601   770A      5.882714   771A      5.908892  
     772A      5.926932   773A      5.945999   774A      5.970811  
     775A      6.005285   776A      6.030167   777A      6.043125  
     778A      6.079721   779A      6.114236   780A      6.147168  
     781A      6.169503   782A      6.192413   783A      6.199604  
     784A      6.208653   785A      6.249022   786A      6.263603  
     787A      6.287582   788A      6.329618   789A      6.336619  
     790A      6.361008   791A      6.411287   792A      6.430417  
     793A      6.460766   794A      6.506759   795A      6.522182  
     796A      6.612853   797A      6.627812   798A      6.651560  
     799A      6.718191   800A      6.730419   801A      6.771174  
     802A      6.793287   803A      6.834760   804A      6.868939  
     805A      6.942238   806A      6.963758   807A      7.008521  
     808A      7.017512   809A      7.092242   810A      7.124263  
     811A      7.205750   812A      7.347578   813A      7.419680  
     814A      7.428564   815A      7.872128   816A     15.719502  
     817A     16.148549   818A     16.269472   819A     16.778199  
     820A     17.800741   821A     18.548611   822A     19.066782  
     823A     19.258282   824A     19.300672   825A     19.744637  
     826A     20.008951   827A     20.707086   828A     21.657876  

    Final Occupation by Irrep:
              A 
    DOCC [    45 ]

  @DF-RHF Final Energy:  -531.44718005310926

   => Energetics <=

    Nuclear Repulsion Energy =            714.4891869417818953
    One-Electron Energy =               -2137.5101690391475131
    Two-Electron Energy =                 891.5738020442562402
    Total Energy =                       -531.4471800531092640

Computation Completed

*** tstop() called on node59.bme.utexas.edu at Wed Feb  3 09:00:06 2021
Module time:
	user time   =     461.59 seconds =       7.69 minutes
	system time =       9.72 seconds =       0.16 minutes
	total time  =         63 seconds =       1.05 minutes
Total time:
	user time   =     461.59 seconds =       7.69 minutes
	system time =       9.72 seconds =       0.16 minutes
	total time  =         63 seconds =       1.05 minutes
   => Loading Basis Set <=

    Name: (AUG-CC-PVTZ AUX)
    Role: RIFIT
    Keyword: DF_BASIS_MP2
    atoms 1-2   entry N          line   206 file /home/xy3866/.conda/envs/test-rdkit/share/psi4/basis/aug-cc-pvtz-ri.gbs 
    atoms 3-13  entry C          line   148 file /home/xy3866/.conda/envs/test-rdkit/share/psi4/basis/aug-cc-pvtz-ri.gbs 
    atoms 14-23 entry H          line    30 file /home/xy3866/.conda/envs/test-rdkit/share/psi4/basis/aug-cc-pvtz-ri.gbs 


*** tstart() called on node59.bme.utexas.edu
*** at Wed Feb  3 09:00:06 2021


  //>>>>>>>>>>>>>>>>>>>>>>>>>>>>>>>>>>>//
  //               DFMP2               //
  //<<<<<<<<<<<<<<<<<<<<<<<<<<<<<<<<<<<//

	 --------------------------------------------------------
	                          DF-MP2                         
	      2nd-Order Density-Fitted Moller-Plesset Theory     
	              RMP2 Wavefunction,   8 Threads             
	                                                         
	        Rob Parrish, Justin Turney, Andy Simmonett,      
	           Ed Hohenstein, and C. David Sherrill          
	 --------------------------------------------------------

   => Auxiliary Basis Set <=

  Basis Set: (AUG-CC-PVTZ AUX)
    Blend: AUG-CC-PVTZ-RI
    Number of shells: 504
    Number of basis function: 1838
    Number of Cartesian functions: 2318
    Spherical Harmonics?: true
    Max angular momentum: 4

	 --------------------------------------------------------
	                 NBF =   828, NAUX =  1838
	 --------------------------------------------------------
	   CLASS    FOCC     OCC    AOCC    AVIR     VIR    FVIR
	   PAIRS       0      45      45     783     783       0
	 --------------------------------------------------------

  DFHelper Memory: AOs need 8.636 GiB; user supplied 22.352 GiB. Using in-core AOs.


         ------------------------------------------------------------
                                     CPHF                           
                                  Rob Parrish                       
         ------------------------------------------------------------

  ==> Geometry <==

    Molecular point group: c1
    Full point group: C1

    Geometry (in Angstrom), charge = 0, multiplicity = 1:

       Center              X                  Y                   Z               Mass       
    ------------   -----------------  -----------------  -----------------  -----------------
         N            1.440479658569     0.924785015982    -0.555758674841    14.003074004430
         N           -0.868892341431     2.170479015982     0.507632325159    14.003074004430
         C           -0.647591341431    -0.206479984018    -0.050996674841    12.000000000000
         C            0.830076658569    -0.158405984018    -0.018629674841    12.000000000000
         C           -1.445690341431     0.941133015982     0.180523325159    12.000000000000
         C           -1.277172341431    -1.431752984018    -0.323019674841    12.000000000000
         C           -2.842363341431     0.793020015982     0.196158325159    12.000000000000
         C            1.566038658569    -1.213762984018     0.545338325159    12.000000000000
         C           -2.663592341431    -1.559351984018    -0.322734674841    12.000000000000
         C           -3.447258341431    -0.433875984018    -0.060341674841    12.000000000000
         C            2.957127658569    -1.172933984018     0.514419325159    12.000000000000
         C            3.584291658569    -0.067385984018    -0.059354674841    12.000000000000
         C            2.784013658569     0.956025015982    -0.565023674841    12.000000000000
         H           -0.658249341431    -2.296327984018    -0.555632674841     1.007825032230
         H           -3.458101341431     1.669829015982     0.393005325159     1.007825032230
         H            1.045521658569    -2.043078984018     1.015339325159     1.007825032230
         H           -3.126155341431    -2.517240984018    -0.545314674841     1.007825032230
         H           -4.532398341431    -0.508680984018    -0.052410674841     1.007825032230
         H            3.541220458569    -2.121615484018     0.680086225159     1.007825032230
         H            0.019309658569     2.315997015982     0.034110325159     1.007825032230
         H           -1.502266341431     2.952008015982     0.373320325159     1.007825032230
         H            4.666929658569     0.010638015982    -0.101794674841     1.007825032230
         H            3.231691658569     1.845942015982    -1.004701674841     1.007825032230

  Nuclear repulsion =  714.489186941781895
  Reference energy  = -531.447180053109264

  ==> Basis Set <==

  Basis Set: AUG-CC-PVTZ
    Blend: AUG-CC-PVTZ
    Number of shells: 272
    Number of basis function: 828
    Number of Cartesian functions: 965
    Spherical Harmonics?: true
    Max angular momentum: 3

  ==> CGRSolver (by Rob Parrish) <==

   Number of roots    =         1
   Preconditioning    =    JACOBI
   Convergence cutoff =     1E-06
   Maximum iterations =       100

  ==> CPHFRHamiltonian (by Rob Parrish) <== 

  ==> MemDFJK: Density-Fitted J/K Matrices <==

    J tasked:                   Yes
    K tasked:                   Yes
    wK tasked:                   No
    OpenMP threads:               8
    Memory [MiB]:             22888
    Algorithm:                 Core
    Schwarz Cutoff:           1E-12
    Mask sparsity (%):       8.8917
    Fitting Condition:        1E-10

   => Auxiliary Basis Set <=

  Basis Set: (AUG-CC-PVTZ AUX)
    Blend: AUG-CC-PVTZ-JKFIT
    Number of shells: 530
    Number of basis function: 1812
    Number of Cartesian functions: 2253
    Spherical Harmonics?: true
    Max angular momentum: 4

  ==> CPHF Iterations <==

  => Iterations <=

             Iter  Converged  Remaining    Residual
  CGR           1          0          1   9.230E-02
  CGR           2          0          1   3.890E-02
  CGR           3          0          1   2.547E-02
  CGR           4          0          1   9.938E-03
  CGR           5          0          1   3.878E-03
  CGR           6          0          1   1.605E-03
  CGR           7          0          1   5.326E-04
  CGR           8          0          1   1.808E-04
  CGR           9          0          1   7.487E-05
  CGR          10          0          1   3.300E-05
  CGR          11          0          1   1.659E-05
  CGR          12          0          1   5.993E-06
  CGR          13          0          1   2.199E-06
  CGR          14          1          0   7.354E-07

    CGRSolver converged.

	-----------------------------------------------------------
	 ==================> DF-MP2 Energies <==================== 
	-----------------------------------------------------------
	 Reference Energy          =    -531.4471800531092640 [Eh]
	 Singles Energy            =      -0.0000000000000000 [Eh]
	 Same-Spin Energy          =      -0.5968401434825663 [Eh]
	 Opposite-Spin Energy      =      -1.8215528269955972 [Eh]
	 Correlation Energy        =      -2.4183929704781635 [Eh]
	 Total Energy              =    -533.8655730235874444 [Eh]
	-----------------------------------------------------------
	 ================> DF-SCS-MP2 Energies <================== 
	-----------------------------------------------------------
	 SCS Same-Spin Scale       =       0.3333333333333333 [-]
	 SCS Opposite-Spin Scale   =       1.2000000000000000 [-]
	 SCS Same-Spin Energy      =      -0.1989467144941888 [Eh]
	 SCS Opposite-Spin Energy  =      -2.1858633923947166 [Eh]
	 SCS Correlation Energy    =      -2.3848101068889056 [Eh]
	 SCS Total Energy          =    -533.8319901599982131 [Eh]
	-----------------------------------------------------------



Properties will be evaluated at   0.000000,   0.000000,   0.000000 [a0]

Properties computed using the MP2 density matrix

  Nuclear Dipole Moment: [e a0]
     X:    -0.7259      Y:    -0.6582      Z:     0.2214

  Electronic Dipole Moment: [e a0]
     X:     1.3092      Y:     0.4776      Z:    -0.2858

  Dipole Moment: [e a0]
     X:     0.5834      Y:    -0.1806      Z:    -0.0644     Total:     0.6141

  Dipole Moment: [D]
     X:     1.4828      Y:    -0.4590      Z:    -0.1636     Total:     1.5608


*** tstop() called on node59.bme.utexas.edu at Wed Feb  3 09:05:15 2021
Module time:
	user time   =    2079.68 seconds =      34.66 minutes
	system time =      60.30 seconds =       1.01 minutes
	total time  =        309 seconds =       5.15 minutes
Total time:
	user time   =    2541.48 seconds =      42.36 minutes
	system time =      70.02 seconds =       1.17 minutes
	total time  =        372 seconds =       6.20 minutes

    Psi4 stopped on: Wednesday, 03 February 2021 09:05AM
    Psi4 wall time for execution: 0:06:12.60

*** Psi4 exiting successfully. Buy a developer a beer!
