opt=Tight                                                               
Freq      RMP2-FC                                                     6-31G(d)            
Number of atoms                            I               20
Info1-9                                    I   N=           9
          29          29        1002           0           0         100
           6           2           1
Charge                                     I               -1
Multiplicity                               I                1
Number of electrons                        I               78
Number of alpha electrons                  I               39
Number of beta electrons                   I               39
Number of basis functions                  I              170
Number of independent functions            I              170
Number of point charges in /Mol/           I                0
Number of translation vectors              I                0
Atomic numbers                             I   N=          20
           8           8           8           7           6           6
           6           6           6           6           1           1
           1           1           1           1           1           1
           1           1
Nuclear charges                            R   N=          20
  8.00000000E+00  8.00000000E+00  8.00000000E+00  7.00000000E+00  6.00000000E+00
  6.00000000E+00  6.00000000E+00  6.00000000E+00  6.00000000E+00  6.00000000E+00
  1.00000000E+00  1.00000000E+00  1.00000000E+00  1.00000000E+00  1.00000000E+00
  1.00000000E+00  1.00000000E+00  1.00000000E+00  1.00000000E+00  1.00000000E+00
Current cartesian coordinates              R   N=          60
 -2.99869680E+00  2.36662687E+00 -1.53318961E+00  3.83602878E+00 -3.19788149E+00
  4.80583812E-01  6.43917188E+00  2.68378905E-02 -6.77449811E-01 -2.61451169E-01
 -5.42428879E-01  8.60656870E-02  2.03752917E+00  8.94951620E-01 -3.36800219E-01
  2.31967473E+00  3.04362126E+00  1.56828939E+00 -4.68961807E+00 -1.68305812E+00
 -2.81153454E-01 -2.57779809E+00  2.30049590E-01 -6.31865837E-01  4.31902010E+00
 -9.40371187E-01 -1.74559672E-01 -7.01583126E+00 -4.75368168E-01  9.22972479E-01
  1.98324301E+00  1.70016393E+00 -2.24773853E+00  9.75041993E-02 -2.36468045E+00
  5.94432252E-01  2.39253879E+00  2.27303440E+00  3.48682062E+00  4.06989561E+00
  4.07399065E+00  1.20070364E+00  7.18271675E-01  4.34017558E+00  1.43424922E+00
 -5.17549878E+00 -2.41778553E+00 -2.15745308E+00 -4.03036443E+00 -3.28776064E+00
  8.46053066E-01 -6.58347137E+00  2.10279275E-01  2.82446972E+00 -7.65143119E+00
  1.12589505E+00 -2.11021938E-01 -8.56041403E+00 -1.83992051E+00  1.06615892E+00
Force Field                                I                0
Int Atom Types                             I   N=          20
           0           0           0           0           0           0
           0           0           0           0           0           0
           0           0           0           0           0           0
           0           0
MM charges                                 R   N=          20
  0.00000000E+00  0.00000000E+00  0.00000000E+00  0.00000000E+00  0.00000000E+00
  0.00000000E+00  0.00000000E+00  0.00000000E+00  0.00000000E+00  0.00000000E+00
  0.00000000E+00  0.00000000E+00  0.00000000E+00  0.00000000E+00  0.00000000E+00
  0.00000000E+00  0.00000000E+00  0.00000000E+00  0.00000000E+00  0.00000000E+00
Integer atomic weights                     I   N=          20
          16          16          16          14          12          12
          12          12          12          12           1           1
           1           1           1           1           1           1
           1           1
Real atomic weights                        R   N=          20
  1.59949146E+01  1.59949146E+01  1.59949146E+01  1.40030740E+01  1.20000000E+01
  1.20000000E+01  1.20000000E+01  1.20000000E+01  1.20000000E+01  1.20000000E+01
  1.00782504E+00  1.00782504E+00  1.00782504E+00  1.00782504E+00  1.00782504E+00
  1.00782504E+00  1.00782504E+00  1.00782504E+00  1.00782504E+00  1.00782504E+00
Atom fragment info                         I   N=          20
           0           0           0           0           0           0
           0           0           0           0           0           0
           0           0           0           0           0           0
           0           0
Atom residue num                           I   N=          20
           0           0           0           0           0           0
           0           0           0           0           0           0
           0           0           0           0           0           0
           0           0
Nuclear spins                              I   N=          20
           0           0           0           2           0           0
           0           0           0           0           1           1
           1           1           1           1           1           1
           1           1
Nuclear ZEff                               R   N=          20
 -5.60000000E+00 -5.60000000E+00 -5.60000000E+00 -4.55000000E+00 -3.60000000E+00
 -3.60000000E+00 -3.60000000E+00 -3.60000000E+00 -3.60000000E+00 -3.60000000E+00
 -1.00000000E+00 -1.00000000E+00 -1.00000000E+00 -1.00000000E+00 -1.00000000E+00
 -1.00000000E+00 -1.00000000E+00 -1.00000000E+00 -1.00000000E+00 -1.00000000E+00
Nuclear QMom                               R   N=          20
  0.00000000E+00  0.00000000E+00  0.00000000E+00  2.04400000E+00  0.00000000E+00
  0.00000000E+00  0.00000000E+00  0.00000000E+00  0.00000000E+00  0.00000000E+00
  0.00000000E+00  0.00000000E+00  0.00000000E+00  0.00000000E+00  0.00000000E+00
  0.00000000E+00  0.00000000E+00  0.00000000E+00  0.00000000E+00  0.00000000E+00
Nuclear GFac                               R   N=          20
  0.00000000E+00  0.00000000E+00  0.00000000E+00  4.03761000E-01  0.00000000E+00
  0.00000000E+00  0.00000000E+00  0.00000000E+00  0.00000000E+00  0.00000000E+00
  2.79284600E+00  2.79284600E+00  2.79284600E+00  2.79284600E+00  2.79284600E+00
  2.79284600E+00  2.79284600E+00  2.79284600E+00  2.79284600E+00  2.79284600E+00
MicOpt                                     I   N=          20
          -1          -1          -1          -1          -1          -1
          -1          -1          -1          -1          -1          -1
          -1          -1          -1          -1          -1          -1
          -1          -1
Number of contracted shells                I               60
Number of primitive shells                 I              150
Pure/Cartesian d shells                    I                1
Pure/Cartesian f shells                    I                0
Highest angular momentum                   I                2
Largest degree of contraction              I                6
Shell types                                I   N=          60
           0          -1          -1           2           0          -1
          -1           2           0          -1          -1           2
           0          -1          -1           2           0          -1
          -1           2           0          -1          -1           2
           0          -1          -1           2           0          -1
          -1           2           0          -1          -1           2
           0          -1          -1           2           0           0
           0           0           0           0           0           0
           0           0           0           0           0           0
           0           0           0           0           0           0
Number of primitives per shell             I   N=          60
           6           3           1           1           6           3
           1           1           6           3           1           1
           6           3           1           1           6           3
           1           1           6           3           1           1
           6           3           1           1           6           3
           1           1           6           3           1           1
           6           3           1           1           3           1
           3           1           3           1           3           1
           3           1           3           1           3           1
           3           1           3           1           3           1
Shell to atom map                          I   N=          60
           1           1           1           1           2           2
           2           2           3           3           3           3
           4           4           4           4           5           5
           5           5           6           6           6           6
           7           7           7           7           8           8
           8           8           9           9           9           9
          10          10          10          10          11          11
          12          12          13          13          14          14
          15          15          16          16          17          17
          18          18          19          19          20          20
Primitive exponents                        R   N=         150
  5.48467166E+03  8.25234946E+02  1.88046958E+02  5.29645000E+01  1.68975704E+01
  5.79963534E+00  1.55396162E+01  3.59993359E+00  1.01376175E+00  2.70005823E-01
  8.00000000E-01  5.48467166E+03  8.25234946E+02  1.88046958E+02  5.29645000E+01
  1.68975704E+01  5.79963534E+00  1.55396162E+01  3.59993359E+00  1.01376175E+00
  2.70005823E-01  8.00000000E-01  5.48467166E+03  8.25234946E+02  1.88046958E+02
  5.29645000E+01  1.68975704E+01  5.79963534E+00  1.55396162E+01  3.59993359E+00
  1.01376175E+00  2.70005823E-01  8.00000000E-01  4.17351146E+03  6.27457911E+02
  1.42902093E+02  4.02343293E+01  1.28202129E+01  4.39043701E+00  1.16263619E+01
  2.71627981E+00  7.72218397E-01  2.12031498E-01  8.00000000E-01  3.04752488E+03
  4.57369518E+02  1.03948685E+02  2.92101553E+01  9.28666296E+00  3.16392696E+00
  7.86827235E+00  1.88128854E+00  5.44249258E-01  1.68714478E-01  8.00000000E-01
  3.04752488E+03  4.57369518E+02  1.03948685E+02  2.92101553E+01  9.28666296E+00
  3.16392696E+00  7.86827235E+00  1.88128854E+00  5.44249258E-01  1.68714478E-01
  8.00000000E-01  3.04752488E+03  4.57369518E+02  1.03948685E+02  2.92101553E+01
  9.28666296E+00  3.16392696E+00  7.86827235E+00  1.88128854E+00  5.44249258E-01
  1.68714478E-01  8.00000000E-01  3.04752488E+03  4.57369518E+02  1.03948685E+02
  2.92101553E+01  9.28666296E+00  3.16392696E+00  7.86827235E+00  1.88128854E+00
  5.44249258E-01  1.68714478E-01  8.00000000E-01  3.04752488E+03  4.57369518E+02
  1.03948685E+02  2.92101553E+01  9.28666296E+00  3.16392696E+00  7.86827235E+00
  1.88128854E+00  5.44249258E-01  1.68714478E-01  8.00000000E-01  3.04752488E+03
  4.57369518E+02  1.03948685E+02  2.92101553E+01  9.28666296E+00  3.16392696E+00
  7.86827235E+00  1.88128854E+00  5.44249258E-01  1.68714478E-01  8.00000000E-01
  1.87311370E+01  2.82539436E+00  6.40121692E-01  1.61277759E-01  1.87311370E+01
  2.82539436E+00  6.40121692E-01  1.61277759E-01  1.87311370E+01  2.82539436E+00
  6.40121692E-01  1.61277759E-01  1.87311370E+01  2.82539436E+00  6.40121692E-01
  1.61277759E-01  1.87311370E+01  2.82539436E+00  6.40121692E-01  1.61277759E-01
  1.87311370E+01  2.82539436E+00  6.40121692E-01  1.61277759E-01  1.87311370E+01
  2.82539436E+00  6.40121692E-01  1.61277759E-01  1.87311370E+01  2.82539436E+00
  6.40121692E-01  1.61277759E-01  1.87311370E+01  2.82539436E+00  6.40121692E-01
  1.61277759E-01  1.87311370E+01  2.82539436E+00  6.40121692E-01  1.61277759E-01
Contraction coefficients                   R   N=         150
  1.83107443E-03  1.39501722E-02  6.84450781E-02  2.32714336E-01  4.70192898E-01
  3.58520853E-01 -1.10777550E-01 -1.48026263E-01  1.13076702E+00  1.00000000E+00
  1.00000000E+00  1.83107443E-03  1.39501722E-02  6.84450781E-02  2.32714336E-01
  4.70192898E-01  3.58520853E-01 -1.10777550E-01 -1.48026263E-01  1.13076702E+00
  1.00000000E+00  1.00000000E+00  1.83107443E-03  1.39501722E-02  6.84450781E-02
  2.32714336E-01  4.70192898E-01  3.58520853E-01 -1.10777550E-01 -1.48026263E-01
  1.13076702E+00  1.00000000E+00  1.00000000E+00  1.83477216E-03  1.39946270E-02
  6.85865518E-02  2.32240873E-01  4.69069948E-01  3.60455199E-01 -1.14961182E-01
 -1.69117479E-01  1.14585195E+00  1.00000000E+00  1.00000000E+00  1.83473713E-03
  1.40373228E-02  6.88426223E-02  2.32184443E-01  4.67941348E-01  3.62311985E-01
 -1.19332420E-01 -1.60854152E-01  1.14345644E+00  1.00000000E+00  1.00000000E+00
  1.83473713E-03  1.40373228E-02  6.88426223E-02  2.32184443E-01  4.67941348E-01
  3.62311985E-01 -1.19332420E-01 -1.60854152E-01  1.14345644E+00  1.00000000E+00
  1.00000000E+00  1.83473713E-03  1.40373228E-02  6.88426223E-02  2.32184443E-01
  4.67941348E-01  3.62311985E-01 -1.19332420E-01 -1.60854152E-01  1.14345644E+00
  1.00000000E+00  1.00000000E+00  1.83473713E-03  1.40373228E-02  6.88426223E-02
  2.32184443E-01  4.67941348E-01  3.62311985E-01 -1.19332420E-01 -1.60854152E-01
  1.14345644E+00  1.00000000E+00  1.00000000E+00  1.83473713E-03  1.40373228E-02
  6.88426223E-02  2.32184443E-01  4.67941348E-01  3.62311985E-01 -1.19332420E-01
 -1.60854152E-01  1.14345644E+00  1.00000000E+00  1.00000000E+00  1.83473713E-03
  1.40373228E-02  6.88426223E-02  2.32184443E-01  4.67941348E-01  3.62311985E-01
 -1.19332420E-01 -1.60854152E-01  1.14345644E+00  1.00000000E+00  1.00000000E+00
  3.34946043E-02  2.34726953E-01  8.13757326E-01  1.00000000E+00  3.34946043E-02
  2.34726953E-01  8.13757326E-01  1.00000000E+00  3.34946043E-02  2.34726953E-01
  8.13757326E-01  1.00000000E+00  3.34946043E-02  2.34726953E-01  8.13757326E-01
  1.00000000E+00  3.34946043E-02  2.34726953E-01  8.13757326E-01  1.00000000E+00
  3.34946043E-02  2.34726953E-01  8.13757326E-01  1.00000000E+00  3.34946043E-02
  2.34726953E-01  8.13757326E-01  1.00000000E+00  3.34946043E-02  2.34726953E-01
  8.13757326E-01  1.00000000E+00  3.34946043E-02  2.34726953E-01  8.13757326E-01
  1.00000000E+00  3.34946043E-02  2.34726953E-01  8.13757326E-01  1.00000000E+00
P(S=P) Contraction coefficients            R   N=         150
  0.00000000E+00  0.00000000E+00  0.00000000E+00  0.00000000E+00  0.00000000E+00
  0.00000000E+00  7.08742682E-02  3.39752839E-01  7.27158577E-01  1.00000000E+00
  0.00000000E+00  0.00000000E+00  0.00000000E+00  0.00000000E+00  0.00000000E+00
  0.00000000E+00  0.00000000E+00  7.08742682E-02  3.39752839E-01  7.27158577E-01
  1.00000000E+00  0.00000000E+00  0.00000000E+00  0.00000000E+00  0.00000000E+00
  0.00000000E+00  0.00000000E+00  0.00000000E+00  7.08742682E-02  3.39752839E-01
  7.27158577E-01  1.00000000E+00  0.00000000E+00  0.00000000E+00  0.00000000E+00
  0.00000000E+00  0.00000000E+00  0.00000000E+00  0.00000000E+00  6.75797439E-02
  3.23907296E-01  7.40895140E-01  1.00000000E+00  0.00000000E+00  0.00000000E+00
  0.00000000E+00  0.00000000E+00  0.00000000E+00  0.00000000E+00  0.00000000E+00
  6.89990666E-02  3.16423961E-01  7.44308291E-01  1.00000000E+00  0.00000000E+00
  0.00000000E+00  0.00000000E+00  0.00000000E+00  0.00000000E+00  0.00000000E+00
  0.00000000E+00  6.89990666E-02  3.16423961E-01  7.44308291E-01  1.00000000E+00
  0.00000000E+00  0.00000000E+00  0.00000000E+00  0.00000000E+00  0.00000000E+00
  0.00000000E+00  0.00000000E+00  6.89990666E-02  3.16423961E-01  7.44308291E-01
  1.00000000E+00  0.00000000E+00  0.00000000E+00  0.00000000E+00  0.00000000E+00
  0.00000000E+00  0.00000000E+00  0.00000000E+00  6.89990666E-02  3.16423961E-01
  7.44308291E-01  1.00000000E+00  0.00000000E+00  0.00000000E+00  0.00000000E+00
  0.00000000E+00  0.00000000E+00  0.00000000E+00  0.00000000E+00  6.89990666E-02
  3.16423961E-01  7.44308291E-01  1.00000000E+00  0.00000000E+00  0.00000000E+00
  0.00000000E+00  0.00000000E+00  0.00000000E+00  0.00000000E+00  0.00000000E+00
  6.89990666E-02  3.16423961E-01  7.44308291E-01  1.00000000E+00  0.00000000E+00
  0.00000000E+00  0.00000000E+00  0.00000000E+00  0.00000000E+00  0.00000000E+00
  0.00000000E+00  0.00000000E+00  0.00000000E+00  0.00000000E+00  0.00000000E+00
  0.00000000E+00  0.00000000E+00  0.00000000E+00  0.00000000E+00  0.00000000E+00
  0.00000000E+00  0.00000000E+00  0.00000000E+00  0.00000000E+00  0.00000000E+00
  0.00000000E+00  0.00000000E+00  0.00000000E+00  0.00000000E+00  0.00000000E+00
  0.00000000E+00  0.00000000E+00  0.00000000E+00  0.00000000E+00  0.00000000E+00
  0.00000000E+00  0.00000000E+00  0.00000000E+00  0.00000000E+00  0.00000000E+00
  0.00000000E+00  0.00000000E+00  0.00000000E+00  0.00000000E+00  0.00000000E+00
Coordinates of each shell                  R   N=         180
 -2.99869685E+00  2.36662683E+00 -1.53318942E+00 -2.99869685E+00  2.36662683E+00
 -1.53318942E+00 -2.99869685E+00  2.36662683E+00 -1.53318942E+00 -2.99869685E+00
  2.36662683E+00 -1.53318942E+00  3.83602867E+00 -3.19788160E+00  4.80584008E-01
  3.83602867E+00 -3.19788160E+00  4.80584008E-01  3.83602867E+00 -3.19788160E+00
  4.80584008E-01  3.83602867E+00 -3.19788160E+00  4.80584008E-01  6.43917180E+00
  2.68377517E-02 -6.77449615E-01  6.43917180E+00  2.68377517E-02 -6.77449615E-01
  6.43917180E+00  2.68377517E-02 -6.77449615E-01  6.43917180E+00  2.68377517E-02
 -6.77449615E-01 -2.61451249E-01 -5.42428950E-01  8.60658833E-02 -2.61451249E-01
 -5.42428950E-01  8.60658833E-02 -2.61451249E-01 -5.42428950E-01  8.60658833E-02
 -2.61451249E-01 -5.42428950E-01  8.60658833E-02  2.03752911E+00  8.94951526E-01
 -3.36800023E-01  2.03752911E+00  8.94951526E-01 -3.36800023E-01  2.03752911E+00
  8.94951526E-01 -3.36800023E-01  2.03752911E+00  8.94951526E-01 -3.36800023E-01
  2.31967469E+00  3.04362116E+00  1.56828958E+00  2.31967469E+00  3.04362116E+00
  1.56828958E+00  2.31967469E+00  3.04362116E+00  1.56828958E+00  2.31967469E+00
  3.04362116E+00  1.56828958E+00 -4.68961816E+00 -1.68305815E+00 -2.81153258E-01
 -4.68961816E+00 -1.68305815E+00 -2.81153258E-01 -4.68961816E+00 -1.68305815E+00
 -2.81153258E-01 -4.68961816E+00 -1.68305815E+00 -2.81153258E-01 -2.57779817E+00
  2.30049543E-01 -6.31865641E-01 -2.57779817E+00  2.30049543E-01 -6.31865641E-01
 -2.57779817E+00  2.30049543E-01 -6.31865641E-01 -2.57779817E+00  2.30049543E-01
 -6.31865641E-01  4.31902002E+00 -9.40371305E-01 -1.74559476E-01  4.31902002E+00
 -9.40371305E-01 -1.74559476E-01  4.31902002E+00 -9.40371305E-01 -1.74559476E-01
  4.31902002E+00 -9.40371305E-01 -1.74559476E-01 -7.01583133E+00 -4.75368170E-01
  9.22972675E-01 -7.01583133E+00 -4.75368170E-01  9.22972675E-01 -7.01583133E+00
 -4.75368170E-01  9.22972675E-01 -7.01583133E+00 -4.75368170E-01  9.22972675E-01
  1.98324295E+00  1.70016383E+00 -2.24773833E+00  1.98324295E+00  1.70016383E+00
 -2.24773833E+00  9.75041017E-02 -2.36468053E+00  5.94432449E-01  9.75041017E-02
 -2.36468053E+00  5.94432449E-01  2.39253874E+00  2.27303430E+00  3.48682081E+00
  2.39253874E+00  2.27303430E+00  3.48682081E+00  4.06989558E+00  4.07399054E+00
  1.20070384E+00  4.06989558E+00  4.07399054E+00  1.20070384E+00  7.18271645E-01
  4.34017550E+00  1.43424942E+00  7.18271645E-01  4.34017550E+00  1.43424942E+00
 -5.17549888E+00 -2.41778556E+00 -2.15745289E+00 -5.17549888E+00 -2.41778556E+00
 -2.15745289E+00 -4.03036454E+00 -3.28776068E+00  8.46053263E-01 -4.03036454E+00
 -3.28776068E+00  8.46053263E-01 -6.58347144E+00  2.10279268E-01  2.82446991E+00
 -6.58347144E+00  2.10279268E-01  2.82446991E+00 -7.65143125E+00  1.12589505E+00
 -2.11021741E-01 -7.65143125E+00  1.12589505E+00 -2.11021741E-01 -8.56041412E+00
 -1.83992050E+00  1.06615911E+00 -8.56041412E+00 -1.83992050E+00  1.06615911E+00
Constraint Structure                       R   N=          60
 -2.99869685E+00  2.36662683E+00 -1.53318942E+00  3.83602867E+00 -3.19788160E+00
  4.80584008E-01  6.43917180E+00  2.68377517E-02 -6.77449615E-01 -2.61451249E-01
 -5.42428950E-01  8.60658833E-02  2.03752911E+00  8.94951526E-01 -3.36800023E-01
  2.31967469E+00  3.04362116E+00  1.56828958E+00 -4.68961816E+00 -1.68305815E+00
 -2.81153258E-01 -2.57779817E+00  2.30049543E-01 -6.31865641E-01  4.31902002E+00
 -9.40371305E-01 -1.74559476E-01 -7.01583133E+00 -4.75368170E-01  9.22972675E-01
  1.98324295E+00  1.70016383E+00 -2.24773833E+00  9.75041017E-02 -2.36468053E+00
  5.94432449E-01  2.39253874E+00  2.27303430E+00  3.48682081E+00  4.06989558E+00
  4.07399054E+00  1.20070384E+00  7.18271645E-01  4.34017550E+00  1.43424942E+00
 -5.17549888E+00 -2.41778556E+00 -2.15745289E+00 -4.03036454E+00 -3.28776068E+00
  8.46053263E-01 -6.58347144E+00  2.10279268E-01  2.82446991E+00 -7.65143125E+00
  1.12589505E+00 -2.11021741E-01 -8.56041412E+00 -1.83992050E+00  1.06615911E+00
Num ILSW                                   I              100
ILSW                                       I   N=         100
           0           1           0           0           2           0
           0           0           0           0           0          -1
           0           0           0           0           0           0
           0           0           0           0           1           0
           1           0           0           0           0           0
           0           0      100000           0          -1           0
           0           0           0           0           0           0
           0           0           0           1           1           0
           0           0           1           0           0           0
           0           0           4          40           0           0
           0           0           0           0           0           0
           0           0           0           0           0           0
           0           0           0           0           0           0
           0           0           0           0           0           0
           0           0           0           0           0           0
           0           0           0           0           0           0
           0           0           0           0
Num RLSW                                   I               40
RLSW                                       R   N=          40
  1.00000000E+00  1.00000000E+00  1.00000000E+00  1.00000000E+00  1.00000000E+00
  0.00000000E+00  0.00000000E+00  1.00000000E+00  0.00000000E+00  0.00000000E+00
  0.00000000E+00  0.00000000E+00  1.00000000E+00  0.00000000E+00  0.00000000E+00
  0.00000000E+00  0.00000000E+00  1.00000000E+00  0.00000000E+00  0.00000000E+00
  0.00000000E+00  0.00000000E+00  1.00000000E+00  0.00000000E+00  0.00000000E+00
  0.00000000E+00  0.00000000E+00  1.00000000E+00  0.00000000E+00  0.00000000E+00
  0.00000000E+00  0.00000000E+00  0.00000000E+00  0.00000000E+00  0.00000000E+00
  0.00000000E+00  0.00000000E+00  0.00000000E+00  1.00000000E+00  1.00000000E+00
MxBond                                     I                4
NBond                                      I   N=          20
           1           1           1           3           4           4
           4           3           3           4           1           1
           1           1           1           1           1           1
           1           1
IBond                                      I   N=          80
           8           0           0           0           9           0
           0           0           9           0           0           0
           5           8          12           0           4           6
           9          11           5          13          14          15
           8          10          16          17           1           4
           7           0           2           3           5           0
           7          18          19          20           5           0
           0           0           4           0           0           0
           6           0           0           0           6           0
           0           0           6           0           0           0
           7           0           0           0           7           0
           0           0          10           0           0           0
          10           0           0           0          10           0
           0           0
RBond                                      R   N=          80
  2.00000000E+00  0.00000000E+00  0.00000000E+00  0.00000000E+00  2.00000000E+00
  0.00000000E+00  0.00000000E+00  0.00000000E+00  2.00000000E+00  0.00000000E+00
  0.00000000E+00  0.00000000E+00  1.00000000E+00  1.50000000E+00  1.00000000E+00
  0.00000000E+00  1.00000000E+00  1.00000000E+00  1.00000000E+00  1.00000000E+00
  1.00000000E+00  1.00000000E+00  1.00000000E+00  1.00000000E+00  1.00000000E+00
  1.00000000E+00  1.00000000E+00  1.00000000E+00  2.00000000E+00  1.50000000E+00
  1.00000000E+00  0.00000000E+00  2.00000000E+00  2.00000000E+00  1.00000000E+00
  0.00000000E+00  1.00000000E+00  1.00000000E+00  1.00000000E+00  1.00000000E+00
  1.00000000E+00  0.00000000E+00  0.00000000E+00  0.00000000E+00  1.00000000E+00
  0.00000000E+00  0.00000000E+00  0.00000000E+00  1.00000000E+00  0.00000000E+00
  0.00000000E+00  0.00000000E+00  1.00000000E+00  0.00000000E+00  0.00000000E+00
  0.00000000E+00  1.00000000E+00  0.00000000E+00  0.00000000E+00  0.00000000E+00
  1.00000000E+00  0.00000000E+00  0.00000000E+00  0.00000000E+00  1.00000000E+00
  0.00000000E+00  0.00000000E+00  0.00000000E+00  1.00000000E+00  0.00000000E+00
  0.00000000E+00  0.00000000E+00  1.00000000E+00  0.00000000E+00  0.00000000E+00
  0.00000000E+00  1.00000000E+00  0.00000000E+00  0.00000000E+00  0.00000000E+00
Virial Ratio                               R      2.002585160071800E+00
SCF Energy                                 R     -5.122295341708859E+02
MP2 Energy                                 R     -5.137020687915484E+02
Total Energy                               R     -5.137020687915484E+02
Post-SCF wavefunction norm                 R      1.707141671027764E+00
RMS Force                                  R      5.814759519435085E-06
RMS Density                                R      4.900300216301065E-10
External E-field                           R   N=          35
  0.00000000E+00  0.00000000E+00  0.00000000E+00  0.00000000E+00  0.00000000E+00
  0.00000000E+00  0.00000000E+00  0.00000000E+00  0.00000000E+00  0.00000000E+00
  0.00000000E+00  0.00000000E+00  0.00000000E+00  0.00000000E+00  0.00000000E+00
  0.00000000E+00  0.00000000E+00  0.00000000E+00  0.00000000E+00  0.00000000E+00
  0.00000000E+00  0.00000000E+00  0.00000000E+00  0.00000000E+00  0.00000000E+00
  0.00000000E+00  0.00000000E+00  0.00000000E+00  0.00000000E+00  0.00000000E+00
  0.00000000E+00  0.00000000E+00  0.00000000E+00  0.00000000E+00  0.00000000E+00
IOpCl                                      I                0
IROHF                                      I                0
Alpha Orbital Energies                     R   N=         170
 -2.05145231E+01 -2.04792872E+01 -2.04732688E+01 -1.55691118E+01 -1.13434634E+01
 -1.13180191E+01 -1.12486750E+01 -1.12307877E+01 -1.12167819E+01 -1.12065691E+01
 -1.35865724E+00 -1.34235495E+00 -1.24425151E+00 -1.21177621E+00 -1.05098923E+00
 -1.00406037E+00 -8.91132669E-01 -8.44984455E-01 -7.66523248E-01 -7.13635299E-01
 -6.65632359E-01 -6.47575627E-01 -6.23756017E-01 -6.05636306E-01 -5.89739318E-01
 -5.72933630E-01 -5.50601707E-01 -5.48890756E-01 -5.37322839E-01 -5.17864935E-01
 -5.06602840E-01 -4.96671450E-01 -4.91945275E-01 -4.71370104E-01 -4.13011831E-01
 -3.88950463E-01 -3.83576896E-01 -3.73670182E-01 -3.62840935E-01  1.96674898E-01
  2.39095921E-01  2.52528231E-01  2.81487872E-01  2.90678293E-01  3.00852722E-01
  3.11467436E-01  3.25414571E-01  3.39555576E-01  3.43406063E-01  3.44391955E-01
  3.68624515E-01  4.06719650E-01  4.25457816E-01  4.35842091E-01  4.46260610E-01
  4.82530936E-01  5.06513848E-01  5.76294341E-01  6.28216846E-01  6.49330954E-01
  7.23152093E-01  7.39782797E-01  7.58302360E-01  7.69107175E-01  7.74421248E-01
  8.06984092E-01  8.27074342E-01  8.51942055E-01  8.72672338E-01  8.88005577E-01
  9.13985535E-01  9.22449066E-01  9.49631493E-01  9.73215955E-01  9.99780988E-01
  1.01873254E+00  1.03200002E+00  1.05169534E+00  1.06351222E+00  1.09897000E+00
  1.11139453E+00  1.13644632E+00  1.13860081E+00  1.14709930E+00  1.15973437E+00
  1.17017388E+00  1.18192115E+00  1.18987458E+00  1.20182973E+00  1.22917220E+00
  1.23617164E+00  1.24337199E+00  1.26429187E+00  1.28179525E+00  1.29895984E+00
  1.34477728E+00  1.36865591E+00  1.39289164E+00  1.42440003E+00  1.43078172E+00
  1.43843467E+00  1.50092653E+00  1.52083977E+00  1.57262454E+00  1.63544381E+00
  1.64323400E+00  1.69962039E+00  1.74325056E+00  1.77197360E+00  1.78661958E+00
  1.83235411E+00  1.88504365E+00  1.93420839E+00  2.00486043E+00  2.03119769E+00
  2.05746268E+00  2.08392745E+00  2.10409106E+00  2.11747336E+00  2.13650762E+00
  2.15196031E+00  2.17918530E+00  2.18239579E+00  2.20318820E+00  2.22731696E+00
  2.24981962E+00  2.25313985E+00  2.27645451E+00  2.29525313E+00  2.31543075E+00
  2.32887227E+00  2.33938659E+00  2.38004322E+00  2.41357233E+00  2.47498342E+00
  2.49462167E+00  2.52814181E+00  2.59516278E+00  2.61098319E+00  2.63441856E+00
  2.67235915E+00  2.68749024E+00  2.70358908E+00  2.74667370E+00  2.78767233E+00
  2.79739213E+00  2.87407230E+00  2.90450453E+00  2.93248282E+00  3.01162501E+00
  3.06057628E+00  3.10275947E+00  3.13424726E+00  3.19928078E+00  3.28150865E+00
  3.30681089E+00  3.34230540E+00  3.41013735E+00  3.51107681E+00  3.59805335E+00
  4.35156755E+00  4.46023888E+00  4.52878832E+00  4.58632223E+00  4.64933880E+00
  4.74289953E+00  4.76937387E+00  4.79598980E+00  4.97356159E+00  5.07462541E+00
Alpha MO coefficients                      R   N=       28900
  9.94686983E-01  2.09986510E-02  2.68276789E-04 -1.29219624E-03  5.36333286E-04
  4.29735997E-03 -3.42760260E-07  1.48080189E-04 -4.01173260E-05 -3.89898370E-03
 -3.78348343E-03 -4.02487309E-03 -1.76990423E-05  4.14231941E-05 -1.33355115E-04