20706053                                                                
Freq      RMP2-FC                                                     6-31G(d)            
Number of atoms                            I               19
Info1-9                                    I   N=           9
          31          29        1002           0           0         100
           6           2           1
Charge                                     I                0
Multiplicity                               I                1
Number of electrons                        I               82
Number of alpha electrons                  I               41
Number of beta electrons                   I               41
Number of basis functions                  I              172
Number of independent functions            I              172
Number of point charges in /Mol/           I                0
Number of translation vectors              I                0
Atomic numbers                             I   N=          19
          16           8           7           6           6           6
           6           6           6           6           1           1
           1           1           1           1           1           1
           1
Nuclear charges                            R   N=          19
  1.60000000E+01  8.00000000E+00  7.00000000E+00  6.00000000E+00  6.00000000E+00
  6.00000000E+00  6.00000000E+00  6.00000000E+00  6.00000000E+00  6.00000000E+00
  1.00000000E+00  1.00000000E+00  1.00000000E+00  1.00000000E+00  1.00000000E+00
  1.00000000E+00  1.00000000E+00  1.00000000E+00  1.00000000E+00
Current cartesian coordinates              R   N=          57
 -1.52194088E+00  3.03499431E+00 -2.64472714E-01  4.05615917E+00  2.38887278E+00
  7.28992628E-01  4.16681162E+00 -1.83254129E+00 -2.09920930E-01 -4.04674040E+00
 -1.14225831E+00  4.51247836E-02  1.47801852E-01  2.61985228E-01  6.60578003E-02
 -1.45415601E+00 -1.79945899E+00  2.29118440E-01 -4.34067182E+00  1.43744242E+00
 -2.39146383E-01  2.93729489E+00  4.02877847E-01  2.17213450E-01 -6.18627868E+00
 -3.00286356E+00  1.73021904E-01  6.91168990E+00 -1.87205915E+00 -2.95781893E-01
 -7.91584625E-01 -3.71852028E+00  5.47886271E-01 -6.10093484E+00  2.46789907E+00
 -4.31649725E-01 -6.18078538E+00 -4.02187723E+00  1.97295707E+00 -8.00646374E+00
 -2.04318942E+00 -8.60937783E-03 -6.05120701E+00 -4.40446813E+00 -1.34207369E+00
  3.21444492E+00 -3.19029785E+00 -1.16024678E+00  7.65238539E+00 -1.03640366E+00
 -2.03901781E+00  7.55423646E+00 -3.82540808E+00 -1.41872586E-01  7.63036977E+00
 -7.84829434E-01  1.29804692E+00
Force Field                                I                0
Int Atom Types                             I   N=          19
           0           0           0           0           0           0
           0           0           0           0           0           0
           0           0           0           0           0           0
           0
MM charges                                 R   N=          19
  0.00000000E+00  0.00000000E+00  0.00000000E+00  0.00000000E+00  0.00000000E+00
  0.00000000E+00  0.00000000E+00  0.00000000E+00  0.00000000E+00  0.00000000E+00
  0.00000000E+00  0.00000000E+00  0.00000000E+00  0.00000000E+00  0.00000000E+00
  0.00000000E+00  0.00000000E+00  0.00000000E+00  0.00000000E+00
Integer atomic weights                     I   N=          19
          32          16          14          12          12          12
          12          12          12          12           1           1
           1           1           1           1           1           1
           1
Real atomic weights                        R   N=          19
  3.19720718E+01  1.59949146E+01  1.40030740E+01  1.20000000E+01  1.20000000E+01
  1.20000000E+01  1.20000000E+01  1.20000000E+01  1.20000000E+01  1.20000000E+01
  1.00782504E+00  1.00782504E+00  1.00782504E+00  1.00782504E+00  1.00782504E+00
  1.00782504E+00  1.00782504E+00  1.00782504E+00  1.00782504E+00
Atom fragment info                         I   N=          19
           0           0           0           0           0           0
           0           0           0           0           0           0
           0           0           0           0           0           0
           0
Atom residue num                           I   N=          19
           0           0           0           0           0           0
           0           0           0           0           0           0
           0           0           0           0           0           0
           0
Nuclear spins                              I   N=          19
           0           0           2           0           0           0
           0           0           0           0           1           1
           1           1           1           1           1           1
           1
Nuclear ZEff                               R   N=          19
 -1.36000000E+01 -5.60000000E+00 -4.55000000E+00 -3.60000000E+00 -3.60000000E+00
 -3.60000000E+00 -3.60000000E+00 -3.60000000E+00 -3.60000000E+00 -3.60000000E+00
 -1.00000000E+00 -1.00000000E+00 -1.00000000E+00 -1.00000000E+00 -1.00000000E+00
 -1.00000000E+00 -1.00000000E+00 -1.00000000E+00 -1.00000000E+00
Nuclear QMom                               R   N=          19
  0.00000000E+00  0.00000000E+00  2.04400000E+00  0.00000000E+00  0.00000000E+00
  0.00000000E+00  0.00000000E+00  0.00000000E+00  0.00000000E+00  0.00000000E+00
  0.00000000E+00  0.00000000E+00  0.00000000E+00  0.00000000E+00  0.00000000E+00
  0.00000000E+00  0.00000000E+00  0.00000000E+00  0.00000000E+00
Nuclear GFac                               R   N=          19
  0.00000000E+00  0.00000000E+00  4.03761000E-01  0.00000000E+00  0.00000000E+00
  0.00000000E+00  0.00000000E+00  0.00000000E+00  0.00000000E+00  0.00000000E+00
  2.79284600E+00  2.79284600E+00  2.79284600E+00  2.79284600E+00  2.79284600E+00
  2.79284600E+00  2.79284600E+00  2.79284600E+00  2.79284600E+00
MicOpt                                     I   N=          19
          -1          -1          -1          -1          -1          -1
          -1          -1          -1          -1          -1          -1
          -1          -1          -1          -1          -1          -1
          -1
Number of contracted shells                I               59
Number of primitive shells                 I              152
Pure/Cartesian d shells                    I                1
Pure/Cartesian f shells                    I                0
Highest angular momentum                   I                2
Largest degree of contraction              I                6
Shell types                                I   N=          59
           0          -1          -1          -1           2           0
          -1          -1           2           0          -1          -1
           2           0          -1          -1           2           0
          -1          -1           2           0          -1          -1
           2           0          -1          -1           2           0
          -1          -1           2           0          -1          -1
           2           0          -1          -1           2           0
           0           0           0           0           0           0
           0           0           0           0           0           0
           0           0           0           0           0
Number of primitives per shell             I   N=          59
           6           6           3           1           1           6
           3           1           1           6           3           1
           1           6           3           1           1           6
           3           1           1           6           3           1
           1           6           3           1           1           6
           3           1           1           6           3           1
           1           6           3           1           1           3
           1           3           1           3           1           3
           1           3           1           3           1           3
           1           3           1           3           1
Shell to atom map                          I   N=          59
           1           1           1           1           1           2
           2           2           2           3           3           3
           3           4           4           4           4           5
           5           5           5           6           6           6
           6           7           7           7           7           8
           8           8           8           9           9           9
           9          10          10          10          10          11
          11          12          12          13          13          14
          14          15          15          16          16          17
          17          18          18          19          19
Primitive exponents                        R   N=         152
  2.19171000E+04  3.30149000E+03  7.54146000E+02  2.12711000E+02  6.79896000E+01
  2.30515000E+01  4.23735000E+02  1.00710000E+02  3.21599000E+01  1.18079000E+01
  4.63110000E+00  1.87025000E+00  2.61584000E+00  9.22167000E-01  3.41287000E-01
  1.17167000E-01  6.50000000E-01  5.48467166E+03  8.25234946E+02  1.88046958E+02
  5.29645000E+01  1.68975704E+01  5.79963534E+00  1.55396162E+01  3.59993359E+00
  1.01376175E+00  2.70005823E-01  8.00000000E-01  4.17351146E+03  6.27457911E+02
  1.42902093E+02  4.02343293E+01  1.28202129E+01  4.39043701E+00  1.16263619E+01
  2.71627981E+00  7.72218397E-01  2.12031498E-01  8.00000000E-01  3.04752488E+03
  4.57369518E+02  1.03948685E+02  2.92101553E+01  9.28666296E+00  3.16392696E+00
  7.86827235E+00  1.88128854E+00  5.44249258E-01  1.68714478E-01  8.00000000E-01
  3.04752488E+03  4.57369518E+02  1.03948685E+02  2.92101553E+01  9.28666296E+00
  3.16392696E+00  7.86827235E+00  1.88128854E+00  5.44249258E-01  1.68714478E-01
  8.00000000E-01  3.04752488E+03  4.57369518E+02  1.03948685E+02  2.92101553E+01
  9.28666296E+00  3.16392696E+00  7.86827235E+00  1.88128854E+00  5.44249258E-01
  1.68714478E-01  8.00000000E-01  3.04752488E+03  4.57369518E+02  1.03948685E+02
  2.92101553E+01  9.28666296E+00  3.16392696E+00  7.86827235E+00  1.88128854E+00
  5.44249258E-01  1.68714478E-01  8.00000000E-01  3.04752488E+03  4.57369518E+02
  1.03948685E+02  2.92101553E+01  9.28666296E+00  3.16392696E+00  7.86827235E+00
  1.88128854E+00  5.44249258E-01  1.68714478E-01  8.00000000E-01  3.04752488E+03
  4.57369518E+02  1.03948685E+02  2.92101553E+01  9.28666296E+00  3.16392696E+00
  7.86827235E+00  1.88128854E+00  5.44249258E-01  1.68714478E-01  8.00000000E-01
  3.04752488E+03  4.57369518E+02  1.03948685E+02  2.92101553E+01  9.28666296E+00
  3.16392696E+00  7.86827235E+00  1.88128854E+00  5.44249258E-01  1.68714478E-01
  8.00000000E-01  1.87311370E+01  2.82539436E+00  6.40121692E-01  1.61277759E-01
  1.87311370E+01  2.82539436E+00  6.40121692E-01  1.61277759E-01  1.87311370E+01
  2.82539436E+00  6.40121692E-01  1.61277759E-01  1.87311370E+01  2.82539436E+00
  6.40121692E-01  1.61277759E-01  1.87311370E+01  2.82539436E+00  6.40121692E-01
  1.61277759E-01  1.87311370E+01  2.82539436E+00  6.40121692E-01  1.61277759E-01
  1.87311370E+01  2.82539436E+00  6.40121692E-01  1.61277759E-01  1.87311370E+01
  2.82539436E+00  6.40121692E-01  1.61277759E-01  1.87311370E+01  2.82539436E+00
  6.40121692E-01  1.61277759E-01
Contraction coefficients                   R   N=         152
  1.86924085E-03  1.42303065E-02  6.96962317E-02  2.38487108E-01  4.83307220E-01
  3.38074154E-01 -2.37677050E-03 -3.16930067E-02 -1.13317024E-01  5.60900118E-02
  5.92255124E-01  4.55006095E-01 -2.50373114E-01  6.69567631E-02  1.05450627E+00
  1.00000000E+00  1.00000000E+00  1.83107443E-03  1.39501722E-02  6.84450781E-02
  2.32714336E-01  4.70192898E-01  3.58520853E-01 -1.10777550E-01 -1.48026263E-01
  1.13076702E+00  1.00000000E+00  1.00000000E+00  1.83477216E-03  1.39946270E-02
  6.85865518E-02  2.32240873E-01  4.69069948E-01  3.60455199E-01 -1.14961182E-01
 -1.69117479E-01  1.14585195E+00  1.00000000E+00  1.00000000E+00  1.83473713E-03
  1.40373228E-02  6.88426223E-02  2.32184443E-01  4.67941348E-01  3.62311985E-01
 -1.19332420E-01 -1.60854152E-01  1.14345644E+00  1.00000000E+00  1.00000000E+00
  1.83473713E-03  1.40373228E-02  6.88426223E-02  2.32184443E-01  4.67941348E-01
  3.62311985E-01 -1.19332420E-01 -1.60854152E-01  1.14345644E+00  1.00000000E+00
  1.00000000E+00  1.83473713E-03  1.40373228E-02  6.88426223E-02  2.32184443E-01
  4.67941348E-01  3.62311985E-01 -1.19332420E-01 -1.60854152E-01  1.14345644E+00
  1.00000000E+00  1.00000000E+00  1.83473713E-03  1.40373228E-02  6.88426223E-02
  2.32184443E-01  4.67941348E-01  3.62311985E-01 -1.19332420E-01 -1.60854152E-01
  1.14345644E+00  1.00000000E+00  1.00000000E+00  1.83473713E-03  1.40373228E-02
  6.88426223E-02  2.32184443E-01  4.67941348E-01  3.62311985E-01 -1.19332420E-01
 -1.60854152E-01  1.14345644E+00  1.00000000E+00  1.00000000E+00  1.83473713E-03
  1.40373228E-02  6.88426223E-02  2.32184443E-01  4.67941348E-01  3.62311985E-01
 -1.19332420E-01 -1.60854152E-01  1.14345644E+00  1.00000000E+00  1.00000000E+00
  1.83473713E-03  1.40373228E-02  6.88426223E-02  2.32184443E-01  4.67941348E-01
  3.62311985E-01 -1.19332420E-01 -1.60854152E-01  1.14345644E+00  1.00000000E+00
  1.00000000E+00  3.34946043E-02  2.34726953E-01  8.13757326E-01  1.00000000E+00
  3.34946043E-02  2.34726953E-01  8.13757326E-01  1.00000000E+00  3.34946043E-02
  2.34726953E-01  8.13757326E-01  1.00000000E+00  3.34946043E-02  2.34726953E-01
  8.13757326E-01  1.00000000E+00  3.34946043E-02  2.34726953E-01  8.13757326E-01
  1.00000000E+00  3.34946043E-02  2.34726953E-01  8.13757326E-01  1.00000000E+00
  3.34946043E-02  2.34726953E-01  8.13757326E-01  1.00000000E+00  3.34946043E-02
  2.34726953E-01  8.13757326E-01  1.00000000E+00  3.34946043E-02  2.34726953E-01
  8.13757326E-01  1.00000000E+00
P(S=P) Contraction coefficients            R   N=         152
  0.00000000E+00  0.00000000E+00  0.00000000E+00  0.00000000E+00  0.00000000E+00
  0.00000000E+00  4.06100998E-03  3.06812999E-02  1.30451999E-01  3.27204999E-01
  4.52850998E-01  2.56041999E-01 -1.45104895E-02  3.10262776E-01  7.54482456E-01
  1.00000000E+00  0.00000000E+00  0.00000000E+00  0.00000000E+00  0.00000000E+00
  0.00000000E+00  0.00000000E+00  0.00000000E+00  7.08742682E-02  3.39752839E-01
  7.27158577E-01  1.00000000E+00  0.00000000E+00  0.00000000E+00  0.00000000E+00
  0.00000000E+00  0.00000000E+00  0.00000000E+00  0.00000000E+00  6.75797439E-02
  3.23907296E-01  7.40895140E-01  1.00000000E+00  0.00000000E+00  0.00000000E+00
  0.00000000E+00  0.00000000E+00  0.00000000E+00  0.00000000E+00  0.00000000E+00
  6.89990666E-02  3.16423961E-01  7.44308291E-01  1.00000000E+00  0.00000000E+00
  0.00000000E+00  0.00000000E+00  0.00000000E+00  0.00000000E+00  0.00000000E+00
  0.00000000E+00  6.89990666E-02  3.16423961E-01  7.44308291E-01  1.00000000E+00
  0.00000000E+00  0.00000000E+00  0.00000000E+00  0.00000000E+00  0.00000000E+00
  0.00000000E+00  0.00000000E+00  6.89990666E-02  3.16423961E-01  7.44308291E-01
  1.00000000E+00  0.00000000E+00  0.00000000E+00  0.00000000E+00  0.00000000E+00
  0.00000000E+00  0.00000000E+00  0.00000000E+00  6.89990666E-02  3.16423961E-01
  7.44308291E-01  1.00000000E+00  0.00000000E+00  0.00000000E+00  0.00000000E+00
  0.00000000E+00  0.00000000E+00  0.00000000E+00  0.00000000E+00  6.89990666E-02
  3.16423961E-01  7.44308291E-01  1.00000000E+00  0.00000000E+00  0.00000000E+00
  0.00000000E+00  0.00000000E+00  0.00000000E+00  0.00000000E+00  0.00000000E+00
  6.89990666E-02  3.16423961E-01  7.44308291E-01  1.00000000E+00  0.00000000E+00
  0.00000000E+00  0.00000000E+00  0.00000000E+00  0.00000000E+00  0.00000000E+00
  0.00000000E+00  6.89990666E-02  3.16423961E-01  7.44308291E-01  1.00000000E+00
  0.00000000E+00  0.00000000E+00  0.00000000E+00  0.00000000E+00  0.00000000E+00
  0.00000000E+00  0.00000000E+00  0.00000000E+00  0.00000000E+00  0.00000000E+00
  0.00000000E+00  0.00000000E+00  0.00000000E+00  0.00000000E+00  0.00000000E+00
  0.00000000E+00  0.00000000E+00  0.00000000E+00  0.00000000E+00  0.00000000E+00
  0.00000000E+00  0.00000000E+00  0.00000000E+00  0.00000000E+00  0.00000000E+00
  0.00000000E+00  0.00000000E+00  0.00000000E+00  0.00000000E+00  0.00000000E+00
  0.00000000E+00  0.00000000E+00  0.00000000E+00  0.00000000E+00  0.00000000E+00
  0.00000000E+00  0.00000000E+00
Coordinates of each shell                  R   N=         177
 -1.52194088E+00  3.03499431E+00 -2.64472714E-01 -1.52194088E+00  3.03499431E+00
 -2.64472714E-01 -1.52194088E+00  3.03499431E+00 -2.64472714E-01 -1.52194088E+00
  3.03499431E+00 -2.64472714E-01 -1.52194088E+00  3.03499431E+00 -2.64472714E-01
  4.05615917E+00  2.38887278E+00  7.28992628E-01  4.05615917E+00  2.38887278E+00
  7.28992628E-01  4.05615917E+00  2.38887278E+00  7.28992628E-01  4.05615917E+00
  2.38887278E+00  7.28992628E-01  4.16681162E+00 -1.83254129E+00 -2.09920930E-01
  4.16681162E+00 -1.83254129E+00 -2.09920930E-01  4.16681162E+00 -1.83254129E+00
 -2.09920930E-01  4.16681162E+00 -1.83254129E+00 -2.09920930E-01 -4.04674040E+00
 -1.14225831E+00  4.51247836E-02 -4.04674040E+00 -1.14225831E+00  4.51247836E-02
 -4.04674040E+00 -1.14225831E+00  4.51247836E-02 -4.04674040E+00 -1.14225831E+00
  4.51247836E-02  1.47801852E-01  2.61985228E-01  6.60578003E-02  1.47801852E-01
  2.61985228E-01  6.60578003E-02  1.47801852E-01  2.61985228E-01  6.60578003E-02
  1.47801852E-01  2.61985228E-01  6.60578003E-02 -1.45415601E+00 -1.79945899E+00
  2.29118440E-01 -1.45415601E+00 -1.79945899E+00  2.29118440E-01 -1.45415601E+00
 -1.79945899E+00  2.29118440E-01 -1.45415601E+00 -1.79945899E+00  2.29118440E-01
 -4.34067182E+00  1.43744242E+00 -2.39146383E-01 -4.34067182E+00  1.43744242E+00
 -2.39146383E-01 -4.34067182E+00  1.43744242E+00 -2.39146383E-01 -4.34067182E+00
  1.43744242E+00 -2.39146383E-01  2.93729489E+00  4.02877847E-01  2.17213450E-01
  2.93729489E+00  4.02877847E-01  2.17213450E-01  2.93729489E+00  4.02877847E-01
  2.17213450E-01  2.93729489E+00  4.02877847E-01  2.17213450E-01 -6.18627868E+00
 -3.00286356E+00  1.73021904E-01 -6.18627868E+00 -3.00286356E+00  1.73021904E-01
 -6.18627868E+00 -3.00286356E+00  1.73021904E-01 -6.18627868E+00 -3.00286356E+00
  1.73021904E-01  6.91168990E+00 -1.87205915E+00 -2.95781893E-01  6.91168990E+00
 -1.87205915E+00 -2.95781893E-01  6.91168990E+00 -1.87205915E+00 -2.95781893E-01
  6.91168990E+00 -1.87205915E+00 -2.95781893E-01 -7.91584625E-01 -3.71852028E+00
  5.47886271E-01 -7.91584625E-01 -3.71852028E+00  5.47886271E-01 -6.10093484E+00
  2.46789907E+00 -4.31649725E-01 -6.10093484E+00  2.46789907E+00 -4.31649725E-01
 -6.18078538E+00 -4.02187723E+00  1.97295707E+00 -6.18078538E+00 -4.02187723E+00
  1.97295707E+00 -8.00646374E+00 -2.04318942E+00 -8.60937783E-03 -8.00646374E+00
 -2.04318942E+00 -8.60937783E-03 -6.05120701E+00 -4.40446813E+00 -1.34207369E+00
 -6.05120701E+00 -4.40446813E+00 -1.34207369E+00  3.21444492E+00 -3.19029785E+00
 -1.16024678E+00  3.21444492E+00 -3.19029785E+00 -1.16024678E+00  7.65238539E+00
 -1.03640366E+00 -2.03901781E+00  7.65238539E+00 -1.03640366E+00 -2.03901781E+00
  7.55423646E+00 -3.82540808E+00 -1.41872586E-01  7.55423646E+00 -3.82540808E+00
 -1.41872586E-01  7.63036977E+00 -7.84829434E-01  1.29804692E+00  7.63036977E+00
 -7.84829434E-01  1.29804692E+00
Constraint Structure                       R   N=          57
 -1.52194088E+00  3.03499431E+00 -2.64472714E-01  4.05615917E+00  2.38887278E+00
  7.28992628E-01  4.16681162E+00 -1.83254129E+00 -2.09920930E-01 -4.04674040E+00
 -1.14225831E+00  4.51247836E-02  1.47801852E-01  2.61985228E-01  6.60578003E-02
 -1.45415601E+00 -1.79945899E+00  2.29118440E-01 -4.34067182E+00  1.43744242E+00
 -2.39146383E-01  2.93729489E+00  4.02877847E-01  2.17213450E-01 -6.18627868E+00
 -3.00286356E+00  1.73021904E-01  6.91168990E+00 -1.87205915E+00 -2.95781893E-01
 -7.91584625E-01 -3.71852028E+00  5.47886271E-01 -6.10093484E+00  2.46789907E+00
 -4.31649725E-01 -6.18078538E+00 -4.02187723E+00  1.97295707E+00 -8.00646374E+00
 -2.04318942E+00 -8.60937783E-03 -6.05120701E+00 -4.40446813E+00 -1.34207369E+00
  3.21444492E+00 -3.19029785E+00 -1.16024678E+00  7.65238539E+00 -1.03640366E+00
 -2.03901781E+00  7.55423646E+00 -3.82540808E+00 -1.41872586E-01  7.63036977E+00
 -7.84829434E-01  1.29804692E+00
Num ILSW                                   I              100
ILSW                                       I   N=         100
           0           1           0           1           2           0
           0           0           0           0           0          -1
           0           0           0           0           0           0
           0           0           0           0           1           0
           1           0           0           0           0           0
           0           0      100000           0          -1           0
           0           0           0           0           0           0
           0           0           0           1           1           0
           0           0           1           0           0           0
           0           0           4          40           0           0
           0           0           0           0           0           0
           0           0           0           0           0           0
           0           0           0           0           0           0
           0           0           0           0           0           0
           0           0           0           0           0           0
           0           0           0           0           0           0
           0           0           0           0
Num RLSW                                   I               40
RLSW                                       R   N=          40
  1.00000000E+00  1.00000000E+00  1.00000000E+00  1.00000000E+00  1.00000000E+00
  0.00000000E+00  0.00000000E+00  1.00000000E+00  0.00000000E+00  0.00000000E+00
  0.00000000E+00  0.00000000E+00  1.00000000E+00  0.00000000E+00  0.00000000E+00
  0.00000000E+00  0.00000000E+00  1.00000000E+00  0.00000000E+00  0.00000000E+00
  0.00000000E+00  0.00000000E+00  1.00000000E+00  0.00000000E+00  0.00000000E+00
  0.00000000E+00  0.00000000E+00  1.00000000E+00  0.00000000E+00  0.00000000E+00
  0.00000000E+00  0.00000000E+00  0.00000000E+00  0.00000000E+00  0.00000000E+00
  0.00000000E+00  0.00000000E+00  0.00000000E+00  1.00000000E+00  1.00000000E+00
MxBond                                     I                4
NBond                                      I   N=          19
           2           1           3           3           3           3
           3           3           4           4           1           1
           1           1           1           1           1           1
           1
IBond                                      I   N=          76
           5           7           0           0           8           0
           0           0           8          10          16           0
           6           7           9           0           1           6
           8           0           4           5          11           0
           1           4          12           0           2           3
           5           0           4          13          14          15
           3          17          18          19           6           0
           0           0           7           0           0           0
           9           0           0           0           9           0
           0           0           9           0           0           0
           3           0           0           0          10           0
           0           0          10           0           0           0
          10           0           0           0
RBond                                      R   N=          76
  1.00000000E+00  1.00000000E+00  0.00000000E+00  0.00000000E+00  2.00000000E+00
  0.00000000E+00  0.00000000E+00  0.00000000E+00  1.00000000E+00  1.00000000E+00
  1.00000000E+00  0.00000000E+00  1.50000000E+00  1.50000000E+00  1.00000000E+00
  0.00000000E+00  1.00000000E+00  1.50000000E+00  1.50000000E+00  0.00000000E+00
  1.50000000E+00  1.50000000E+00  1.00000000E+00  0.00000000E+00  1.00000000E+00
  1.50000000E+00  1.00000000E+00  0.00000000E+00  2.00000000E+00  1.00000000E+00
  1.50000000E+00  0.00000000E+00  1.00000000E+00  1.00000000E+00  1.00000000E+00
  1.00000000E+00  1.00000000E+00  1.00000000E+00  1.00000000E+00  1.00000000E+00
  1.00000000E+00  0.00000000E+00  0.00000000E+00  0.00000000E+00  1.00000000E+00
  0.00000000E+00  0.00000000E+00  0.00000000E+00  1.00000000E+00  0.00000000E+00
  0.00000000E+00  0.00000000E+00  1.00000000E+00  0.00000000E+00  0.00000000E+00
  0.00000000E+00  1.00000000E+00  0.00000000E+00  0.00000000E+00  0.00000000E+00
  1.00000000E+00  0.00000000E+00  0.00000000E+00  0.00000000E+00  1.00000000E+00
  0.00000000E+00  0.00000000E+00  0.00000000E+00  1.00000000E+00  0.00000000E+00
  0.00000000E+00  0.00000000E+00  1.00000000E+00  0.00000000E+00  0.00000000E+00
  0.00000000E+00
Virial Ratio                               R      2.001422852076118E+00
SCF Energy                                 R     -7.971389816142514E+02
MP2 Energy                                 R     -7.985059879731258E+02
Total Energy                               R     -7.985059879731258E+02
Post-SCF wavefunction norm                 R      1.721427321283871E+00
RMS Force                                  R      1.511516474690861E-07
RMS Density                                R      1.330112030194707E-09
External E-field                           R   N=          35
  0.00000000E+00  0.00000000E+00  0.00000000E+00  0.00000000E+00  0.00000000E+00
  0.00000000E+00  0.00000000E+00  0.00000000E+00  0.00000000E+00  0.00000000E+00
  0.00000000E+00  0.00000000E+00  0.00000000E+00  0.00000000E+00  0.00000000E+00
  0.00000000E+00  0.00000000E+00  0.00000000E+00  0.00000000E+00  0.00000000E+00
  0.00000000E+00  0.00000000E+00  0.00000000E+00  0.00000000E+00  0.00000000E+00
  0.00000000E+00  0.00000000E+00  0.00000000E+00  0.00000000E+00  0.00000000E+00
  0.00000000E+00  0.00000000E+00  0.00000000E+00  0.00000000E+00  0.00000000E+00
IOpCl                                      I                0
IROHF                                      I                0
Alpha Orbital Energies                     R   N=         172
 -9.19767436E+01 -2.05265513E+01 -1.55916246E+01 -1.13615758E+01 -1.12737132E+01
 -1.12694316E+01 -1.12604186E+01 -1.12579523E+01 -1.12534861E+01 -1.12380115E+01
 -8.98633499E+00 -6.66872979E+00 -6.66778976E+00 -6.66629154E+00 -1.37246044E+00
 -1.22852577E+00 -1.18237808E+00 -1.04495563E+00 -1.00612662E+00 -9.52344382E-01
 -9.21421770E-01 -8.26485272E-01 -7.65829805E-01 -7.48396510E-01 -7.06118030E-01
 -6.40806648E-01 -6.24418156E-01 -6.17885122E-01 -5.91903170E-01 -5.88873511E-01
 -5.65120801E-01 -5.50249200E-01 -5.45761648E-01 -5.32753825E-01 -5.21908635E-01
 -4.96417526E-01 -4.76010493E-01 -4.27476594E-01 -3.92125613E-01 -3.45035872E-01
 -3.24141090E-01  9.03635847E-02  1.87757524E-01  1.94441841E-01  2.22776466E-01
  2.37757612E-01  2.59167184E-01  2.67016876E-01  2.74829128E-01  2.83735319E-01
  3.08320194E-01  3.13775962E-01  3.27850989E-01  3.35295050E-01  3.43734700E-01
  3.70171404E-01  3.89877906E-01  4.16045846E-01  4.48541467E-01  4.67111628E-01
  5.10243694E-01  5.39648053E-01  5.52833824E-01  5.77394718E-01  6.25503112E-01
  6.37882085E-01  6.64493357E-01  7.24922897E-01  7.33574521E-01  7.38365428E-01
  7.51324436E-01  7.65735649E-01  7.83360550E-01  8.05053106E-01  8.18043839E-01
  8.33480398E-01  8.77069161E-01  8.86358047E-01  9.01507922E-01  9.13187358E-01
  9.52583007E-01  9.69919782E-01  9.79809764E-01  9.99258699E-01  1.00860746E+00
  1.01996608E+00  1.04547929E+00  1.07452448E+00  1.08172625E+00  1.09633511E+00
  1.11217534E+00  1.11656285E+00  1.13636431E+00  1.14614626E+00  1.15929178E+00
  1.17510629E+00  1.20305006E+00  1.20504849E+00  1.21434204E+00  1.22045806E+00
  1.22497480E+00  1.26131326E+00  1.29913772E+00  1.31723855E+00  1.33913553E+00
  1.35585621E+00  1.37665888E+00  1.40804606E+00  1.42143001E+00  1.43438335E+00
  1.52106162E+00  1.54791423E+00  1.60959298E+00  1.61744815E+00  1.64215244E+00
  1.66470037E+00  1.68201707E+00  1.72171145E+00  1.77029781E+00  1.79917547E+00
  1.82471169E+00  1.91017427E+00  2.01162313E+00  2.06129924E+00  2.09190066E+00
  2.11392100E+00  2.13036909E+00  2.15428423E+00  2.15719015E+00  2.17809162E+00
  2.19768216E+00  2.24154074E+00  2.26092209E+00  2.29038770E+00  2.33796029E+00
  2.35333566E+00  2.40108747E+00  2.40954635E+00  2.45105196E+00  2.49914464E+00
  2.50851231E+00  2.55223810E+00  2.56983346E+00  2.60624421E+00  2.63509264E+00
  2.65746032E+00  2.70579904E+00  2.73059655E+00  2.75778367E+00  2.77931807E+00
  2.81034543E+00  2.82612422E+00  2.90041111E+00  2.98408490E+00  3.00033635E+00
  3.04486365E+00  3.11177042E+00  3.23307180E+00  3.32667567E+00  3.37211760E+00
  3.46502376E+00  3.55698533E+00  4.35157888E+00  4.40901958E+00  4.44880632E+00
  4.53111504E+00  4.55351494E+00  4.66644775E+00  4.68855261E+00  4.74888576E+00
  4.92430319E+00  5.00825517E+00
Alpha MO coefficients                      R   N=       29584
  9.96255230E-01  1.42525479E-02 -1.36639483E-05 -9.44982137E-05  7.45521280E-06
 -1.99944867E-02 -8.50314317E-06  1.95856556E-04 -2.13382607E-05  2.12573233E-03
  1.99492895E-05  4.46934155E-05 -4.79548951E-06  6.87791531E-03  6.88580356E-03
  6.91033711E-03 -2.60129438E-06 -2.20570048E-06  5.04279328E-06 -1.62424740E-05
 -7.14838945E-05 -6.45779677E-06  1.46560036E-05  7.38988511E-06  5.82925419E-04
 -4.02315037E-05 -1.82006202E-04 -6.47168492E-05 -6.32680873E-05 -2.81285016E-05
 -3.56191322E-05  2.38957523E-05  1.25399199E-06  9.45802595E-06  2.82869604E-07