69247169                                                                
Freq      RMP2-FC                                                     6-31G(d)            
Number of atoms                            I               18
Info1-9                                    I   N=           9
          30          28        1002           0           0         100
           6           2           1
Charge                                     I                0
Multiplicity                               I                1
Number of electrons                        I               74
Number of alpha electrons                  I               37
Number of beta electrons                   I               37
Number of basis functions                  I              166
Number of independent functions            I              166
Number of point charges in /Mol/           I                0
Number of translation vectors              I                0
Atomic numbers                             I   N=          18
           8           8           7           7           6           6
           6           6           6           6           1           1
           1           1           1           1           1           1
Nuclear charges                            R   N=          18
  8.00000000E+00  8.00000000E+00  7.00000000E+00  7.00000000E+00  6.00000000E+00
  6.00000000E+00  6.00000000E+00  6.00000000E+00  6.00000000E+00  6.00000000E+00
  1.00000000E+00  1.00000000E+00  1.00000000E+00  1.00000000E+00  1.00000000E+00
  1.00000000E+00  1.00000000E+00  1.00000000E+00
Current cartesian coordinates              R   N=          54
  3.13323118E+00 -1.85706052E+00  7.22158606E-01 -1.55883906E+00 -3.49032720E+00
 -3.62853619E-01 -3.22639953E+00  4.99822754E-01  7.90648247E-03  2.31026506E+00
  1.99963739E+00 -8.31597978E-01 -1.27705971E+00 -1.18088864E+00 -1.24267157E-01
 -3.06936832E+00  3.15620780E+00  7.05688675E-01 -5.78015616E+00 -4.94631721E-01
 -2.27484967E-01  1.35547264E+00 -1.62571314E-01 -5.46857731E-02  5.37932511E+00
 -6.29625464E-01  4.22613180E-01  4.88856810E+00  1.71786734E+00 -5.25617539E-01
 -3.89742831E+00  4.32013933E+00 -7.91427168E-01 -1.11708184E+00  3.72629471E+00
  9.67278382E-01 -4.13966640E+00  3.46871996E+00  2.45175267E+00 -6.73431091E+00
 -4.93552601E-01  1.61119521E+00 -5.67675640E+00 -2.42112858E+00 -9.38561481E-01
 -6.85284965E+00  6.93507238E-01 -1.53627551E+00  7.05598585E+00 -1.65490177E+00
  9.64936317E-01  6.19922205E+00  3.20565448E+00 -1.01497636E+00
Force Field                                I                0
Int Atom Types                             I   N=          18
           0           0           0           0           0           0
           0           0           0           0           0           0
           0           0           0           0           0           0
MM charges                                 R   N=          18
  0.00000000E+00  0.00000000E+00  0.00000000E+00  0.00000000E+00  0.00000000E+00
  0.00000000E+00  0.00000000E+00  0.00000000E+00  0.00000000E+00  0.00000000E+00
  0.00000000E+00  0.00000000E+00  0.00000000E+00  0.00000000E+00  0.00000000E+00
  0.00000000E+00  0.00000000E+00  0.00000000E+00
Integer atomic weights                     I   N=          18
          16          16          14          14          12          12
          12          12          12          12           1           1
           1           1           1           1           1           1
Real atomic weights                        R   N=          18
  1.59949146E+01  1.59949146E+01  1.40030740E+01  1.40030740E+01  1.20000000E+01
  1.20000000E+01  1.20000000E+01  1.20000000E+01  1.20000000E+01  1.20000000E+01
  1.00782504E+00  1.00782504E+00  1.00782504E+00  1.00782504E+00  1.00782504E+00
  1.00782504E+00  1.00782504E+00  1.00782504E+00
Atom fragment info                         I   N=          18
           0           0           0           0           0           0
           0           0           0           0           0           0
           0           0           0           0           0           0
Atom residue num                           I   N=          18
           0           0           0           0           0           0
           0           0           0           0           0           0
           0           0           0           0           0           0
Nuclear spins                              I   N=          18
           0           0           2           2           0           0
           0           0           0           0           1           1
           1           1           1           1           1           1
Nuclear ZEff                               R   N=          18
 -5.60000000E+00 -5.60000000E+00 -4.55000000E+00 -4.55000000E+00 -3.60000000E+00
 -3.60000000E+00 -3.60000000E+00 -3.60000000E+00 -3.60000000E+00 -3.60000000E+00
 -1.00000000E+00 -1.00000000E+00 -1.00000000E+00 -1.00000000E+00 -1.00000000E+00
 -1.00000000E+00 -1.00000000E+00 -1.00000000E+00
Nuclear QMom                               R   N=          18
  0.00000000E+00  0.00000000E+00  2.04400000E+00  2.04400000E+00  0.00000000E+00
  0.00000000E+00  0.00000000E+00  0.00000000E+00  0.00000000E+00  0.00000000E+00
  0.00000000E+00  0.00000000E+00  0.00000000E+00  0.00000000E+00  0.00000000E+00
  0.00000000E+00  0.00000000E+00  0.00000000E+00
Nuclear GFac                               R   N=          18
  0.00000000E+00  0.00000000E+00  4.03761000E-01  4.03761000E-01  0.00000000E+00
  0.00000000E+00  0.00000000E+00  0.00000000E+00  0.00000000E+00  0.00000000E+00
  2.79284600E+00  2.79284600E+00  2.79284600E+00  2.79284600E+00  2.79284600E+00
  2.79284600E+00  2.79284600E+00  2.79284600E+00
MicOpt                                     I   N=          18
          -1          -1          -1          -1          -1          -1
          -1          -1          -1          -1          -1          -1
          -1          -1          -1          -1          -1          -1
Number of contracted shells                I               56
Number of primitive shells                 I              142
Pure/Cartesian d shells                    I                1
Pure/Cartesian f shells                    I                0
Highest angular momentum                   I                2
Largest degree of contraction              I                6
Shell types                                I   N=          56
           0          -1          -1           2           0          -1
          -1           2           0          -1          -1           2
           0          -1          -1           2           0          -1
          -1           2           0          -1          -1           2
           0          -1          -1           2           0          -1
          -1           2           0          -1          -1           2
           0          -1          -1           2           0           0
           0           0           0           0           0           0
           0           0           0           0           0           0
           0           0
Number of primitives per shell             I   N=          56
           6           3           1           1           6           3
           1           1           6           3           1           1
           6           3           1           1           6           3
           1           1           6           3           1           1
           6           3           1           1           6           3
           1           1           6           3           1           1
           6           3           1           1           3           1
           3           1           3           1           3           1
           3           1           3           1           3           1
           3           1
Shell to atom map                          I   N=          56
           1           1           1           1           2           2
           2           2           3           3           3           3
           4           4           4           4           5           5
           5           5           6           6           6           6
           7           7           7           7           8           8
           8           8           9           9           9           9
          10          10          10          10          11          11
          12          12          13          13          14          14
          15          15          16          16          17          17
          18          18
Primitive exponents                        R   N=         142
  5.48467166E+03  8.25234946E+02  1.88046958E+02  5.29645000E+01  1.68975704E+01
  5.79963534E+00  1.55396162E+01  3.59993359E+00  1.01376175E+00  2.70005823E-01
  8.00000000E-01  5.48467166E+03  8.25234946E+02  1.88046958E+02  5.29645000E+01
  1.68975704E+01  5.79963534E+00  1.55396162E+01  3.59993359E+00  1.01376175E+00
  2.70005823E-01  8.00000000E-01  4.17351146E+03  6.27457911E+02  1.42902093E+02
  4.02343293E+01  1.28202129E+01  4.39043701E+00  1.16263619E+01  2.71627981E+00
  7.72218397E-01  2.12031498E-01  8.00000000E-01  4.17351146E+03  6.27457911E+02
  1.42902093E+02  4.02343293E+01  1.28202129E+01  4.39043701E+00  1.16263619E+01
  2.71627981E+00  7.72218397E-01  2.12031498E-01  8.00000000E-01  3.04752488E+03
  4.57369518E+02  1.03948685E+02  2.92101553E+01  9.28666296E+00  3.16392696E+00
  7.86827235E+00  1.88128854E+00  5.44249258E-01  1.68714478E-01  8.00000000E-01
  3.04752488E+03  4.57369518E+02  1.03948685E+02  2.92101553E+01  9.28666296E+00
  3.16392696E+00  7.86827235E+00  1.88128854E+00  5.44249258E-01  1.68714478E-01
  8.00000000E-01  3.04752488E+03  4.57369518E+02  1.03948685E+02  2.92101553E+01
  9.28666296E+00  3.16392696E+00  7.86827235E+00  1.88128854E+00  5.44249258E-01
  1.68714478E-01  8.00000000E-01  3.04752488E+03  4.57369518E+02  1.03948685E+02
  2.92101553E+01  9.28666296E+00  3.16392696E+00  7.86827235E+00  1.88128854E+00
  5.44249258E-01  1.68714478E-01  8.00000000E-01  3.04752488E+03  4.57369518E+02
  1.03948685E+02  2.92101553E+01  9.28666296E+00  3.16392696E+00  7.86827235E+00
  1.88128854E+00  5.44249258E-01  1.68714478E-01  8.00000000E-01  3.04752488E+03
  4.57369518E+02  1.03948685E+02  2.92101553E+01  9.28666296E+00  3.16392696E+00
  7.86827235E+00  1.88128854E+00  5.44249258E-01  1.68714478E-01  8.00000000E-01
  1.87311370E+01  2.82539436E+00  6.40121692E-01  1.61277759E-01  1.87311370E+01
  2.82539436E+00  6.40121692E-01  1.61277759E-01  1.87311370E+01  2.82539436E+00
  6.40121692E-01  1.61277759E-01  1.87311370E+01  2.82539436E+00  6.40121692E-01
  1.61277759E-01  1.87311370E+01  2.82539436E+00  6.40121692E-01  1.61277759E-01
  1.87311370E+01  2.82539436E+00  6.40121692E-01  1.61277759E-01  1.87311370E+01
  2.82539436E+00  6.40121692E-01  1.61277759E-01  1.87311370E+01  2.82539436E+00
  6.40121692E-01  1.61277759E-01
Contraction coefficients                   R   N=         142
  1.83107443E-03  1.39501722E-02  6.84450781E-02  2.32714336E-01  4.70192898E-01
  3.58520853E-01 -1.10777550E-01 -1.48026263E-01  1.13076702E+00  1.00000000E+00
  1.00000000E+00  1.83107443E-03  1.39501722E-02  6.84450781E-02  2.32714336E-01
  4.70192898E-01  3.58520853E-01 -1.10777550E-01 -1.48026263E-01  1.13076702E+00
  1.00000000E+00  1.00000000E+00  1.83477216E-03  1.39946270E-02  6.85865518E-02
  2.32240873E-01  4.69069948E-01  3.60455199E-01 -1.14961182E-01 -1.69117479E-01
  1.14585195E+00  1.00000000E+00  1.00000000E+00  1.83477216E-03  1.39946270E-02
  6.85865518E-02  2.32240873E-01  4.69069948E-01  3.60455199E-01 -1.14961182E-01
 -1.69117479E-01  1.14585195E+00  1.00000000E+00  1.00000000E+00  1.83473713E-03
  1.40373228E-02  6.88426223E-02  2.32184443E-01  4.67941348E-01  3.62311985E-01
 -1.19332420E-01 -1.60854152E-01  1.14345644E+00  1.00000000E+00  1.00000000E+00
  1.83473713E-03  1.40373228E-02  6.88426223E-02  2.32184443E-01  4.67941348E-01
  3.62311985E-01 -1.19332420E-01 -1.60854152E-01  1.14345644E+00  1.00000000E+00
  1.00000000E+00  1.83473713E-03  1.40373228E-02  6.88426223E-02  2.32184443E-01
  4.67941348E-01  3.62311985E-01 -1.19332420E-01 -1.60854152E-01  1.14345644E+00
  1.00000000E+00  1.00000000E+00  1.83473713E-03  1.40373228E-02  6.88426223E-02
  2.32184443E-01  4.67941348E-01  3.62311985E-01 -1.19332420E-01 -1.60854152E-01
  1.14345644E+00  1.00000000E+00  1.00000000E+00  1.83473713E-03  1.40373228E-02
  6.88426223E-02  2.32184443E-01  4.67941348E-01  3.62311985E-01 -1.19332420E-01
 -1.60854152E-01  1.14345644E+00  1.00000000E+00  1.00000000E+00  1.83473713E-03
  1.40373228E-02  6.88426223E-02  2.32184443E-01  4.67941348E-01  3.62311985E-01
 -1.19332420E-01 -1.60854152E-01  1.14345644E+00  1.00000000E+00  1.00000000E+00
  3.34946043E-02  2.34726953E-01  8.13757326E-01  1.00000000E+00  3.34946043E-02
  2.34726953E-01  8.13757326E-01  1.00000000E+00  3.34946043E-02  2.34726953E-01
  8.13757326E-01  1.00000000E+00  3.34946043E-02  2.34726953E-01  8.13757326E-01
  1.00000000E+00  3.34946043E-02  2.34726953E-01  8.13757326E-01  1.00000000E+00
  3.34946043E-02  2.34726953E-01  8.13757326E-01  1.00000000E+00  3.34946043E-02
  2.34726953E-01  8.13757326E-01  1.00000000E+00  3.34946043E-02  2.34726953E-01
  8.13757326E-01  1.00000000E+00
P(S=P) Contraction coefficients            R   N=         142
  0.00000000E+00  0.00000000E+00  0.00000000E+00  0.00000000E+00  0.00000000E+00
  0.00000000E+00  7.08742682E-02  3.39752839E-01  7.27158577E-01  1.00000000E+00
  0.00000000E+00  0.00000000E+00  0.00000000E+00  0.00000000E+00  0.00000000E+00
  0.00000000E+00  0.00000000E+00  7.08742682E-02  3.39752839E-01  7.27158577E-01
  1.00000000E+00  0.00000000E+00  0.00000000E+00  0.00000000E+00  0.00000000E+00
  0.00000000E+00  0.00000000E+00  0.00000000E+00  6.75797439E-02  3.23907296E-01
  7.40895140E-01  1.00000000E+00  0.00000000E+00  0.00000000E+00  0.00000000E+00
  0.00000000E+00  0.00000000E+00  0.00000000E+00  0.00000000E+00  6.75797439E-02
  3.23907296E-01  7.40895140E-01  1.00000000E+00  0.00000000E+00  0.00000000E+00
  0.00000000E+00  0.00000000E+00  0.00000000E+00  0.00000000E+00  0.00000000E+00
  6.89990666E-02  3.16423961E-01  7.44308291E-01  1.00000000E+00  0.00000000E+00
  0.00000000E+00  0.00000000E+00  0.00000000E+00  0.00000000E+00  0.00000000E+00
  0.00000000E+00  6.89990666E-02  3.16423961E-01  7.44308291E-01  1.00000000E+00
  0.00000000E+00  0.00000000E+00  0.00000000E+00  0.00000000E+00  0.00000000E+00
  0.00000000E+00  0.00000000E+00  6.89990666E-02  3.16423961E-01  7.44308291E-01
  1.00000000E+00  0.00000000E+00  0.00000000E+00  0.00000000E+00  0.00000000E+00
  0.00000000E+00  0.00000000E+00  0.00000000E+00  6.89990666E-02  3.16423961E-01
  7.44308291E-01  1.00000000E+00  0.00000000E+00  0.00000000E+00  0.00000000E+00
  0.00000000E+00  0.00000000E+00  0.00000000E+00  0.00000000E+00  6.89990666E-02
  3.16423961E-01  7.44308291E-01  1.00000000E+00  0.00000000E+00  0.00000000E+00
  0.00000000E+00  0.00000000E+00  0.00000000E+00  0.00000000E+00  0.00000000E+00
  6.89990666E-02  3.16423961E-01  7.44308291E-01  1.00000000E+00  0.00000000E+00
  0.00000000E+00  0.00000000E+00  0.00000000E+00  0.00000000E+00  0.00000000E+00
  0.00000000E+00  0.00000000E+00  0.00000000E+00  0.00000000E+00  0.00000000E+00
  0.00000000E+00  0.00000000E+00  0.00000000E+00  0.00000000E+00  0.00000000E+00
  0.00000000E+00  0.00000000E+00  0.00000000E+00  0.00000000E+00  0.00000000E+00
  0.00000000E+00  0.00000000E+00  0.00000000E+00  0.00000000E+00  0.00000000E+00
  0.00000000E+00  0.00000000E+00  0.00000000E+00  0.00000000E+00  0.00000000E+00
  0.00000000E+00  0.00000000E+00
Coordinates of each shell                  R   N=         168
  3.13323118E+00 -1.85706052E+00  7.22158606E-01  3.13323118E+00 -1.85706052E+00
  7.22158606E-01  3.13323118E+00 -1.85706052E+00  7.22158606E-01  3.13323118E+00
 -1.85706052E+00  7.22158606E-01 -1.55883906E+00 -3.49032720E+00 -3.62853619E-01
 -1.55883906E+00 -3.49032720E+00 -3.62853619E-01 -1.55883906E+00 -3.49032720E+00
 -3.62853619E-01 -1.55883906E+00 -3.49032720E+00 -3.62853619E-01 -3.22639953E+00
  4.99822754E-01  7.90648247E-03 -3.22639953E+00  4.99822754E-01  7.90648247E-03
 -3.22639953E+00  4.99822754E-01  7.90648247E-03 -3.22639953E+00  4.99822754E-01
  7.90648247E-03  2.31026506E+00  1.99963739E+00 -8.31597978E-01  2.31026506E+00
  1.99963739E+00 -8.31597978E-01  2.31026506E+00  1.99963739E+00 -8.31597978E-01
  2.31026506E+00  1.99963739E+00 -8.31597978E-01 -1.27705971E+00 -1.18088864E+00
 -1.24267157E-01 -1.27705971E+00 -1.18088864E+00 -1.24267157E-01 -1.27705971E+00
 -1.18088864E+00 -1.24267157E-01 -1.27705971E+00 -1.18088864E+00 -1.24267157E-01
 -3.06936832E+00  3.15620780E+00  7.05688675E-01 -3.06936832E+00  3.15620780E+00
  7.05688675E-01 -3.06936832E+00  3.15620780E+00  7.05688675E-01 -3.06936832E+00
  3.15620780E+00  7.05688675E-01 -5.78015616E+00 -4.94631721E-01 -2.27484967E-01
 -5.78015616E+00 -4.94631721E-01 -2.27484967E-01 -5.78015616E+00 -4.94631721E-01
 -2.27484967E-01 -5.78015616E+00 -4.94631721E-01 -2.27484967E-01  1.35547264E+00
 -1.62571314E-01 -5.46857731E-02  1.35547264E+00 -1.62571314E-01 -5.46857731E-02
  1.35547264E+00 -1.62571314E-01 -5.46857731E-02  1.35547264E+00 -1.62571314E-01
 -5.46857731E-02  5.37932511E+00 -6.29625464E-01  4.22613180E-01  5.37932511E+00
 -6.29625464E-01  4.22613180E-01  5.37932511E+00 -6.29625464E-01  4.22613180E-01
  5.37932511E+00 -6.29625464E-01  4.22613180E-01  4.88856810E+00  1.71786734E+00
 -5.25617539E-01  4.88856810E+00  1.71786734E+00 -5.25617539E-01  4.88856810E+00
  1.71786734E+00 -5.25617539E-01  4.88856810E+00  1.71786734E+00 -5.25617539E-01
 -3.89742831E+00  4.32013933E+00 -7.91427168E-01 -3.89742831E+00  4.32013933E+00
 -7.91427168E-01 -1.11708184E+00  3.72629471E+00  9.67278382E-01 -1.11708184E+00
  3.72629471E+00  9.67278382E-01 -4.13966640E+00  3.46871996E+00  2.45175267E+00
 -4.13966640E+00  3.46871996E+00  2.45175267E+00 -6.73431091E+00 -4.93552601E-01
  1.61119521E+00 -6.73431091E+00 -4.93552601E-01  1.61119521E+00 -5.67675640E+00
 -2.42112858E+00 -9.38561481E-01 -5.67675640E+00 -2.42112858E+00 -9.38561481E-01
 -6.85284965E+00  6.93507238E-01 -1.53627551E+00 -6.85284965E+00  6.93507238E-01
 -1.53627551E+00  7.05598585E+00 -1.65490177E+00  9.64936317E-01  7.05598585E+00
 -1.65490177E+00  9.64936317E-01  6.19922205E+00  3.20565448E+00 -1.01497636E+00
  6.19922205E+00  3.20565448E+00 -1.01497636E+00
Constraint Structure                       R   N=          54
  3.13323118E+00 -1.85706052E+00  7.22158606E-01 -1.55883906E+00 -3.49032720E+00
 -3.62853619E-01 -3.22639953E+00  4.99822754E-01  7.90648247E-03  2.31026506E+00
  1.99963739E+00 -8.31597978E-01 -1.27705971E+00 -1.18088864E+00 -1.24267157E-01
 -3.06936832E+00  3.15620780E+00  7.05688675E-01 -5.78015616E+00 -4.94631721E-01
 -2.27484967E-01  1.35547264E+00 -1.62571314E-01 -5.46857731E-02  5.37932511E+00
 -6.29625464E-01  4.22613180E-01  4.88856810E+00  1.71786734E+00 -5.25617539E-01
 -3.89742831E+00  4.32013933E+00 -7.91427168E-01 -1.11708184E+00  3.72629471E+00
  9.67278382E-01 -4.13966640E+00  3.46871996E+00  2.45175267E+00 -6.73431091E+00
 -4.93552601E-01  1.61119521E+00 -5.67675640E+00 -2.42112858E+00 -9.38561481E-01
 -6.85284965E+00  6.93507238E-01 -1.53627551E+00  7.05598585E+00 -1.65490177E+00
  9.64936317E-01  6.19922205E+00  3.20565448E+00 -1.01497636E+00
Num ILSW                                   I              100
ILSW                                       I   N=         100
           0           1           0           0           2           0
           0           0           0           0           0          -1
           0           0           0           0           0           0
           0           0           0           0           1           0
           1           0           0           0           0           0
           0           0      100000           0          -1           0
           0           0           0           0           0           0
           0           0           0           1           1           0
           0           0           1           0           0           0
           0           0           4          40           0           0
           0           0           0           0           0           0
           0           0           0           0           0           0
           0           0           0           0           0           0
           0           0           0           0           0           0
           0           0           0           0           0           0
           0           0           0           0           0           0
           0           0           0           0
Num RLSW                                   I               40
RLSW                                       R   N=          40
  1.00000000E+00  1.00000000E+00  1.00000000E+00  1.00000000E+00  1.00000000E+00
  0.00000000E+00  0.00000000E+00  1.00000000E+00  0.00000000E+00  0.00000000E+00
  0.00000000E+00  0.00000000E+00  1.00000000E+00  0.00000000E+00  0.00000000E+00
  0.00000000E+00  0.00000000E+00  1.00000000E+00  0.00000000E+00  0.00000000E+00
  0.00000000E+00  0.00000000E+00  1.00000000E+00  0.00000000E+00  0.00000000E+00
  0.00000000E+00  0.00000000E+00  1.00000000E+00  0.00000000E+00  0.00000000E+00
  0.00000000E+00  0.00000000E+00  0.00000000E+00  0.00000000E+00  0.00000000E+00
  0.00000000E+00  0.00000000E+00  0.00000000E+00  1.00000000E+00  1.00000000E+00
MxBond                                     I                4
NBond                                      I   N=          18
           2           1           3           2           3           4
           4           3           3           3           1           1
           1           1           1           1           1           1
IBond                                      I   N=          72
           8           9           0           0           5           0
           0           0           5           6           7           0
           8          10           0           0           2           3
           8           0           3          11          12          13
           3          14          15          16           1           4
           5           0           1          10          17           0
           4           9          18           0           6           0
           0           0           6           0           0           0
           6           0           0           0           7           0
           0           0           7           0           0           0
           7           0           0           0           9           0
           0           0          10           0           0           0
RBond                                      R   N=          72
  1.50000000E+00  1.50000000E+00  0.00000000E+00  0.00000000E+00  2.00000000E+00
  0.00000000E+00  0.00000000E+00  0.00000000E+00  1.00000000E+00  1.00000000E+00
  1.00000000E+00  0.00000000E+00  1.50000000E+00  1.00000000E+00  0.00000000E+00
  0.00000000E+00  2.00000000E+00  1.00000000E+00  1.00000000E+00  0.00000000E+00
  1.00000000E+00  1.00000000E+00  1.00000000E+00  1.00000000E+00  1.00000000E+00
  1.00000000E+00  1.00000000E+00  1.00000000E+00  1.50000000E+00  1.50000000E+00
  1.00000000E+00  0.00000000E+00  1.50000000E+00  1.50000000E+00  1.00000000E+00
  0.00000000E+00  1.00000000E+00  1.50000000E+00  1.00000000E+00  0.00000000E+00
  1.00000000E+00  0.00000000E+00  0.00000000E+00  0.00000000E+00  1.00000000E+00
  0.00000000E+00  0.00000000E+00  0.00000000E+00  1.00000000E+00  0.00000000E+00
  0.00000000E+00  0.00000000E+00  1.00000000E+00  0.00000000E+00  0.00000000E+00
  0.00000000E+00  1.00000000E+00  0.00000000E+00  0.00000000E+00  0.00000000E+00
  1.00000000E+00  0.00000000E+00  0.00000000E+00  0.00000000E+00  1.00000000E+00
  0.00000000E+00  0.00000000E+00  0.00000000E+00  1.00000000E+00  0.00000000E+00
  0.00000000E+00  0.00000000E+00
Virial Ratio                               R      2.002917471045710E+00
SCF Energy                                 R     -4.904588869182284E+02
MP2 Energy                                 R     -4.919133740599687E+02
Total Energy                               R     -4.919133740599687E+02
Post-SCF wavefunction norm                 R      1.717658687210679E+00
RMS Force                                  R      1.221462686576183E-07
RMS Density                                R      2.410728680904982E-09
External E-field                           R   N=          35
  0.00000000E+00  0.00000000E+00  0.00000000E+00  0.00000000E+00  0.00000000E+00
  0.00000000E+00  0.00000000E+00  0.00000000E+00  0.00000000E+00  0.00000000E+00
  0.00000000E+00  0.00000000E+00  0.00000000E+00  0.00000000E+00  0.00000000E+00
  0.00000000E+00  0.00000000E+00  0.00000000E+00  0.00000000E+00  0.00000000E+00
  0.00000000E+00  0.00000000E+00  0.00000000E+00  0.00000000E+00  0.00000000E+00
  0.00000000E+00  0.00000000E+00  0.00000000E+00  0.00000000E+00  0.00000000E+00
  0.00000000E+00  0.00000000E+00  0.00000000E+00  0.00000000E+00  0.00000000E+00
IOpCl                                      I                0
IROHF                                      I                0
Alpha Orbital Energies                     R   N=         166
 -2.06600091E+01 -2.05326902E+01 -1.56034540E+01 -1.55942641E+01 -1.13745642E+01
 -1.13549348E+01 -1.13137182E+01 -1.12773243E+01 -1.12653508E+01 -1.12582207E+01
 -1.49774245E+00 -1.37860181E+00 -1.25697346E+00 -1.24036724E+00 -1.05624588E+00
 -9.75335491E-01 -9.56844872E-01 -8.63298759E-01 -8.41560135E-01 -7.77808085E-01
 -7.24769164E-01 -6.78329301E-01 -6.64167051E-01 -6.56655514E-01 -6.47758916E-01
 -6.19999278E-01 -5.85304944E-01 -5.81270354E-01 -5.64764780E-01 -5.59916532E-01
 -5.38523842E-01 -5.30724514E-01 -4.77108800E-01 -4.59606698E-01 -4.34524563E-01
 -3.73769548E-01 -3.48208082E-01  9.88822292E-02  1.93113235E-01  2.33685153E-01
  2.57839389E-01  2.68052288E-01  2.85021797E-01  2.95511493E-01  3.08884581E-01
  3.11519815E-01  3.19177273E-01  3.30524225E-01  3.36749482E-01  3.64832871E-01
  3.88899032E-01  4.07363422E-01  4.57603367E-01  4.82078320E-01  5.32106516E-01
  5.67378876E-01  6.08000952E-01  6.62510908E-01  6.89216515E-01  7.11337465E-01
  7.29238160E-01  7.38689837E-01  7.44295307E-01  7.64479843E-01  7.84716366E-01
  8.29131601E-01  8.40738224E-01  8.42911219E-01  8.45542314E-01  8.79031102E-01
  9.12968016E-01  9.20814152E-01  9.27497522E-01  9.50453232E-01  9.66007845E-01
  9.89524262E-01  1.03770794E+00  1.05485854E+00  1.07675247E+00  1.07849011E+00
  1.09338172E+00  1.11133750E+00  1.12968262E+00  1.15535008E+00  1.16078071E+00
  1.18563149E+00  1.18926597E+00  1.20403784E+00  1.21639280E+00  1.22726295E+00
  1.24622691E+00  1.26875777E+00  1.28887371E+00  1.30808597E+00  1.33664824E+00
  1.36919957E+00  1.42200078E+00  1.46271636E+00  1.52218297E+00  1.57162078E+00
  1.58508744E+00  1.63208499E+00  1.64970751E+00  1.65720139E+00  1.67535765E+00
  1.68653574E+00  1.72103724E+00  1.73850198E+00  1.77050198E+00  1.77594299E+00
  1.83595019E+00  1.84424145E+00  2.03077750E+00  2.06761181E+00  2.07510551E+00
  2.10378872E+00  2.11831509E+00  2.14495969E+00  2.18015871E+00  2.22417410E+00
  2.24705354E+00  2.27655155E+00  2.28693128E+00  2.32173515E+00  2.34376518E+00
  2.37623165E+00  2.38493093E+00  2.41331399E+00  2.44822917E+00  2.49710857E+00
  2.51642938E+00  2.53113298E+00  2.55648648E+00  2.55880834E+00  2.59991645E+00
  2.61194462E+00  2.65159723E+00  2.69925829E+00  2.71196551E+00  2.74343396E+00
  2.79020268E+00  2.86812493E+00  2.90152998E+00  2.92128272E+00  2.96534541E+00
  3.00217614E+00  3.03383616E+00  3.05701488E+00  3.10613832E+00  3.18042688E+00
  3.21056450E+00  3.30354864E+00  3.30683934E+00  3.38873750E+00  3.58640663E+00
  3.64466385E+00  4.34278784E+00  4.42620318E+00  4.47066283E+00  4.54774841E+00
  4.60129681E+00  4.69219233E+00  4.74141196E+00  4.78038864E+00  4.83562320E+00
  5.11489236E+00
Alpha MO coefficients                      R   N=       27556
  9.94682594E-01  2.12189239E-02  2.04374354E-04  1.27322713E-03 -4.41495867E-04
  3.49594798E-03 -1.00363538E-04 -7.87759950E-04  2.86006610E-04 -4.05599724E-03
 -3.96240167E-03 -3.91112579E-03  4.84867259E-06 -1.13635420E-05  3.04136243E-05
 -2.22848187E-05 -2.22055622E-05  2.56499882E-05 -6.31247683E-06  6.24171175E-06
  2.70329501E-04 -1.02172913E-05  7.30930790E-05 -3.64722428E-06 -1.22260094E-05
  2.35631006E-06  1.80334311E-05  1.77804353E-06 -9.64930688E-06 -3.27409525E-06
  1.13679455E-05  4.82621520E-05  8.02771025E-06 -5.80937841E-06 -7.69752967E-06
 -5.04638773E-04 -2.46262272E-04  1.34998269E-04  4.32013999E-05  3.89654246E-06
  3.44329718E-05  2.48901161E-05  6.23468377E-06  1.58619787E-06  1.98159541E-06
 -1.44372897E-05 -4.85012556E-05 -1.27291291E-05  5.96519672E-05 -3.12235766E-05
  3.09594650E-04  6.96042469E-05 -7.25884494E-05  7.13978819E-05  3.30368624E-07
 -7.84067501E-05 -5.22822029E-05  2.80894473E-06  2.12461965E-06  8.45203636E-06
  2.49775682E-06  3.97199712E-05 -2.88717225E-06 -1.36908889E-05  5.37557504E-06
  2.06621500E-04 -3.09488207E-04  5.54836586E-04  6.70874638E-07 -5.01795483E-05
  8.04357149E-06 -3.06204519E-06 -6.84215481E-06 -1.97129471E-05 -4.26454749E-06
  6.67292496E-07  6.42879491E-06  3.02350781E-06 -2.82279985E-06  1.70315579E-06
 -1.15082188E-05  3.51183299E-05  2.12864149E-05 -1.47193553E-05 -4.22145813E-07
 -4.94378815E-06  1.84383117E-06 -7.78588876E-06 -1.00356561E-06 -5.02024330E-07
  8.77601337E-07  3.14264432E-06  4.38010025E-06 -2.73853661E-06 -1.23140446E-06
 -3.78006065E-05 -1.80574538E-05 -2.88266734E-05 -1.23567188E-05  4.02370969E-06
 -1.68145947E-06  2.46092070E-06 -2.74018416E-06 -2.10802888E-06 -1.89805612E-06
 -3.75762182E-07  3.67685957E-04  2.48468637E-04 -2.39465018E-04  1.13418033E-04