11651269                                                                
Freq      RMP2-FC                                                     6-31G(d)            
Number of atoms                            I               26
Info1-9                                    I   N=           9
          38          36        1002           0           0         100
           6           2           1
Charge                                     I                0
Multiplicity                               I                1
Number of electrons                        I               98
Number of alpha electrons                  I               49
Number of beta electrons                   I               49
Number of basis functions                  I              234
Number of independent functions            I              234
Number of point charges in /Mol/           I                0
Number of translation vectors              I                0
Atomic numbers                             I   N=          26
           7           7           6           6           6           6
           6           6           6           6           6           6
           6           6           1           1           1           1
           1           1           1           1           1           1
           1           1
Nuclear charges                            R   N=          26
  7.00000000E+00  7.00000000E+00  6.00000000E+00  6.00000000E+00  6.00000000E+00
  6.00000000E+00  6.00000000E+00  6.00000000E+00  6.00000000E+00  6.00000000E+00
  6.00000000E+00  6.00000000E+00  6.00000000E+00  6.00000000E+00  1.00000000E+00
  1.00000000E+00  1.00000000E+00  1.00000000E+00  1.00000000E+00  1.00000000E+00
  1.00000000E+00  1.00000000E+00  1.00000000E+00  1.00000000E+00  1.00000000E+00
  1.00000000E+00
Current cartesian coordinates              R   N=          78
  1.28158667E-01  1.80209621E+00  5.71238890E-01  4.49522530E+00  1.80685377E+00
  4.17078398E-01 -2.26598197E+00  6.47555822E-01  2.57672055E-01  2.34998920E+00
  4.61522548E-01  1.54723818E-01  2.64958320E-01  4.55850502E+00  6.29427930E-01
 -2.99872875E+00 -1.32149417E+00  1.87494809E+00 -3.94905102E+00  1.50323725E+00
 -1.60043809E+00  2.36162989E+00 -2.12318784E+00 -5.14463703E-01 -5.36733532E+00
 -2.44341439E+00  1.60397648E+00 -6.33617487E+00  4.04052173E-01 -1.82852526E+00
 -7.04886061E+00 -1.57932460E+00 -2.40830961E-01  4.67281062E+00 -3.31133606E+00
 -8.55105968E-01  6.70637597E+00  5.99401173E-01  7.64890892E-02  6.91282686E+00
 -1.94487604E+00 -5.39018341E-01  1.68454374E+00  5.14524153E+00  2.00200873E+00
 -1.58699731E+00  5.26635480E+00  1.19431835E+00  7.87116012E-01  5.36034796E+00
 -1.21024339E+00 -1.70610494E+00 -1.93115869E+00  3.35157665E+00 -3.37556128E+00
  3.01405953E+00 -2.86981500E+00  6.11646533E-01 -3.14851008E+00 -8.01597220E-01
 -5.91941600E+00 -3.96698543E+00  2.86800203E+00 -7.63246127E+00  1.08443028E+00
 -3.27091841E+00 -8.90398708E+00 -2.44033683E+00 -4.32431698E-01  4.72499095E+00
 -5.29767808E+00 -1.38197578E+00  8.38592587E+00  1.76644935E+00  3.10178136E-01
  8.75186704E+00 -2.81870941E+00 -7.90454264E-01
Force Field                                I                0
Int Atom Types                             I   N=          26
           0           0           0           0           0           0
           0           0           0           0           0           0
           0           0           0           0           0           0
           0           0           0           0           0           0
           0           0
MM charges                                 R   N=          26
  0.00000000E+00  0.00000000E+00  0.00000000E+00  0.00000000E+00  0.00000000E+00
  0.00000000E+00  0.00000000E+00  0.00000000E+00  0.00000000E+00  0.00000000E+00
  0.00000000E+00  0.00000000E+00  0.00000000E+00  0.00000000E+00  0.00000000E+00
  0.00000000E+00  0.00000000E+00  0.00000000E+00  0.00000000E+00  0.00000000E+00
  0.00000000E+00  0.00000000E+00  0.00000000E+00  0.00000000E+00  0.00000000E+00
  0.00000000E+00
Integer atomic weights                     I   N=          26
          14          14          12          12          12          12
          12          12          12          12          12          12
          12          12           1           1           1           1
           1           1           1           1           1           1
           1           1
Real atomic weights                        R   N=          26
  1.40030740E+01  1.40030740E+01  1.20000000E+01  1.20000000E+01  1.20000000E+01
  1.20000000E+01  1.20000000E+01  1.20000000E+01  1.20000000E+01  1.20000000E+01
  1.20000000E+01  1.20000000E+01  1.20000000E+01  1.20000000E+01  1.00782504E+00
  1.00782504E+00  1.00782504E+00  1.00782504E+00  1.00782504E+00  1.00782504E+00
  1.00782504E+00  1.00782504E+00  1.00782504E+00  1.00782504E+00  1.00782504E+00
  1.00782504E+00
Atom fragment info                         I   N=          26
           0           0           0           0           0           0
           0           0           0           0           0           0
           0           0           0           0           0           0
           0           0           0           0           0           0
           0           0
Atom residue num                           I   N=          26
           0           0           0           0           0           0
           0           0           0           0           0           0
           0           0           0           0           0           0
           0           0           0           0           0           0
           0           0
Nuclear spins                              I   N=          26
           2           2           0           0           0           0
           0           0           0           0           0           0
           0           0           1           1           1           1
           1           1           1           1           1           1
           1           1
Nuclear ZEff                               R   N=          26
 -4.55000000E+00 -4.55000000E+00 -3.60000000E+00 -3.60000000E+00 -3.60000000E+00
 -3.60000000E+00 -3.60000000E+00 -3.60000000E+00 -3.60000000E+00 -3.60000000E+00
 -3.60000000E+00 -3.60000000E+00 -3.60000000E+00 -3.60000000E+00 -1.00000000E+00
 -1.00000000E+00 -1.00000000E+00 -1.00000000E+00 -1.00000000E+00 -1.00000000E+00
 -1.00000000E+00 -1.00000000E+00 -1.00000000E+00 -1.00000000E+00 -1.00000000E+00
 -1.00000000E+00
Nuclear QMom                               R   N=          26
  2.04400000E+00  2.04400000E+00  0.00000000E+00  0.00000000E+00  0.00000000E+00
  0.00000000E+00  0.00000000E+00  0.00000000E+00  0.00000000E+00  0.00000000E+00
  0.00000000E+00  0.00000000E+00  0.00000000E+00  0.00000000E+00  0.00000000E+00
  0.00000000E+00  0.00000000E+00  0.00000000E+00  0.00000000E+00  0.00000000E+00
  0.00000000E+00  0.00000000E+00  0.00000000E+00  0.00000000E+00  0.00000000E+00
  0.00000000E+00
Nuclear GFac                               R   N=          26
  4.03761000E-01  4.03761000E-01  0.00000000E+00  0.00000000E+00  0.00000000E+00
  0.00000000E+00  0.00000000E+00  0.00000000E+00  0.00000000E+00  0.00000000E+00
  0.00000000E+00  0.00000000E+00  0.00000000E+00  0.00000000E+00  2.79284600E+00
  2.79284600E+00  2.79284600E+00  2.79284600E+00  2.79284600E+00  2.79284600E+00
  2.79284600E+00  2.79284600E+00  2.79284600E+00  2.79284600E+00  2.79284600E+00
  2.79284600E+00
MicOpt                                     I   N=          26
          -1          -1          -1          -1          -1          -1
          -1          -1          -1          -1          -1          -1
          -1          -1          -1          -1          -1          -1
          -1          -1          -1          -1          -1          -1
          -1          -1
Number of contracted shells                I               80
Number of primitive shells                 I              202
Pure/Cartesian d shells                    I                1
Pure/Cartesian f shells                    I                0
Highest angular momentum                   I                2
Largest degree of contraction              I                6
Shell types                                I   N=          80
           0          -1          -1           2           0          -1
          -1           2           0          -1          -1           2
           0          -1          -1           2           0          -1
          -1           2           0          -1          -1           2
           0          -1          -1           2           0          -1
          -1           2           0          -1          -1           2
           0          -1          -1           2           0          -1
          -1           2           0          -1          -1           2
           0          -1          -1           2           0          -1
          -1           2           0           0           0           0
           0           0           0           0           0           0
           0           0           0           0           0           0
           0           0           0           0           0           0
           0           0
Number of primitives per shell             I   N=          80
           6           3           1           1           6           3
           1           1           6           3           1           1
           6           3           1           1           6           3
           1           1           6           3           1           1
           6           3           1           1           6           3
           1           1           6           3           1           1
           6           3           1           1           6           3
           1           1           6           3           1           1
           6           3           1           1           6           3
           1           1           3           1           3           1
           3           1           3           1           3           1
           3           1           3           1           3           1
           3           1           3           1           3           1
           3           1
Shell to atom map                          I   N=          80
           1           1           1           1           2           2
           2           2           3           3           3           3
           4           4           4           4           5           5
           5           5           6           6           6           6
           7           7           7           7           8           8
           8           8           9           9           9           9
          10          10          10          10          11          11
          11          11          12          12          12          12
          13          13          13          13          14          14
          14          14          15          15          16          16
          17          17          18          18          19          19
          20          20          21          21          22          22
          23          23          24          24          25          25
          26          26
Primitive exponents                        R   N=         202
  4.17351146E+03  6.27457911E+02  1.42902093E+02  4.02343293E+01  1.28202129E+01
  4.39043701E+00  1.16263619E+01  2.71627981E+00  7.72218397E-01  2.12031498E-01
  8.00000000E-01  4.17351146E+03  6.27457911E+02  1.42902093E+02  4.02343293E+01
  1.28202129E+01  4.39043701E+00  1.16263619E+01  2.71627981E+00  7.72218397E-01
  2.12031498E-01  8.00000000E-01  3.04752488E+03  4.57369518E+02  1.03948685E+02
  2.92101553E+01  9.28666296E+00  3.16392696E+00  7.86827235E+00  1.88128854E+00
  5.44249258E-01  1.68714478E-01  8.00000000E-01  3.04752488E+03  4.57369518E+02
  1.03948685E+02  2.92101553E+01  9.28666296E+00  3.16392696E+00  7.86827235E+00
  1.88128854E+00  5.44249258E-01  1.68714478E-01  8.00000000E-01  3.04752488E+03
  4.57369518E+02  1.03948685E+02  2.92101553E+01  9.28666296E+00  3.16392696E+00
  7.86827235E+00  1.88128854E+00  5.44249258E-01  1.68714478E-01  8.00000000E-01
  3.04752488E+03  4.57369518E+02  1.03948685E+02  2.92101553E+01  9.28666296E+00
  3.16392696E+00  7.86827235E+00  1.88128854E+00  5.44249258E-01  1.68714478E-01
  8.00000000E-01  3.04752488E+03  4.57369518E+02  1.03948685E+02  2.92101553E+01
  9.28666296E+00  3.16392696E+00  7.86827235E+00  1.88128854E+00  5.44249258E-01
  1.68714478E-01  8.00000000E-01  3.04752488E+03  4.57369518E+02  1.03948685E+02
  2.92101553E+01  9.28666296E+00  3.16392696E+00  7.86827235E+00  1.88128854E+00
  5.44249258E-01  1.68714478E-01  8.00000000E-01  3.04752488E+03  4.57369518E+02
  1.03948685E+02  2.92101553E+01  9.28666296E+00  3.16392696E+00  7.86827235E+00
  1.88128854E+00  5.44249258E-01  1.68714478E-01  8.00000000E-01  3.04752488E+03
  4.57369518E+02  1.03948685E+02  2.92101553E+01  9.28666296E+00  3.16392696E+00
  7.86827235E+00  1.88128854E+00  5.44249258E-01  1.68714478E-01  8.00000000E-01
  3.04752488E+03  4.57369518E+02  1.03948685E+02  2.92101553E+01  9.28666296E+00
  3.16392696E+00  7.86827235E+00  1.88128854E+00  5.44249258E-01  1.68714478E-01
  8.00000000E-01  3.04752488E+03  4.57369518E+02  1.03948685E+02  2.92101553E+01
  9.28666296E+00  3.16392696E+00  7.86827235E+00  1.88128854E+00  5.44249258E-01
  1.68714478E-01  8.00000000E-01  3.04752488E+03  4.57369518E+02  1.03948685E+02
  2.92101553E+01  9.28666296E+00  3.16392696E+00  7.86827235E+00  1.88128854E+00
  5.44249258E-01  1.68714478E-01  8.00000000E-01  3.04752488E+03  4.57369518E+02
  1.03948685E+02  2.92101553E+01  9.28666296E+00  3.16392696E+00  7.86827235E+00
  1.88128854E+00  5.44249258E-01  1.68714478E-01  8.00000000E-01  1.87311370E+01
  2.82539436E+00  6.40121692E-01  1.61277759E-01  1.87311370E+01  2.82539436E+00
  6.40121692E-01  1.61277759E-01  1.87311370E+01  2.82539436E+00  6.40121692E-01
  1.61277759E-01  1.87311370E+01  2.82539436E+00  6.40121692E-01  1.61277759E-01
  1.87311370E+01  2.82539436E+00  6.40121692E-01  1.61277759E-01  1.87311370E+01
  2.82539436E+00  6.40121692E-01  1.61277759E-01  1.87311370E+01  2.82539436E+00
  6.40121692E-01  1.61277759E-01  1.87311370E+01  2.82539436E+00  6.40121692E-01
  1.61277759E-01  1.87311370E+01  2.82539436E+00  6.40121692E-01  1.61277759E-01
  1.87311370E+01  2.82539436E+00  6.40121692E-01  1.61277759E-01  1.87311370E+01
  2.82539436E+00  6.40121692E-01  1.61277759E-01  1.87311370E+01  2.82539436E+00
  6.40121692E-01  1.61277759E-01
Contraction coefficients                   R   N=         202
  1.83477216E-03  1.39946270E-02  6.85865518E-02  2.32240873E-01  4.69069948E-01
  3.60455199E-01 -1.14961182E-01 -1.69117479E-01  1.14585195E+00  1.00000000E+00
  1.00000000E+00  1.83477216E-03  1.39946270E-02  6.85865518E-02  2.32240873E-01
  4.69069948E-01  3.60455199E-01 -1.14961182E-01 -1.69117479E-01  1.14585195E+00
  1.00000000E+00  1.00000000E+00  1.83473713E-03  1.40373228E-02  6.88426223E-02
  2.32184443E-01  4.67941348E-01  3.62311985E-01 -1.19332420E-01 -1.60854152E-01
  1.14345644E+00  1.00000000E+00  1.00000000E+00  1.83473713E-03  1.40373228E-02
  6.88426223E-02  2.32184443E-01  4.67941348E-01  3.62311985E-01 -1.19332420E-01
 -1.60854152E-01  1.14345644E+00  1.00000000E+00  1.00000000E+00  1.83473713E-03
  1.40373228E-02  6.88426223E-02  2.32184443E-01  4.67941348E-01  3.62311985E-01
 -1.19332420E-01 -1.60854152E-01  1.14345644E+00  1.00000000E+00  1.00000000E+00
  1.83473713E-03  1.40373228E-02  6.88426223E-02  2.32184443E-01  4.67941348E-01
  3.62311985E-01 -1.19332420E-01 -1.60854152E-01  1.14345644E+00  1.00000000E+00
  1.00000000E+00  1.83473713E-03  1.40373228E-02  6.88426223E-02  2.32184443E-01
  4.67941348E-01  3.62311985E-01 -1.19332420E-01 -1.60854152E-01  1.14345644E+00
  1.00000000E+00  1.00000000E+00  1.83473713E-03  1.40373228E-02  6.88426223E-02
  2.32184443E-01  4.67941348E-01  3.62311985E-01 -1.19332420E-01 -1.60854152E-01
  1.14345644E+00  1.00000000E+00  1.00000000E+00  1.83473713E-03  1.40373228E-02
  6.88426223E-02  2.32184443E-01  4.67941348E-01  3.62311985E-01 -1.19332420E-01
 -1.60854152E-01  1.14345644E+00  1.00000000E+00  1.00000000E+00  1.83473713E-03
  1.40373228E-02  6.88426223E-02  2.32184443E-01  4.67941348E-01  3.62311985E-01
 -1.19332420E-01 -1.60854152E-01  1.14345644E+00  1.00000000E+00  1.00000000E+00
  1.83473713E-03  1.40373228E-02  6.88426223E-02  2.32184443E-01  4.67941348E-01
  3.62311985E-01 -1.19332420E-01 -1.60854152E-01  1.14345644E+00  1.00000000E+00
  1.00000000E+00  1.83473713E-03  1.40373228E-02  6.88426223E-02  2.32184443E-01
  4.67941348E-01  3.62311985E-01 -1.19332420E-01 -1.60854152E-01  1.14345644E+00
  1.00000000E+00  1.00000000E+00  1.83473713E-03  1.40373228E-02  6.88426223E-02
  2.32184443E-01  4.67941348E-01  3.62311985E-01 -1.19332420E-01 -1.60854152E-01
  1.14345644E+00  1.00000000E+00  1.00000000E+00  1.83473713E-03  1.40373228E-02
  6.88426223E-02  2.32184443E-01  4.67941348E-01  3.62311985E-01 -1.19332420E-01
 -1.60854152E-01  1.14345644E+00  1.00000000E+00  1.00000000E+00  3.34946043E-02
  2.34726953E-01  8.13757326E-01  1.00000000E+00  3.34946043E-02  2.34726953E-01
  8.13757326E-01  1.00000000E+00  3.34946043E-02  2.34726953E-01  8.13757326E-01
  1.00000000E+00  3.34946043E-02  2.34726953E-01  8.13757326E-01  1.00000000E+00
  3.34946043E-02  2.34726953E-01  8.13757326E-01  1.00000000E+00  3.34946043E-02
  2.34726953E-01  8.13757326E-01  1.00000000E+00  3.34946043E-02  2.34726953E-01
  8.13757326E-01  1.00000000E+00  3.34946043E-02  2.34726953E-01  8.13757326E-01
  1.00000000E+00  3.34946043E-02  2.34726953E-01  8.13757326E-01  1.00000000E+00
  3.34946043E-02  2.34726953E-01  8.13757326E-01  1.00000000E+00  3.34946043E-02
  2.34726953E-01  8.13757326E-01  1.00000000E+00  3.34946043E-02  2.34726953E-01
  8.13757326E-01  1.00000000E+00
P(S=P) Contraction coefficients            R   N=         202
  0.00000000E+00  0.00000000E+00  0.00000000E+00  0.00000000E+00  0.00000000E+00
  0.00000000E+00  6.75797439E-02  3.23907296E-01  7.40895140E-01  1.00000000E+00
  0.00000000E+00  0.00000000E+00  0.00000000E+00  0.00000000E+00  0.00000000E+00
  0.00000000E+00  0.00000000E+00  6.75797439E-02  3.23907296E-01  7.40895140E-01
  1.00000000E+00  0.00000000E+00  0.00000000E+00  0.00000000E+00  0.00000000E+00
  0.00000000E+00  0.00000000E+00  0.00000000E+00  6.89990666E-02  3.16423961E-01
  7.44308291E-01  1.00000000E+00  0.00000000E+00  0.00000000E+00  0.00000000E+00
  0.00000000E+00  0.00000000E+00  0.00000000E+00  0.00000000E+00  6.89990666E-02
  3.16423961E-01  7.44308291E-01  1.00000000E+00  0.00000000E+00  0.00000000E+00
  0.00000000E+00  0.00000000E+00  0.00000000E+00  0.00000000E+00  0.00000000E+00
  6.89990666E-02  3.16423961E-01  7.44308291E-01  1.00000000E+00  0.00000000E+00
  0.00000000E+00  0.00000000E+00  0.00000000E+00  0.00000000E+00  0.00000000E+00
  0.00000000E+00  6.89990666E-02  3.16423961E-01  7.44308291E-01  1.00000000E+00
  0.00000000E+00  0.00000000E+00  0.00000000E+00  0.00000000E+00  0.00000000E+00
  0.00000000E+00  0.00000000E+00  6.89990666E-02  3.16423961E-01  7.44308291E-01
  1.00000000E+00  0.00000000E+00  0.00000000E+00  0.00000000E+00  0.00000000E+00
  0.00000000E+00  0.00000000E+00  0.00000000E+00  6.89990666E-02  3.16423961E-01
  7.44308291E-01  1.00000000E+00  0.00000000E+00  0.00000000E+00  0.00000000E+00
  0.00000000E+00  0.00000000E+00  0.00000000E+00  0.00000000E+00  6.89990666E-02
  3.16423961E-01  7.44308291E-01  1.00000000E+00  0.00000000E+00  0.00000000E+00
  0.00000000E+00  0.00000000E+00  0.00000000E+00  0.00000000E+00  0.00000000E+00
  6.89990666E-02  3.16423961E-01  7.44308291E-01  1.00000000E+00  0.00000000E+00
  0.00000000E+00  0.00000000E+00  0.00000000E+00  0.00000000E+00  0.00000000E+00
  0.00000000E+00  6.89990666E-02  3.16423961E-01  7.44308291E-01  1.00000000E+00
  0.00000000E+00  0.00000000E+00  0.00000000E+00  0.00000000E+00  0.00000000E+00
  0.00000000E+00  0.00000000E+00  6.89990666E-02  3.16423961E-01  7.44308291E-01
  1.00000000E+00  0.00000000E+00  0.00000000E+00  0.00000000E+00  0.00000000E+00
  0.00000000E+00  0.00000000E+00  0.00000000E+00  6.89990666E-02  3.16423961E-01
  7.44308291E-01  1.00000000E+00  0.00000000E+00  0.00000000E+00  0.00000000E+00
  0.00000000E+00  0.00000000E+00  0.00000000E+00  0.00000000E+00  6.89990666E-02
  3.16423961E-01  7.44308291E-01  1.00000000E+00  0.00000000E+00  0.00000000E+00
  0.00000000E+00  0.00000000E+00  0.00000000E+00  0.00000000E+00  0.00000000E+00
  0.00000000E+00  0.00000000E+00  0.00000000E+00  0.00000000E+00  0.00000000E+00
  0.00000000E+00  0.00000000E+00  0.00000000E+00  0.00000000E+00  0.00000000E+00
  0.00000000E+00  0.00000000E+00  0.00000000E+00  0.00000000E+00  0.00000000E+00
  0.00000000E+00  0.00000000E+00  0.00000000E+00  0.00000000E+00  0.00000000E+00
  0.00000000E+00  0.00000000E+00  0.00000000E+00  0.00000000E+00  0.00000000E+00
  0.00000000E+00  0.00000000E+00  0.00000000E+00  0.00000000E+00  0.00000000E+00
  0.00000000E+00  0.00000000E+00  0.00000000E+00  0.00000000E+00  0.00000000E+00
  0.00000000E+00  0.00000000E+00  0.00000000E+00  0.00000000E+00  0.00000000E+00
  0.00000000E+00  0.00000000E+00
Coordinates of each shell                  R   N=         240
  1.28158667E-01  1.80209621E+00  5.71238890E-01  1.28158667E-01  1.80209621E+00
  5.71238890E-01  1.28158667E-01  1.80209621E+00  5.71238890E-01  1.28158667E-01
  1.80209621E+00  5.71238890E-01  4.49522530E+00  1.80685377E+00  4.17078398E-01
  4.49522530E+00  1.80685377E+00  4.17078398E-01  4.49522530E+00  1.80685377E+00
  4.17078398E-01  4.49522530E+00  1.80685377E+00  4.17078398E-01 -2.26598197E+00
  6.47555822E-01  2.57672055E-01 -2.26598197E+00  6.47555822E-01  2.57672055E-01
 -2.26598197E+00  6.47555822E-01  2.57672055E-01 -2.26598197E+00  6.47555822E-01
  2.57672055E-01  2.34998920E+00  4.61522548E-01  1.54723818E-01  2.34998920E+00
  4.61522548E-01  1.54723818E-01  2.34998920E+00  4.61522548E-01  1.54723818E-01
  2.34998920E+00  4.61522548E-01  1.54723818E-01  2.64958320E-01  4.55850502E+00
  6.29427930E-01  2.64958320E-01  4.55850502E+00  6.29427930E-01  2.64958320E-01
  4.55850502E+00  6.29427930E-01  2.64958320E-01  4.55850502E+00  6.29427930E-01
 -2.99872875E+00 -1.32149417E+00  1.87494809E+00 -2.99872875E+00 -1.32149417E+00
  1.87494809E+00 -2.99872875E+00 -1.32149417E+00  1.87494809E+00 -2.99872875E+00
 -1.32149417E+00  1.87494809E+00 -3.94905102E+00  1.50323725E+00 -1.60043809E+00
 -3.94905102E+00  1.50323725E+00 -1.60043809E+00 -3.94905102E+00  1.50323725E+00
 -1.60043809E+00 -3.94905102E+00  1.50323725E+00 -1.60043809E+00  2.36162989E+00
 -2.12318784E+00 -5.14463703E-01  2.36162989E+00 -2.12318784E+00 -5.14463703E-01
  2.36162989E+00 -2.12318784E+00 -5.14463703E-01  2.36162989E+00 -2.12318784E+00
 -5.14463703E-01 -5.36733532E+00 -2.44341439E+00  1.60397648E+00 -5.36733532E+00
 -2.44341439E+00  1.60397648E+00 -5.36733532E+00 -2.44341439E+00  1.60397648E+00
 -5.36733532E+00 -2.44341439E+00  1.60397648E+00 -6.33617487E+00  4.04052173E-01
 -1.82852526E+00 -6.33617487E+00  4.04052173E-01 -1.82852526E+00 -6.33617487E+00
  4.04052173E-01 -1.82852526E+00 -6.33617487E+00  4.04052173E-01 -1.82852526E+00
 -7.04886061E+00 -1.57932460E+00 -2.40830961E-01 -7.04886061E+00 -1.57932460E+00
 -2.40830961E-01 -7.04886061E+00 -1.57932460E+00 -2.40830961E-01 -7.04886061E+00
 -1.57932460E+00 -2.40830961E-01  4.67281062E+00 -3.31133606E+00 -8.55105968E-01
  4.67281062E+00 -3.31133606E+00 -8.55105968E-01  4.67281062E+00 -3.31133606E+00
 -8.55105968E-01  4.67281062E+00 -3.31133606E+00 -8.55105968E-01  6.70637597E+00
  5.99401173E-01  7.64890892E-02  6.70637597E+00  5.99401173E-01  7.64890892E-02
  6.70637597E+00  5.99401173E-01  7.64890892E-02  6.70637597E+00  5.99401173E-01
  7.64890892E-02  6.91282686E+00 -1.94487604E+00 -5.39018341E-01  6.91282686E+00
 -1.94487604E+00 -5.39018341E-01  6.91282686E+00 -1.94487604E+00 -5.39018341E-01
  6.91282686E+00 -1.94487604E+00 -5.39018341E-01  1.68454374E+00  5.14524153E+00
  2.00200873E+00  1.68454374E+00  5.14524153E+00  2.00200873E+00 -1.58699731E+00
  5.26635480E+00  1.19431835E+00 -1.58699731E+00  5.26635480E+00  1.19431835E+00
  7.87116012E-01  5.36034796E+00 -1.21024339E+00  7.87116012E-01  5.36034796E+00
 -1.21024339E+00 -1.70610494E+00 -1.93115869E+00  3.35157665E+00 -1.70610494E+00
 -1.93115869E+00  3.35157665E+00 -3.37556128E+00  3.01405953E+00 -2.86981500E+00
 -3.37556128E+00  3.01405953E+00 -2.86981500E+00  6.11646533E-01 -3.14851008E+00
 -8.01597220E-01  6.11646533E-01 -3.14851008E+00 -8.01597220E-01 -5.91941600E+00
 -3.96698543E+00  2.86800203E+00 -5.91941600E+00 -3.96698543E+00  2.86800203E+00
 -7.63246127E+00  1.08443028E+00 -3.27091841E+00 -7.63246127E+00  1.08443028E+00
 -3.27091841E+00 -8.90398708E+00 -2.44033683E+00 -4.32431698E-01 -8.90398708E+00
 -2.44033683E+00 -4.32431698E-01  4.72499095E+00 -5.29767808E+00 -1.38197578E+00
  4.72499095E+00 -5.29767808E+00 -1.38197578E+00  8.38592587E+00  1.76644935E+00
  3.10178136E-01  8.38592587E+00  1.76644935E+00  3.10178136E-01  8.75186704E+00
 -2.81870941E+00 -7.90454264E-01  8.75186704E+00 -2.81870941E+00 -7.90454264E-01
Constraint Structure                       R   N=          78
  1.28158667E-01  1.80209621E+00  5.71238890E-01  4.49522530E+00  1.80685377E+00
  4.17078398E-01 -2.26598197E+00  6.47555822E-01  2.57672055E-01  2.34998920E+00
  4.61522548E-01  1.54723818E-01  2.64958320E-01  4.55850502E+00  6.29427930E-01
 -2.99872875E+00 -1.32149417E+00  1.87494809E+00 -3.94905102E+00  1.50323725E+00
 -1.60043809E+00  2.36162989E+00 -2.12318784E+00 -5.14463703E-01 -5.36733532E+00
 -2.44341439E+00  1.60397648E+00 -6.33617487E+00  4.04052173E-01 -1.82852526E+00
 -7.04886061E+00 -1.57932460E+00 -2.40830961E-01  4.67281062E+00 -3.31133606E+00
 -8.55105968E-01  6.70637597E+00  5.99401173E-01  7.64890892E-02  6.91282686E+00
 -1.94487604E+00 -5.39018341E-01  1.68454374E+00  5.14524153E+00  2.00200873E+00
 -1.58699731E+00  5.26635480E+00  1.19431835E+00  7.87116012E-01  5.36034796E+00
 -1.21024339E+00 -1.70610494E+00 -1.93115869E+00  3.35157665E+00 -3.37556128E+00
  3.01405953E+00 -2.86981500E+00  6.11646533E-01 -3.14851008E+00 -8.01597220E-01
 -5.91941600E+00 -3.96698543E+00  2.86800203E+00 -7.63246127E+00  1.08443028E+00
 -3.27091841E+00 -8.90398708E+00 -2.44033683E+00 -4.32431698E-01  4.72499095E+00
 -5.29767808E+00 -1.38197578E+00  8.38592587E+00  1.76644935E+00  3.10178136E-01
  8.75186704E+00 -2.81870941E+00 -7.90454264E-01
Num ILSW                                   I              100
ILSW                                       I   N=         100
           0           1           0           0           2           0
           0           0           0           0           0          -1
           0           0           0           0           0           0
           0           0           0           0           1           0
           1           0           0           0           0           0
           0           0      100000           0          -1           0
           0           0           0           0           0           0
           0           0           0           1           1           0
           0           0           1           0           0           0
           0           0           4          40           0           0
           0           0           0           0           0           0
           0           0           0           0           0           0
           0           0           0           0           0           0
           0           0           0           0           0           0
           0           0           0           0           0           0
           0           0           0           0           0           0
           0           0           0           0
Num RLSW                                   I               40
RLSW                                       R   N=          40
  1.00000000E+00  1.00000000E+00  1.00000000E+00  1.00000000E+00  1.00000000E+00
  0.00000000E+00  0.00000000E+00  1.00000000E+00  0.00000000E+00  0.00000000E+00
  0.00000000E+00  0.00000000E+00  1.00000000E+00  0.00000000E+00  0.00000000E+00
  0.00000000E+00  0.00000000E+00  1.00000000E+00  0.00000000E+00  0.00000000E+00
  0.00000000E+00  0.00000000E+00  1.00000000E+00  0.00000000E+00  0.00000000E+00
  0.00000000E+00  0.00000000E+00  1.00000000E+00  0.00000000E+00  0.00000000E+00
  0.00000000E+00  0.00000000E+00  0.00000000E+00  0.00000000E+00  0.00000000E+00
  0.00000000E+00  0.00000000E+00  0.00000000E+00  1.00000000E+00  1.00000000E+00
MxBond                                     I                4
NBond                                      I   N=          26
           3           2           3           3           4           3
           3           3           3           3           3           3
           3           3           1           1           1           1
           1           1           1           1           1           1
           1           1
IBond                                      I   N=         104
           3           4           5           0           4          13
           0           0           1           6           7           0
           1           2           8           0           1          15
          16          17           3           9          18           0
           3          10          19           0           4          12
          20           0           6          11          21           0
           7          11          22           0           9          10
          23           0           8          14          24           0
           2          14          25           0          12          13