155_EthylThiocyanate Gaussian SP Calculation on g2-node38.bme.utexas.edu
Freq      RMP2-FC                                                     6-31G(d)            
Number of atoms                            I               10
Info1-9                                    I   N=           9
          21          20        1002           0           0         100
           6           2           1
Charge                                     I                0
Multiplicity                               I                1
Number of electrons                        I               46
Number of alpha electrons                  I               23
Number of beta electrons                   I               23
Number of basis functions                  I               89
Number of independent functions            I               89
Number of point charges in /Mol/           I                0
Number of translation vectors              I                0
Atomic numbers                             I   N=          10
          16           7           6           6           6           1
           1           1           1           1
Nuclear charges                            R   N=          10
  1.60000000E+01  7.00000000E+00  6.00000000E+00  6.00000000E+00  6.00000000E+00
  1.00000000E+00  1.00000000E+00  1.00000000E+00  1.00000000E+00  1.00000000E+00
Current cartesian coordinates              R   N=          30
  2.39179977E-01 -1.46350577E+00 -6.16382005E-06  5.03531968E+00  1.11728304E+00
  1.43709905E-05 -1.85856606E+00  1.29002102E+00 -2.58654592E-05 -4.58115040E+00
  3.57820138E-01  2.14794991E-05  3.05164974E+00  7.37807746E-02  3.37834997E-06
 -1.45806542E+00  2.41944852E+00  1.67912596E+00 -1.45809970E+00  2.41940037E+00
 -1.67921905E+00 -4.98566856E+00 -7.77267825E-01 -1.67687131E+00 -4.98565360E+00
 -7.77155090E-01  1.67699504E+00 -5.85822977E+00  1.98095348E+00 -2.65695067E-05
Force Field                                I                0
Int Atom Types                             I   N=          10
           0           0           0           0           0           0
           0           0           0           0
MM charges                                 R   N=          10
  0.00000000E+00  0.00000000E+00  0.00000000E+00  0.00000000E+00  0.00000000E+00
  0.00000000E+00  0.00000000E+00  0.00000000E+00  0.00000000E+00  0.00000000E+00
Integer atomic weights                     I   N=          10
          32          14          12          12          12           1
           1           1           1           1
Real atomic weights                        R   N=          10
  3.19720718E+01  1.40030740E+01  1.20000000E+01  1.20000000E+01  1.20000000E+01
  1.00782504E+00  1.00782504E+00  1.00782504E+00  1.00782504E+00  1.00782504E+00
Atom fragment info                         I   N=          10
           0           0           0           0           0           0
           0           0           0           0
Atom residue num                           I   N=          10
           0           0           0           0           0           0
           0           0           0           0
Nuclear spins                              I   N=          10
           0           2           0           0           0           1
           1           1           1           1
Nuclear ZEff                               R   N=          10
 -1.36000000E+01 -4.55000000E+00 -3.60000000E+00 -3.60000000E+00 -3.60000000E+00
 -1.00000000E+00 -1.00000000E+00 -1.00000000E+00 -1.00000000E+00 -1.00000000E+00
Nuclear QMom                               R   N=          10
  0.00000000E+00  2.04400000E+00  0.00000000E+00  0.00000000E+00  0.00000000E+00
  0.00000000E+00  0.00000000E+00  0.00000000E+00  0.00000000E+00  0.00000000E+00
Nuclear GFac                               R   N=          10
  0.00000000E+00  4.03761000E-01  0.00000000E+00  0.00000000E+00  0.00000000E+00
  2.79284600E+00  2.79284600E+00  2.79284600E+00  2.79284600E+00  2.79284600E+00
MicOpt                                     I   N=          10
          -1          -1          -1          -1          -1          -1
          -1          -1          -1          -1
Number of contracted shells                I               31
Number of primitive shells                 I               81
Pure/Cartesian d shells                    I                1
Pure/Cartesian f shells                    I                0
Highest angular momentum                   I                2
Largest degree of contraction              I                6
Shell types                                I   N=          31
           0          -1          -1          -1           2           0
          -1          -1           2           0          -1          -1
           2           0          -1          -1           2           0
          -1          -1           2           0           0           0
           0           0           0           0           0           0
           0
Number of primitives per shell             I   N=          31
           6           6           3           1           1           6
           3           1           1           6           3           1
           1           6           3           1           1           6
           3           1           1           3           1           3
           1           3           1           3           1           3
           1
Shell to atom map                          I   N=          31
           1           1           1           1           1           2
           2           2           2           3           3           3
           3           4           4           4           4           5
           5           5           5           6           6           7
           7           8           8           9           9          10
          10
Primitive exponents                        R   N=          81
  2.19171000E+04  3.30149000E+03  7.54146000E+02  2.12711000E+02  6.79896000E+01
  2.30515000E+01  4.23735000E+02  1.00710000E+02  3.21599000E+01  1.18079000E+01
  4.63110000E+00  1.87025000E+00  2.61584000E+00  9.22167000E-01  3.41287000E-01
  1.17167000E-01  6.50000000E-01  4.17351146E+03  6.27457911E+02  1.42902093E+02
  4.02343293E+01  1.28202129E+01  4.39043701E+00  1.16263619E+01  2.71627981E+00
  7.72218397E-01  2.12031498E-01  8.00000000E-01  3.04752488E+03  4.57369518E+02
  1.03948685E+02  2.92101553E+01  9.28666296E+00  3.16392696E+00  7.86827235E+00
  1.88128854E+00  5.44249258E-01  1.68714478E-01  8.00000000E-01  3.04752488E+03
  4.57369518E+02  1.03948685E+02  2.92101553E+01  9.28666296E+00  3.16392696E+00
  7.86827235E+00  1.88128854E+00  5.44249258E-01  1.68714478E-01  8.00000000E-01
  3.04752488E+03  4.57369518E+02  1.03948685E+02  2.92101553E+01  9.28666296E+00
  3.16392696E+00  7.86827235E+00  1.88128854E+00  5.44249258E-01  1.68714478E-01
  8.00000000E-01  1.87311370E+01  2.82539436E+00  6.40121692E-01  1.61277759E-01
  1.87311370E+01  2.82539436E+00  6.40121692E-01  1.61277759E-01  1.87311370E+01
  2.82539436E+00  6.40121692E-01  1.61277759E-01  1.87311370E+01  2.82539436E+00
  6.40121692E-01  1.61277759E-01  1.87311370E+01  2.82539436E+00  6.40121692E-01
  1.61277759E-01
Contraction coefficients                   R   N=          81
  1.86924085E-03  1.42303065E-02  6.96962317E-02  2.38487108E-01  4.83307220E-01
  3.38074154E-01 -2.37677050E-03 -3.16930067E-02 -1.13317024E-01  5.60900118E-02
  5.92255124E-01  4.55006095E-01 -2.50373114E-01  6.69567631E-02  1.05450627E+00
  1.00000000E+00  1.00000000E+00  1.83477216E-03  1.39946270E-02  6.85865518E-02
  2.32240873E-01  4.69069948E-01  3.60455199E-01 -1.14961182E-01 -1.69117479E-01
  1.14585195E+00  1.00000000E+00  1.00000000E+00  1.83473713E-03  1.40373228E-02
  6.88426223E-02  2.32184443E-01  4.67941348E-01  3.62311985E-01 -1.19332420E-01
 -1.60854152E-01  1.14345644E+00  1.00000000E+00  1.00000000E+00  1.83473713E-03
  1.40373228E-02  6.88426223E-02  2.32184443E-01  4.67941348E-01  3.62311985E-01
 -1.19332420E-01 -1.60854152E-01  1.14345644E+00  1.00000000E+00  1.00000000E+00
  1.83473713E-03  1.40373228E-02  6.88426223E-02  2.32184443E-01  4.67941348E-01
  3.62311985E-01 -1.19332420E-01 -1.60854152E-01  1.14345644E+00  1.00000000E+00
  1.00000000E+00  3.34946043E-02  2.34726953E-01  8.13757326E-01  1.00000000E+00
  3.34946043E-02  2.34726953E-01  8.13757326E-01  1.00000000E+00  3.34946043E-02
  2.34726953E-01  8.13757326E-01  1.00000000E+00  3.34946043E-02  2.34726953E-01
  8.13757326E-01  1.00000000E+00  3.34946043E-02  2.34726953E-01  8.13757326E-01
  1.00000000E+00
P(S=P) Contraction coefficients            R   N=          81
  0.00000000E+00  0.00000000E+00  0.00000000E+00  0.00000000E+00  0.00000000E+00
  0.00000000E+00  4.06100998E-03  3.06812999E-02  1.30451999E-01  3.27204999E-01
  4.52850998E-01  2.56041999E-01 -1.45104895E-02  3.10262776E-01  7.54482456E-01
  1.00000000E+00  0.00000000E+00  0.00000000E+00  0.00000000E+00  0.00000000E+00
  0.00000000E+00  0.00000000E+00  0.00000000E+00  6.75797439E-02  3.23907296E-01
  7.40895140E-01  1.00000000E+00  0.00000000E+00  0.00000000E+00  0.00000000E+00
  0.00000000E+00  0.00000000E+00  0.00000000E+00  0.00000000E+00  6.89990666E-02
  3.16423961E-01  7.44308291E-01  1.00000000E+00  0.00000000E+00  0.00000000E+00
  0.00000000E+00  0.00000000E+00  0.00000000E+00  0.00000000E+00  0.00000000E+00
  6.89990666E-02  3.16423961E-01  7.44308291E-01  1.00000000E+00  0.00000000E+00
  0.00000000E+00  0.00000000E+00  0.00000000E+00  0.00000000E+00  0.00000000E+00
  0.00000000E+00  6.89990666E-02  3.16423961E-01  7.44308291E-01  1.00000000E+00
  0.00000000E+00  0.00000000E+00  0.00000000E+00  0.00000000E+00  0.00000000E+00
  0.00000000E+00  0.00000000E+00  0.00000000E+00  0.00000000E+00  0.00000000E+00
  0.00000000E+00  0.00000000E+00  0.00000000E+00  0.00000000E+00  0.00000000E+00
  0.00000000E+00  0.00000000E+00  0.00000000E+00  0.00000000E+00  0.00000000E+00
  0.00000000E+00
Coordinates of each shell                  R   N=          93
  2.39179977E-01 -1.46350577E+00 -6.16382005E-06  2.39179977E-01 -1.46350577E+00
 -6.16382005E-06  2.39179977E-01 -1.46350577E+00 -6.16382005E-06  2.39179977E-01
 -1.46350577E+00 -6.16382005E-06  2.39179977E-01 -1.46350577E+00 -6.16382005E-06
  5.03531968E+00  1.11728304E+00  1.43709905E-05  5.03531968E+00  1.11728304E+00
  1.43709905E-05  5.03531968E+00  1.11728304E+00  1.43709905E-05  5.03531968E+00
  1.11728304E+00  1.43709905E-05 -1.85856606E+00  1.29002102E+00 -2.58654592E-05
 -1.85856606E+00  1.29002102E+00 -2.58654592E-05 -1.85856606E+00  1.29002102E+00
 -2.58654592E-05 -1.85856606E+00  1.29002102E+00 -2.58654592E-05 -4.58115040E+00
  3.57820138E-01  2.14794991E-05 -4.58115040E+00  3.57820138E-01  2.14794991E-05
 -4.58115040E+00  3.57820138E-01  2.14794991E-05 -4.58115040E+00  3.57820138E-01
  2.14794991E-05  3.05164974E+00  7.37807746E-02  3.37834997E-06  3.05164974E+00
  7.37807746E-02  3.37834997E-06  3.05164974E+00  7.37807746E-02  3.37834997E-06
  3.05164974E+00  7.37807746E-02  3.37834997E-06 -1.45806542E+00  2.41944852E+00
  1.67912596E+00 -1.45806542E+00  2.41944852E+00  1.67912596E+00 -1.45809970E+00
  2.41940037E+00 -1.67921905E+00 -1.45809970E+00  2.41940037E+00 -1.67921905E+00
 -4.98566856E+00 -7.77267825E-01 -1.67687131E+00 -4.98566856E+00 -7.77267825E-01
 -1.67687131E+00 -4.98565360E+00 -7.77155090E-01  1.67699504E+00 -4.98565360E+00
 -7.77155090E-01  1.67699504E+00 -5.85822977E+00  1.98095348E+00 -2.65695067E-05
 -5.85822977E+00  1.98095348E+00 -2.65695067E-05
Constraint Structure                       R   N=          30
  2.39179977E-01 -1.46350577E+00 -6.16382005E-06  5.03531968E+00  1.11728304E+00
  1.43709905E-05 -1.85856606E+00  1.29002102E+00 -2.58654592E-05 -4.58115040E+00
  3.57820138E-01  2.14794991E-05  3.05164974E+00  7.37807746E-02  3.37834997E-06
 -1.45806542E+00  2.41944852E+00  1.67912596E+00 -1.45809970E+00  2.41940037E+00
 -1.67921905E+00 -4.98566856E+00 -7.77267825E-01 -1.67687131E+00 -4.98565360E+00
 -7.77155090E-01  1.67699504E+00 -5.85822977E+00  1.98095348E+00 -2.65695067E-05
Num ILSW                                   I              100
ILSW                                       I   N=         100
           0           1           0           0           2           0
           0           0           0           0           0          -1
           0           0           0           0           0           0
           0           0           0           0           1           0
           1           0           0           0           0           0
           0           0      100000           0          -1           0
           0           0           0           0           0           0
           0           0           0           1           1           0
           0           0           1           0           0           0
           0           0           4          40           0           0
           0           0           0           0           0           0
           0           0           0           0           0           0
           0           0           0           0           0           0
           0           0           0           0           0           0
           0           0           0           0           0           0
           0           0           0           0           0           0
           0           0           0           0
Num RLSW                                   I               40
RLSW                                       R   N=          40
  1.00000000E+00  1.00000000E+00  1.00000000E+00  1.00000000E+00  1.00000000E+00
  0.00000000E+00  0.00000000E+00  1.00000000E+00  0.00000000E+00  0.00000000E+00
  0.00000000E+00  0.00000000E+00  1.00000000E+00  0.00000000E+00  0.00000000E+00
  0.00000000E+00  0.00000000E+00  1.00000000E+00  0.00000000E+00  0.00000000E+00
  0.00000000E+00  0.00000000E+00  1.00000000E+00  0.00000000E+00  0.00000000E+00
  0.00000000E+00  0.00000000E+00  1.00000000E+00  0.00000000E+00  0.00000000E+00
  0.00000000E+00  0.00000000E+00  0.00000000E+00  0.00000000E+00  0.00000000E+00
  0.00000000E+00  0.00000000E+00  0.00000000E+00  1.00000000E+00  1.00000000E+00
MxBond                                     I                4
NBond                                      I   N=          10
           2           1           4           4           2           1
           1           1           1           1
IBond                                      I   N=          40
           3           5           0           0           5           0
           0           0           1           4           6           7
           3           8           9          10           1           2
           0           0           3           0           0           0
           3           0           0           0           4           0
           0           0           4           0           0           0
           4           0           0           0
RBond                                      R   N=          40
  1.00000000E+00  2.00000000E+00  0.00000000E+00  0.00000000E+00  3.00000000E+00
  0.00000000E+00  0.00000000E+00  0.00000000E+00  1.00000000E+00  1.00000000E+00
  1.00000000E+00  1.00000000E+00  1.00000000E+00  1.00000000E+00  1.00000000E+00
  1.00000000E+00  2.00000000E+00  3.00000000E+00  0.00000000E+00  0.00000000E+00
  1.00000000E+00  0.00000000E+00  0.00000000E+00  0.00000000E+00  1.00000000E+00
  0.00000000E+00  0.00000000E+00  0.00000000E+00  1.00000000E+00  0.00000000E+00
  0.00000000E+00  0.00000000E+00  1.00000000E+00  0.00000000E+00  0.00000000E+00
  0.00000000E+00  1.00000000E+00  0.00000000E+00  0.00000000E+00  0.00000000E+00
Virial Ratio                               R      2.001183738063667E+00
SCF Energy                                 R     -5.684534598526801E+02
MP2 Energy                                 R     -5.691263690969190E+02
Total Energy                               R     -5.691263690969190E+02
Post-SCF wavefunction norm                 R      1.584259398866343E+00
RMS Force                                  R      1.837744248767545E-06
RMS Density                                R      2.807538103011326E-09
External E-field                           R   N=          35
  0.00000000E+00  0.00000000E+00  0.00000000E+00  0.00000000E+00  0.00000000E+00
  0.00000000E+00  0.00000000E+00  0.00000000E+00  0.00000000E+00  0.00000000E+00
  0.00000000E+00  0.00000000E+00  0.00000000E+00  0.00000000E+00  0.00000000E+00
  0.00000000E+00  0.00000000E+00  0.00000000E+00  0.00000000E+00  0.00000000E+00
  0.00000000E+00  0.00000000E+00  0.00000000E+00  0.00000000E+00  0.00000000E+00
  0.00000000E+00  0.00000000E+00  0.00000000E+00  0.00000000E+00  0.00000000E+00
  0.00000000E+00  0.00000000E+00  0.00000000E+00  0.00000000E+00  0.00000000E+00
IOpCl                                      I                0
IROHF                                      I                0
Alpha Orbital Energies                     R   N=          89
 -9.20021716E+01 -1.55952994E+01 -1.13071486E+01 -1.12962047E+01 -1.12542645E+01
 -9.01176838E+00 -6.69488570E+00 -6.69286124E+00 -6.69089081E+00 -1.21343784E+00
 -1.11430911E+00 -1.00673212E+00 -8.63449168E-01 -6.95874900E-01 -6.62676211E-01
 -5.91319057E-01 -5.71975259E-01 -5.46948069E-01 -5.42989208E-01 -5.18130336E-01
 -5.03315943E-01 -4.41408513E-01 -3.77445641E-01  1.26450721E-01  1.93139179E-01
  1.95811807E-01  2.23011325E-01  2.41013506E-01  2.72386785E-01  2.72993532E-01
  3.04542985E-01  3.15880306E-01  3.59798962E-01  3.81010207E-01  5.12930759E-01
  5.31440298E-01  5.40669000E-01  6.59485531E-01  7.03538127E-01  7.39174425E-01
  7.73043656E-01  7.94583258E-01  8.00457158E-01  8.10676717E-01  8.65997963E-01
  8.99511579E-01  9.55141671E-01  1.00621719E+00  1.03215340E+00  1.08483328E+00
  1.10877410E+00  1.10877671E+00  1.11010794E+00  1.12628195E+00  1.13346085E+00
  1.15103277E+00  1.19006898E+00  1.21349349E+00  1.22817985E+00  1.30398814E+00
  1.36831689E+00  1.47048199E+00  1.69641395E+00  1.72776427E+00  1.76534691E+00
  1.79032555E+00  1.82108956E+00  1.82356487E+00  1.89186537E+00  1.89936401E+00
  2.21736522E+00  2.23359270E+00  2.26444952E+00  2.26786890E+00  2.27827041E+00
  2.50863884E+00  2.56548652E+00  2.61812767E+00  2.62722522E+00  2.90966264E+00
  2.91220314E+00  2.92638722E+00  2.93766378E+00  3.35791190E+00  4.21151377E+00
  4.33513864E+00  4.54059091E+00  4.67286945E+00  4.77166553E+00
Alpha MO coefficients                      R   N=        7921
  9.96253524E-01  1.42467059E-02  4.18970271E-05  1.00652510E-04 -1.29306984E-10
 -2.00710268E-02 -9.30174136E-05 -1.85089786E-04 -1.13481199E-10  2.16568285E-03
 -2.29759643E-04  5.40431012E-05 -7.61715868E-10  6.88257354E-03  6.89730720E-03
  6.90302842E-03  1.78346979E-06 -6.02462219E-11 -6.62887637E-11 -3.05431683E-05
 -7.92526012E-05 -7.01380069E-05 -3.79427375E-05 -3.66447823E-10  1.65360026E-03
 -4.95383885E-04 -2.48200568E-04 -3.31944189E-09 -1.13803882E-05 -6.81202493E-05
 -8.49148571E-05  4.09843600E-05  7.04342436E-10  3.54643688E-10 -1.33273705E-05
 -7.82872150E-07  6.24008770E-05 -7.93557012E-05  6.61620410E-10  4.22479579E-04
 -1.65942613E-04 -1.38870406E-05  1.56591573E-09 -2.51697079E-05 -2.00590924E-05
 -3.24092646E-05  1.85485269E-05 -7.79239773E-10 -3.21112458E-10 -2.10475787E-06
  2.39642955E-05 -1.83486291E-05  1.59443783E-06  2.17296535E-10 -1.23231760E-04
 -2.37296714E-04 -3.12387939E-05  1.69172267E-09 -3.78834024E-05 -1.14926855E-05
 -1.94623227E-05 -5.01175113E-06  5.90028133E-10  1.53333296E-10  4.89719134E-06
  1.22283333E-04 -7.38665864E-05 -4.20692041E-05 -2.02807504E-10 -9.30947205E-04
 -1.17661003E-03 -6.46352329E-04 -5.68594362E-09 -1.58918585E-04 -4.11306727E-05
  1.37101642E-06 -1.03744522E-04 -8.26037690E-10 -4.97577020E-10 -3.11446117E-05
 -1.54125571E-04 -3.11435344E-05 -1.54128621E-04  2.87015295E-05 -1.38320975E-04
  2.87021671E-05 -1.38316424E-04 -1.23445267E-05 -3.28598734E-05 -2.09836747E-07
  5.72561488E-05 -5.58674454E-05 -2.76436972E-05 -9.01592853E-11 -1.01500634E-04
  3.49938719E-04  1.75330078E-04  7.49970814E-10  6.28007532E-04  1.66272356E-04
  1.50478895E-04 -7.68953920E-10  3.09172505E-04  1.85403723E-04  1.20958654E-04
  1.21072907E-04  2.94763870E-10 -3.99603606E-11  9.95344377E-01  2.40981623E-02
 -2.19089461E-03 -1.14540381E-03 -1.25964503E-08 -4.67534531E-03  1.78930142E-03
  9.31532845E-04  1.03564727E-08 -2.15008165E-03 -2.94509012E-03 -3.16569969E-03
  6.72211201E-04  6.31523511E-09  3.81414870E-09 -3.21047058E-06 -2.91257526E-05
  2.20369211E-05 -5.01386798E-06 -3.01309552E-10  1.39111145E-04 -7.72246881E-05
  2.14804465E-05  2.88437172E-09  2.16297308E-05 -4.21355693E-06 -7.48432152E-06
  8.71540456E-07 -1.63848888E-10 -1.21757913E-10  2.74003877E-06  1.58794963E-05
 -3.86192245E-06 -2.60574786E-06 -7.88627031E-11 -1.15025460E-04 -5.26249109E-05
 -1.96728292E-05  1.33412858E-09 -5.71200860E-06  2.98432724E-06  4.64319624E-06
 -5.55745195E-06  1.08448112E-10  9.66362193E-11  5.71399223E-05  1.69416423E-04
 -7.16098047E-04 -3.81437183E-04 -4.07151768E-09  2.93062038E-03  2.50045818E-03
  1.33453942E-03  1.31709915E-08 -8.94944497E-04 -2.02141990E-04  5.97037880E-05
 -5.88800088E-04 -5.68871486E-09 -3.03124594E-09  1.26031908E-05 -7.15577902E-05
  1.26023297E-05 -7.15524278E-05  3.97836815E-06  3.40420244E-06  3.97850459E-06
  3.40276164E-06  2.41714471E-06  5.13203803E-06 -9.88990173E-07 -3.91965592E-06
  2.74192240E-05  9.39774504E-06 -3.36532776E-10  8.03449777E-04  1.82052292E-04
  1.19338844E-04  3.04578774E-09  5.46957084E-03  2.56899155E-03  1.97999928E-03
  5.74582343E-09 -5.36632268E-04 -3.42008595E-04 -3.02986655E-04 -2.64031554E-04
 -1.29585424E-09  4.40024576E-10 -7.40686297E-04  1.62109127E-04 -1.34203377E-04
 -8.92597861E-05 -4.05900527E-10 -4.36848293E-03  1.34900796E-03  8.44649999E-04
  8.51554035E-09  3.76838810E-04  9.58943443E-05  1.61262389E-05  1.94572527E-04
  1.86353468E-09  8.21865092E-10 -3.29066982E-04  7.16526979E-05 -1.61890360E-04
 -2.48380863E-05  3.58878343E-09 -1.47073892E-03  1.09584819E-03  1.01114519E-03
 -4.15560858E-08 -6.02525634E-06 -6.86001256E-05  1.99654996E-05 -3.23609729E-05
  5.22769380E-09  2.39732896E-09 -6.89813541E-05 -2.45536102E-04  2.54668871E-06
  5.79544517E-05 -7.81476028E-10  1.81005814E-03  1.04217585E-03 -1.34637847E-04
 -2.99052294E-09  1.95042235E-05 -9.77501001E-05 -6.26218750E-05  1.87076208E-05
 -2.19518622E-09  2.90406925E-09  9.95620990E-01  2.71775833E-02 -8.43350440E-04
 -4.22557169E-04 -3.89107782E-09 -6.99115762E-03  5.99306567E-03  2.83840790E-03
  2.91045264E-08 -1.18482878E-03 -2.16579566E-03 -2.60050170E-03  8.33633085E-04
  8.16476528E-09  4.38111920E-09 -4.85605752E-05 -3.61021806E-04 -4.85556408E-05
 -3.61055910E-04 -1.19009932E-04  6.97590668E-06 -1.18999956E-04  6.94595865E-06
 -2.52373551E-05  1.91366303E-04  2.12597292E-06 -2.77958682E-05  4.89465652E-05
 -4.96584145E-05  1.72309878E-10  3.53542530E-04 -4.53815044E-04  4.61122919E-04
 -2.35739061E-09  2.64794038E-03 -6.29912147E-04  1.37082501E-03 -6.80544517E-09
 -5.03159600E-05 -1.06857794E-04 -1.52681993E-04 -2.06938227E-05  1.06038704E-09
  1.14531646E-09 -1.62429838E-06 -9.23243074E-06 -3.05255659E-05  4.47390416E-06
  5.95206547E-11  2.56616324E-04 -5.81866486E-05 -1.08258477E-04 -5.48260454E-10
  1.38525857E-05 -7.09855237E-07  4.04472265E-06  1.53846655E-05  1.04190587E-10
  4.94182769E-11  9.95834531E-01  2.81198667E-02  2.97884605E-04 -5.72001812E-04
  7.41733273E-09 -1.52058748E-02  2.07229975E-04  1.04239568E-03 -2.99157668E-08
 -1.71314274E-03 -1.77703365E-03 -1.51788974E-03  1.95281489E-04 -7.01538581E-10
  2.49538265E-09  7.04096608E-03  2.15268933E-04  3.82325218E-05 -1.40823506E-05
  1.13252466E-09  3.86820396E-03  1.65520417E-03  4.70593364E-04 -3.20403687E-08
 -4.60770181E-04 -1.93884340E-04 -1.32287970E-04 -1.49593472E-04  6.94341520E-09
  3.57754102E-09  3.34226658E-04 -3.67295715E-05  4.56109942E-05  1.94165906E-05
  3.11786166E-10 -5.74549767E-04 -1.02719785E-04 -3.58983908E-05 -1.96995203E-09
  3.08494009E-06 -4.55520765E-08 -7.64463487E-05 -8.30017098E-05  1.00767948E-09
 -9.67353977E-10  1.84146354E-04  2.25634626E-03  1.84144923E-04  2.25633467E-03
 -1.46174710E-04 -6.56108919E-05 -1.46173782E-04 -6.56036157E-05 -1.34346820E-04
 -4.70779245E-05 -5.03117859E-07 -1.98728510E-05  1.22943479E-06  1.33850383E-05
  2.26354367E-10 -2.30365610E-05  5.10141516E-05 -1.01865788E-04 -2.00405996E-09
 -4.39199331E-04 -4.98416369E-04 -2.16517312E-04  8.87498448E-09 -2.23359765E-06
 -8.68014291E-05 -7.29938319E-05 -1.10401095E-05 -2.86842181E-09 -5.40322101E-10
  1.56450267E-06  5.79207063E-06 -7.33279625E-06 -9.93013041E-07 -6.61383738E-10
  4.35009986E-05  3.86087711E-05 -2.88277613E-06  5.02639823E-09  1.37467143E-06
  6.46672297E-06  5.79730074E-06 -1.15159740E-06 -9.32134399E-10 -4.44802685E-10
 -7.35232642E-03 -1.05088596E-04  1.35247047E-05  1.72918962E-05 -2.31831244E-10
  3.97619187E-03 -1.78021641E-03 -6.66035275E-04  3.04553610E-08 -4.96714142E-04
 -1.65612912E-04 -1.03914040E-04 -1.28659109E-04  6.71768005E-09  2.46440424E-09
  9.95711508E-01  2.84768455E-02  2.56248226E-04  5.07411885E-05 -6.41962801E-09
 -1.51344199E-02 -9.45659666E-04 -1.97491333E-04  1.78699109E-08 -1.88415170E-03
 -1.81724054E-03 -1.82637374E-03 -2.32971170E-05  1.44601799E-09 -2.31247139E-10
 -1.58830775E-05 -1.11498917E-04  2.93315047E-05  1.19618283E-05  2.61190449E-09
  8.06132211E-04 -4.08337501E-04 -1.32294169E-04 -1.23848800E-08 -3.17249779E-05
 -5.93324434E-05 -7.25628684E-05  1.12490306E-06 -3.85110445E-11 -6.62748810E-10
 -1.41957819E-04  5.49514667E-05 -1.41959228E-04  5.49530499E-05  1.66251631E-04
  2.49448146E-03  1.66250441E-04  2.49448015E-03  1.35731304E-04  2.43683340E-03
 -2.81770529E-01  1.03032616E+00  2.92594740E-03  6.48919508E-03 -1.40572830E-08
  2.43073994E-02  1.31462704E-03  2.11748161E-03  4.76397870E-10 -4.11320848E-03
  1.13275767E-03 -5.48478124E-04  2.32575267E-09 -3.42416594E-04 -9.86503252E-04
 -1.54742831E-03  2.86014912E-04  5.57388575E-09 -8.34346691E-10  2.42230916E-04
  9.29241195E-04 -1.00769072E-04 -4.66650549E-05 -1.07286091E-09 -9.69769659E-03
  2.89583910E-03  1.43746147E-03  1.76091170E-08  4.30674989E-04  4.89674208E-04
  4.88476709E-04 -2.44191143E-05 -2.30422457E-10 -8.77761411E-11 -5.70625440E-05
  5.89980803E-04 -4.81161556E-05  6.99874649E-05 -1.59626126E-09 -1.41228445E-03
  7.19461582E-04  2.78633363E-04 -6.28848151E-09 -1.01121308E-04 -2.72530372E-04
  1.31924754E-04  2.16501638E-04  1.00527185E-09  4.55969752E-09 -2.23942444E-05
 -2.11166436E-04 -1.13190193E-08  2.72658905E-05 -1.53053053E-09  1.00938810E-03
  1.04610204E-03 -1.06022493E-04 -4.31863945E-09  9.71753347E-05 -2.00553740E-05
 -5.92960573E-06 -1.94541847E-05 -2.39509418E-09  1.12165374E-09 -1.67736050E-04
  6.38110310E-04 -4.00506616E-05 -2.84789312E-05 -1.22715259E-09  4.82338982E-03
  6.65974132E-03  3.73654422E-03  3.42803401E-08 -4.45618357E-04 -1.20870937E-04
  5.89749492E-05 -2.84898104E-04 -1.43187026E-09 -3.63033633E-10  2.08830890E-06
  4.91055948E-04  2.08393656E-06  4.91071678E-04 -1.45263083E-04  3.20704460E-04
 -1.45261844E-04  3.20690097E-04  3.71969881E-05  1.93685729E-04  1.35424327E-03
 -5.02187791E-03  9.76670459E-01  1.76499798E-01  3.82306854E-06  3.36746598E-03
  2.57937980E-02  4.73844493E-03  9.98481387E-08  5.21318700E-03 -4.44151792E-03
  6.08788124E-04 -1.99884995E-08  4.34808360E-04 -8.13701784E-04 -1.15370478E-03
  1.71731031E-03  2.21720817E-09  5.71561121E-09  3.60005934E-04  1.41137214E-03
 -5.93868798E-05 -1.70702975E-05 -1.82475382E-09 -1.65581155E-02  4.58798229E-03
  2.61378971E-03  3.42034028E-08  6.94608730E-04  6.45358600E-04  7.03319516E-04
 -7.22896290E-05 -1.09986235E-09 -1.00452061E-09 -5.18582304E-05 -9.17408701E-04
  2.43895091E-05 -1.35236305E-04 -3.55605265E-10  2.13689956E-03  2.58428176E-04
 -6.55781844E-04  2.07937860E-08 -1.43724347E-05  4.65492540E-04 -3.13740225E-04
 -2.08375423E-04 -1.43313831E-09 -7.39444482E-09 -9.69194202E-06  1.33785331E-04
 -7.50542952E-05  5.35207707E-05  1.54340809E-09 -9.83976929E-05 -1.28994014E-03
  1.93047949E-04 -6.84486915E-09 -2.38603258E-04 -4.47953824E-05 -9.55161487E-05
  1.05423656E-04  1.47129106E-09 -1.13586045E-09 -2.25904003E-04  8.23489675E-04
  3.54023109E-05  2.04365671E-04  5.82710851E-10  6.91182995E-03  1.32310394E-02
  6.27394741E-03  5.64456564E-08 -4.20515544E-04 -1.90511247E-04  9.45015022E-05
 -4.39641362E-04 -1.11719673E-09 -1.18422027E-09 -8.09921546E-05 -4.99804804E-04
 -8.09884950E-05 -4.99819203E-04  1.83384062E-04 -9.00076567E-04  1.83388734E-04
 -9.00040797E-04 -1.06612019E-04 -2.46450938E-04  1.94716553E-03 -7.38361720E-03
 -1.76618371E-01  9.77389521E-01 -4.83275742E-06  4.67474317E-03 -4.03860118E-03
  2.24068924E-02 -1.06833986E-07  2.36235051E-03  1.92133447E-03 -4.21867586E-03
  2.32114916E-08 -1.19945366E-03 -1.06973949E-04 -1.77335318E-03 -7.77773486E-05
  3.59718239E-09 -7.05808117E-09  7.13149877E-05  2.64015619E-04  9.05025479E-05
 -5.41262264E-05  7.26103767E-10 -3.72054989E-03  9.91771704E-04  5.32351380E-04
  6.89445442E-09  1.21475126E-05  2.16251588E-04  1.42171777E-04  4.66086121E-05
 -1.54525530E-09  4.03784300E-11  1.49090652E-05  1.20707503E-03 -1.67396679E-04
  3.06971184E-04 -7.82304323E-10 -4.09309105E-03 -6.46667431E-04  1.00957201E-03
 -2.59863077E-08 -2.55955722E-04 -2.68628917E-04  2.13878681E-04  5.28304046E-04
 -4.25379684E-09  4.48990781E-09 -3.95743997E-05 -2.73562283E-04  9.10965216E-05
  3.00805279E-05  1.11164597E-09  1.77544771E-03  8.28655080E-04 -2.90255015E-04
 -1.45679299E-08  8.88690976E-05 -9.56465093E-05 -6.43596531E-06 -1.19025722E-05
 -5.97313895E-10  3.64794455E-09 -6.31791304E-05  1.92817243E-04  1.35241352E-04
 -1.55823962E-04  1.33354210E-09  6.03445167E-04  3.15023288E-03  2.16599549E-03
  1.22390273E-08 -2.94751083E-04  4.08325162E-04  4.94989988E-05  2.42217856E-04
 -2.81850470E-09 -1.62569428E-10  2.46945693E-04  1.01034205E-03  2.46941454E-04