153_Glyoxal Gaussian SP Calculation on node35.bme.utexas.edu            
Freq      RMP2-FC                                                     6-31G(d)            
Number of atoms                            I                6
Info1-9                                    I   N=           9
          17          16        1002           0           0         100
           6           2           1
Charge                                     I                0
Multiplicity                               I                1
Number of electrons                        I               30
Number of alpha electrons                  I               15
Number of beta electrons                   I               15
Number of basis functions                  I               64
Number of independent functions            I               64
Number of point charges in /Mol/           I                0
Number of translation vectors              I                0
Atomic numbers                             I   N=           6
           8           8           6           6           1           1
Nuclear charges                            R   N=           6
  8.00000000E+00  8.00000000E+00  6.00000000E+00  6.00000000E+00  1.00000000E+00
  1.00000000E+00
Current cartesian coordinates              R   N=          18
  3.27469192E+00  3.16163871E-01 -5.43338177E-06 -3.27469065E+00 -3.16165564E-01
 -5.86524222E-06  1.22005101E+00 -7.47206044E-01  4.70540755E-06 -1.22005182E+00
  7.47207905E-01  6.74410316E-06  9.96241281E-01 -2.82355342E+00  1.26579430E-05
 -9.96246623E-01  2.82355580E+00  9.03398476E-06
Force Field                                I                0
Int Atom Types                             I   N=           6
           0           0           0           0           0           0
MM charges                                 R   N=           6
  0.00000000E+00  0.00000000E+00  0.00000000E+00  0.00000000E+00  0.00000000E+00
  0.00000000E+00
Integer atomic weights                     I   N=           6
          16          16          12          12           1           1
Real atomic weights                        R   N=           6
  1.59949146E+01  1.59949146E+01  1.20000000E+01  1.20000000E+01  1.00782504E+00
  1.00782504E+00
Atom fragment info                         I   N=           6
           0           0           0           0           0           0
Atom residue num                           I   N=           6
           0           0           0           0           0           0
Nuclear spins                              I   N=           6
           0           0           0           0           1           1
Nuclear ZEff                               R   N=           6
 -5.60000000E+00 -5.60000000E+00 -3.60000000E+00 -3.60000000E+00 -1.00000000E+00
 -1.00000000E+00
Nuclear QMom                               R   N=           6
  0.00000000E+00  0.00000000E+00  0.00000000E+00  0.00000000E+00  0.00000000E+00
  0.00000000E+00
Nuclear GFac                               R   N=           6
  0.00000000E+00  0.00000000E+00  0.00000000E+00  0.00000000E+00  2.79284600E+00
  2.79284600E+00
MicOpt                                     I   N=           6
          -1          -1          -1          -1          -1          -1
Number of contracted shells                I               20
Number of primitive shells                 I               52
Pure/Cartesian d shells                    I                1
Pure/Cartesian f shells                    I                0
Highest angular momentum                   I                2
Largest degree of contraction              I                6
Shell types                                I   N=          20
           0          -1          -1           2           0          -1
          -1           2           0          -1          -1           2
           0          -1          -1           2           0           0
           0           0
Number of primitives per shell             I   N=          20
           6           3           1           1           6           3
           1           1           6           3           1           1
           6           3           1           1           3           1
           3           1
Shell to atom map                          I   N=          20
           1           1           1           1           2           2
           2           2           3           3           3           3
           4           4           4           4           5           5
           6           6
Primitive exponents                        R   N=          52
  5.48467166E+03  8.25234946E+02  1.88046958E+02  5.29645000E+01  1.68975704E+01
  5.79963534E+00  1.55396162E+01  3.59993359E+00  1.01376175E+00  2.70005823E-01
  8.00000000E-01  5.48467166E+03  8.25234946E+02  1.88046958E+02  5.29645000E+01
  1.68975704E+01  5.79963534E+00  1.55396162E+01  3.59993359E+00  1.01376175E+00
  2.70005823E-01  8.00000000E-01  3.04752488E+03  4.57369518E+02  1.03948685E+02
  2.92101553E+01  9.28666296E+00  3.16392696E+00  7.86827235E+00  1.88128854E+00
  5.44249258E-01  1.68714478E-01  8.00000000E-01  3.04752488E+03  4.57369518E+02
  1.03948685E+02  2.92101553E+01  9.28666296E+00  3.16392696E+00  7.86827235E+00
  1.88128854E+00  5.44249258E-01  1.68714478E-01  8.00000000E-01  1.87311370E+01
  2.82539436E+00  6.40121692E-01  1.61277759E-01  1.87311370E+01  2.82539436E+00
  6.40121692E-01  1.61277759E-01
Contraction coefficients                   R   N=          52
  1.83107443E-03  1.39501722E-02  6.84450781E-02  2.32714336E-01  4.70192898E-01
  3.58520853E-01 -1.10777550E-01 -1.48026263E-01  1.13076702E+00  1.00000000E+00
  1.00000000E+00  1.83107443E-03  1.39501722E-02  6.84450781E-02  2.32714336E-01
  4.70192898E-01  3.58520853E-01 -1.10777550E-01 -1.48026263E-01  1.13076702E+00
  1.00000000E+00  1.00000000E+00  1.83473713E-03  1.40373228E-02  6.88426223E-02
  2.32184443E-01  4.67941348E-01  3.62311985E-01 -1.19332420E-01 -1.60854152E-01
  1.14345644E+00  1.00000000E+00  1.00000000E+00  1.83473713E-03  1.40373228E-02
  6.88426223E-02  2.32184443E-01  4.67941348E-01  3.62311985E-01 -1.19332420E-01
 -1.60854152E-01  1.14345644E+00  1.00000000E+00  1.00000000E+00  3.34946043E-02
  2.34726953E-01  8.13757326E-01  1.00000000E+00  3.34946043E-02  2.34726953E-01
  8.13757326E-01  1.00000000E+00
P(S=P) Contraction coefficients            R   N=          52
  0.00000000E+00  0.00000000E+00  0.00000000E+00  0.00000000E+00  0.00000000E+00
  0.00000000E+00  7.08742682E-02  3.39752839E-01  7.27158577E-01  1.00000000E+00
  0.00000000E+00  0.00000000E+00  0.00000000E+00  0.00000000E+00  0.00000000E+00
  0.00000000E+00  0.00000000E+00  7.08742682E-02  3.39752839E-01  7.27158577E-01
  1.00000000E+00  0.00000000E+00  0.00000000E+00  0.00000000E+00  0.00000000E+00
  0.00000000E+00  0.00000000E+00  0.00000000E+00  6.89990666E-02  3.16423961E-01
  7.44308291E-01  1.00000000E+00  0.00000000E+00  0.00000000E+00  0.00000000E+00
  0.00000000E+00  0.00000000E+00  0.00000000E+00  0.00000000E+00  6.89990666E-02
  3.16423961E-01  7.44308291E-01  1.00000000E+00  0.00000000E+00  0.00000000E+00
  0.00000000E+00  0.00000000E+00  0.00000000E+00  0.00000000E+00  0.00000000E+00
  0.00000000E+00  0.00000000E+00
Coordinates of each shell                  R   N=          60
  3.27469192E+00  3.16163871E-01 -5.43338177E-06  3.27469192E+00  3.16163871E-01
 -5.43338177E-06  3.27469192E+00  3.16163871E-01 -5.43338177E-06  3.27469192E+00
  3.16163871E-01 -5.43338177E-06 -3.27469065E+00 -3.16165564E-01 -5.86524222E-06
 -3.27469065E+00 -3.16165564E-01 -5.86524222E-06 -3.27469065E+00 -3.16165564E-01
 -5.86524222E-06 -3.27469065E+00 -3.16165564E-01 -5.86524222E-06  1.22005101E+00
 -7.47206044E-01  4.70540755E-06  1.22005101E+00 -7.47206044E-01  4.70540755E-06
  1.22005101E+00 -7.47206044E-01  4.70540755E-06  1.22005101E+00 -7.47206044E-01
  4.70540755E-06 -1.22005182E+00  7.47207905E-01  6.74410316E-06 -1.22005182E+00
  7.47207905E-01  6.74410316E-06 -1.22005182E+00  7.47207905E-01  6.74410316E-06
 -1.22005182E+00  7.47207905E-01  6.74410316E-06  9.96241281E-01 -2.82355342E+00
  1.26579430E-05  9.96241281E-01 -2.82355342E+00  1.26579430E-05 -9.96246623E-01
  2.82355580E+00  9.03398476E-06 -9.96246623E-01  2.82355580E+00  9.03398476E-06
Constraint Structure                       R   N=          18
  3.27469192E+00  3.16163871E-01 -5.43338177E-06 -3.27469065E+00 -3.16165564E-01
 -5.86524222E-06  1.22005101E+00 -7.47206044E-01  4.70540755E-06 -1.22005182E+00
  7.47207905E-01  6.74410316E-06  9.96241281E-01 -2.82355342E+00  1.26579430E-05
 -9.96246623E-01  2.82355580E+00  9.03398476E-06
Num ILSW                                   I              100
ILSW                                       I   N=         100
           0           1           0           0           2           0
           0           0           0           0           0          -1
           0           0           0           0           0           0
           0           0           0           0           1           0
           1           0           0           0           0           0
           0           0      100000           0          -1           0
           0           0           0           0           0           0
           0           0           0           1           1           0
           0           0           1           0           0           0
           0           0           4          40           0           0
           0           0           0           0           0           0
           0           0           0           0           0           0
           0           0           0           0           0           0
           0           0           0           0           0           0
           0           0           0           0           0           0
           0           0           0           0           0           0
           0           0           0           0
Num RLSW                                   I               40
RLSW                                       R   N=          40
  1.00000000E+00  1.00000000E+00  1.00000000E+00  1.00000000E+00  1.00000000E+00
  0.00000000E+00  0.00000000E+00  1.00000000E+00  0.00000000E+00  0.00000000E+00
  0.00000000E+00  0.00000000E+00  1.00000000E+00  0.00000000E+00  0.00000000E+00
  0.00000000E+00  0.00000000E+00  1.00000000E+00  0.00000000E+00  0.00000000E+00
  0.00000000E+00  0.00000000E+00  1.00000000E+00  0.00000000E+00  0.00000000E+00
  0.00000000E+00  0.00000000E+00  1.00000000E+00  0.00000000E+00  0.00000000E+00
  0.00000000E+00  0.00000000E+00  0.00000000E+00  0.00000000E+00  0.00000000E+00
  0.00000000E+00  0.00000000E+00  0.00000000E+00  1.00000000E+00  1.00000000E+00
MxBond                                     I                3
NBond                                      I   N=           6
           1           1           3           3           1           1
IBond                                      I   N=          18
           3           0           0           4           0           0
           1           4           5           2           3           6
           3           0           0           4           0           0
RBond                                      R   N=          18
  2.00000000E+00  0.00000000E+00  0.00000000E+00  2.00000000E+00  0.00000000E+00
  0.00000000E+00  2.00000000E+00  1.00000000E+00  1.00000000E+00  2.00000000E+00
  1.00000000E+00  1.00000000E+00  1.00000000E+00  0.00000000E+00  0.00000000E+00
  1.00000000E+00  0.00000000E+00  0.00000000E+00
Virial Ratio                               R      2.003766582340498E+00
SCF Energy                                 R     -2.265861256455775E+02
MP2 Energy                                 R     -2.271889024393696E+02
Total Energy                               R     -2.271889024393696E+02
Post-SCF wavefunction norm                 R      1.544744198422293E+00
RMS Force                                  R      4.121154351790337E-06
RMS Density                                R      1.689533873502309E-09
External E-field                           R   N=          35
  0.00000000E+00  0.00000000E+00  0.00000000E+00  0.00000000E+00  0.00000000E+00
  0.00000000E+00  0.00000000E+00  0.00000000E+00  0.00000000E+00  0.00000000E+00
  0.00000000E+00  0.00000000E+00  0.00000000E+00  0.00000000E+00  0.00000000E+00
  0.00000000E+00  0.00000000E+00  0.00000000E+00  0.00000000E+00  0.00000000E+00
  0.00000000E+00  0.00000000E+00  0.00000000E+00  0.00000000E+00  0.00000000E+00
  0.00000000E+00  0.00000000E+00  0.00000000E+00  0.00000000E+00  0.00000000E+00
  0.00000000E+00  0.00000000E+00  0.00000000E+00  0.00000000E+00  0.00000000E+00
IOpCl                                      I                0
IROHF                                      I                0
Alpha Orbital Energies                     R   N=          64
 -2.06166256E+01 -2.06166244E+01 -1.13705129E+01 -1.13698928E+01 -1.43234907E+00
 -1.41490384E+00 -9.69409294E-01 -8.24336658E-01 -7.01097601E-01 -7.00723707E-01
 -6.50766227E-01 -5.86380868E-01 -5.20520344E-01 -5.20457642E-01 -4.40766110E-01
  4.43285844E-02  2.13028676E-01  2.46088054E-01  2.86540135E-01  3.46558600E-01
  4.40058376E-01  4.98128292E-01  7.08196315E-01  7.52720190E-01  7.80420935E-01
  8.10550576E-01  8.93422501E-01  9.34750491E-01  1.01151004E+00  1.02787613E+00
  1.06559109E+00  1.07960377E+00  1.14929931E+00  1.23521849E+00  1.26610585E+00
  1.30664621E+00  1.31781370E+00  1.36109377E+00  1.56654156E+00  1.62771239E+00
  1.72028618E+00  1.77195169E+00  1.80534570E+00  1.96734143E+00  1.98821416E+00
  2.01821427E+00  2.06104028E+00  2.16038206E+00  2.24000715E+00  2.32886614E+00
  2.44236040E+00  2.44423683E+00  2.61006687E+00  2.66482974E+00  2.86364094E+00
  2.87128808E+00  3.13994610E+00  3.16316731E+00  3.29681185E+00  3.33525187E+00
  4.11292805E+00  4.27228667E+00  4.39685803E+00  4.69514761E+00
Alpha MO coefficients                      R   N=        4096
  6.87408597E-01  1.44501425E-02 -9.59226889E-04 -4.80092717E-04  4.64799677E-09
  3.07859303E-03  3.02939207E-05 -2.00681416E-05  6.75674217E-11 -2.50035887E-03
 -2.59805554E-03 -2.88088193E-03  1.10796238E-04 -1.91407018E-09 -1.49086114E-09
  7.18986725E-01  1.51125718E-02  1.00218579E-03  5.01873881E-04  6.38007594E-09
  3.22036792E-03 -3.12238969E-05  1.92765242E-05  2.03317330E-10 -2.61536844E-03
 -2.71874970E-03 -3.01426715E-03  1.14110918E-04  2.37925459E-09  1.63800760E-09
 -1.26953799E-06  3.30931860E-04 -2.18879726E-05 -9.20250805E-06  2.24712399E-10
 -2.62036527E-04 -3.62739662E-04 -2.64522658E-04  1.62728460E-09 -4.74934406E-04
 -1.15054083E-04 -2.72761673E-05 -2.43991702E-04  2.14549606E-09  1.32276674E-09
 -1.40499004E-06  3.44963474E-04  2.41021714E-05  1.01404482E-05  4.38352575E-10
 -2.63065295E-04  3.81043891E-04  2.68207819E-04  1.56015908E-09 -4.91754415E-04
 -1.22673820E-04 -2.78805627E-05 -2.54018463E-04 -2.93991010E-09 -1.55769614E-09
 -1.28416159E-05 -1.48833586E-04 -1.35101570E-05 -1.51738396E-04  7.18982616E-01
  1.50831021E-02 -9.78663845E-04 -4.96013263E-04  4.63320531E-09  3.22782206E-03
  2.13940356E-05  1.71884614E-05  8.98158204E-12 -2.61850112E-03 -2.74735970E-03
 -3.03645147E-03  7.63305058E-05 -1.99295818E-09 -1.25295691E-09 -6.87404299E-01
 -1.44193198E-02 -9.34622791E-04 -4.73966649E-04 -5.91396305E-09 -3.08638919E-03
  2.00124839E-05  1.80721201E-05  1.82756598E-10  2.50363571E-03  2.62797933E-03
  2.90408564E-03 -7.12808591E-05 -2.12565080E-09 -1.25426396E-09 -3.04725352E-06
  3.20058772E-04 -4.98139270E-05 -2.11010302E-05  1.22503519E-10 -2.88026773E-05
 -4.15966227E-04 -8.80500098E-05  1.71270638E-09 -3.85432014E-04 -1.72339731E-04
 -1.40808403E-05 -2.28849306E-04  2.44766579E-09  1.10740851E-09  2.98719875E-06
 -3.04882504E-04 -4.87814229E-05 -2.06669543E-05 -2.90154992E-10  1.70117684E-05
 -3.99265327E-04 -7.60894266E-05 -1.64928068E-09  3.63726060E-04  1.67002887E-04
  1.28423835E-05  2.17667875E-04  2.93476361E-09  1.41829340E-09 -1.51812030E-05
 -6.80781865E-05  1.45894646E-05  6.13299438E-05 -2.16226855E-04  3.27967228E-04
 -1.24875618E-04 -1.29797776E-04  1.12650439E-09 -2.02549785E-03  9.96294352E-04
  5.44113521E-04 -6.17381769E-09 -1.61604478E-05  6.60502375E-05  1.55473555E-04
 -7.54484620E-05  9.68717499E-10  6.55287343E-10 -2.16230373E-04  3.27970618E-04
  1.24877985E-04  1.29798944E-04  1.63744811E-09 -2.02550478E-03 -9.96302936E-04
 -5.44122746E-04 -1.14669232E-08 -1.61623996E-05  6.60487792E-05  1.55476624E-04
 -7.54498694E-05 -2.48893645E-09 -9.27996156E-10  7.03975984E-01  1.89748221E-02
  4.21112368E-04  2.40447853E-04 -2.38192755E-09 -3.37467034E-03  1.60502504E-03
  2.07239600E-03 -8.61523467E-09 -1.16187493E-03 -1.42454241E-03 -1.89959634E-03
  4.63084009E-04 -4.66961952E-09 -3.25975126E-09  7.03985464E-01  1.89750758E-02
 -4.21117215E-04 -2.40454973E-04 -2.56576386E-09 -3.37477064E-03 -1.60504664E-03
 -2.07239114E-03 -3.09740020E-09 -1.16188286E-03 -1.42455493E-03 -1.89961925E-03
  4.63086729E-04  5.68997570E-09  2.79851254E-09 -2.72350622E-05  2.08310051E-03
 -2.72359075E-05  2.08311652E-03 -2.25831182E-04  3.59022138E-04 -1.76048090E-04
 -6.42591090E-05  8.56910860E-10 -1.10088976E-03  8.97190278E-04  5.84592671E-04
 -4.55694669E-09 -1.61106250E-04 -2.50928643E-05  3.01983031E-04 -9.91588123E-05
  1.97018178E-09  1.57510091E-09  2.25828732E-04 -3.59016878E-04 -1.76046697E-04
 -6.42578562E-05 -7.02283878E-10  1.10085322E-03  8.97174510E-04  5.84584442E-04
  6.95780242E-09  1.61106493E-04  2.50945906E-05 -3.01980158E-04  9.91568039E-05
  3.03584140E-09  2.49002991E-09  7.04221934E-01  1.88101956E-02  3.57738743E-04
  4.79641454E-04 -3.09215794E-09 -7.87068902E-03  2.37994652E-03 -4.34563186E-04
 -6.51773662E-09 -4.12726128E-04 -9.76785227E-04 -1.64948985E-03  1.71070797E-04
 -5.07600316E-09 -3.15021182E-09 -7.04212456E-01 -1.88099407E-02  3.57733164E-04
  4.79639461E-04  3.74305493E-09  7.87064735E-03  2.37991685E-03 -4.34593380E-04
  2.01025375E-09  4.12713561E-04  9.76764267E-04  1.64946495E-03 -1.71064480E-04
 -4.63348197E-09 -3.27540191E-09 -4.88764394E-06  1.33090297E-03  4.88839454E-06
 -1.33087375E-03 -1.35489209E-01  3.02821015E-01 -8.61038768E-02 -4.06968187E-02
  4.12844161E-07  2.73208885E-01 -3.39539398E-02 -1.57836574E-02  1.76572211E-07
  1.05242248E-02  1.25011808E-03 -6.63612343E-04  6.47287948E-03 -6.51116256E-08
 -3.01489068E-08 -1.35490498E-01  3.02823894E-01  8.61046101E-02  4.06973658E-02
  4.81764154E-07  2.73211394E-01  3.39542297E-02  1.57838430E-02  2.23330520E-07
  1.05243095E-02  1.25015538E-03 -6.63627620E-04  6.47296197E-03  7.99696408E-08
  3.63317942E-08 -8.72259012E-02  1.67220334E-01  8.22315169E-02  6.42522769E-02
 -5.24645433E-07  5.58280974E-02 -2.04530541E-02 -1.93541090E-02  6.96084974E-08
  1.92462348E-02 -2.09160769E-03 -1.19628990E-02  1.29435971E-02 -1.48464950E-07
 -9.49770244E-08 -8.72265215E-02  1.67221505E-01 -8.22326256E-02 -6.42529783E-02
 -6.80092794E-07  5.58283986E-02  2.04530179E-02  1.93541975E-02  5.45141947E-08
  1.92462853E-02 -2.09159059E-03 -1.19629940E-02  1.29438102E-02  1.71427562E-07
  1.06515442E-07  2.19653257E-02 -1.10223238E-02  2.19654375E-02 -1.10223770E-02
 -1.42427329E-01  3.17536612E-01 -8.49185070E-02 -4.36235330E-02  4.38907457E-07
  2.85630080E-01 -3.64067021E-02 -1.46975413E-02  1.68147257E-07  1.10163704E-02
  1.59146029E-03 -1.96323925E-03  7.07870884E-03 -7.33652068E-08 -3.63013061E-08
  1.42426084E-01 -3.17533827E-01 -8.49176695E-02 -4.36233169E-02 -5.17114806E-07
 -2.85627515E-01 -3.64063652E-02 -1.46974467E-02 -1.97973171E-07 -1.10162555E-02
 -1.59147184E-03  1.96323214E-03 -7.07866579E-03 -8.87962750E-08 -4.60545735E-08
 -6.91047399E-02  1.30679086E-01  1.28511918E-01  5.43340783E-02 -5.45935483E-07
  4.04004783E-02 -4.93400593E-03 -6.96692425E-03  9.51579550E-08  1.03309773E-02
 -3.41726291E-03 -1.04438370E-02  1.92564786E-02 -1.52124803E-07 -7.99265316E-08
  6.91039793E-02 -1.30677632E-01  1.28511038E-01  5.43337101E-02  6.68781573E-07
 -4.03999957E-02 -4.93377686E-03 -6.96674527E-03 -9.44001191E-08 -1.03307528E-02
  3.41718440E-03  1.04437319E-02 -1.92563931E-02 -1.93041270E-07 -9.16737363E-08
  1.46080393E-02 -6.00721979E-03 -1.46078749E-02  6.00711022E-03  7.31097385E-02
 -1.68375413E-01 -8.12705860E-02 -3.86674554E-04  2.85433506E-07 -2.02883469E-01
 -3.76497180E-02 -4.54388623E-04  1.10587426E-07  4.80792352E-03 -3.78428008E-03
 -2.43412930E-04  1.22599295E-03 -2.31357163E-08  6.91415534E-09  7.31097947E-02
 -1.68375546E-01  8.12707232E-02  3.86692891E-04  2.40855455E-07 -2.02883653E-01
  3.76497831E-02  4.54402041E-04  1.29863906E-07  4.80793650E-03 -3.78428664E-03
 -2.43418570E-04  1.22600623E-03  1.72731714E-08 -1.23740625E-08 -1.19879119E-01
  2.54951074E-01 -1.99322652E-01  1.41893940E-02  6.85788090E-07  2.07313357E-01
 -5.52166048E-02 -1.89702770E-02  3.05995416E-07  4.14335541E-03  1.50319570E-02
 -8.42455260E-03 -1.66339795E-02 -1.66069344E-08 -4.03265407E-08 -1.19879056E-01
  2.54950941E-01  1.99322628E-01 -1.41893739E-02  4.08851986E-07  2.07313187E-01
  5.52165486E-02  1.89702806E-02  1.67504794E-07  4.14336638E-03  1.50319340E-02
 -8.42454361E-03 -1.66340348E-02 -3.49614794E-08  1.85643529E-08  9.14731661E-02
  1.32690990E-02  9.14730125E-02  1.32691012E-02  4.33536527E-02 -9.97665154E-02
 -5.46730229E-02 -1.50817047E-01  6.10347055E-07 -1.45370774E-01 -2.53019583E-02
 -7.66031358E-02  2.81871589E-07 -1.24581269E-03  5.47608594E-03 -6.82463336E-04
  1.04275741E-02 -2.45950154E-08 -5.35402626E-08 -4.33537129E-02  9.97666406E-02
 -5.46727980E-02 -1.50817620E-01 -5.61348554E-07  1.45371013E-01 -2.53018281E-02
 -7.66034193E-02 -2.70834986E-07  1.24584872E-03 -5.47613815E-03  6.82457438E-04
 -1.04275897E-02 -1.17078833E-08 -5.95667201E-08 -9.60122701E-02  2.00697560E-01
  1.74697633E-02 -2.05823855E-01  5.19326047E-07  2.23052156E-01 -2.61493588E-02
 -6.79092012E-02  3.18322735E-07 -1.75188765E-03  1.36223444E-02 -7.65154071E-03
  6.39805216E-03 -3.81555484E-08 -1.18582343E-07  9.60124063E-02 -2.00697865E-01
  1.74702939E-02 -2.05824203E-01 -1.50733864E-07 -2.23052489E-01 -2.61492042E-02
 -6.79094410E-02 -1.70967416E-07  1.75189138E-03 -1.36223707E-02  7.65154440E-03
 -6.39800166E-03 -3.79174590E-08 -3.51659571E-08  1.77656028E-01  7.87289416E-02
 -1.77656315E-01 -7.87290211E-02 -2.54497504E-02  5.76056367E-02  1.23385435E-02
  2.85679569E-01 -1.24906945E-06  9.85066290E-02  2.84865709E-03  1.62270987E-01
 -7.11438534E-07  5.73947171E-03 -1.21188962E-02  7.89855962E-04 -1.57321494E-02
  5.84057869E-08  1.11958840E-07 -2.54382262E-02  5.75789866E-02 -1.22703509E-02
 -2.85667955E-01 -1.32268793E-06  9.84595482E-02 -2.81031782E-03 -1.62265112E-01
 -7.85083902E-07  5.74381325E-03 -1.21199837E-02  7.88812751E-04 -1.57302528E-02
 -6.24363579E-08 -1.33517337E-07  1.71290650E-02 -3.78436044E-02 -2.14097717E-01
  2.26346398E-01 -3.78262443E-07 -3.45548298E-02 -5.03385223E-02  1.16565540E-01
 -3.58727415E-07  9.77464176E-04 -4.85200337E-03  2.56646514E-03 -7.74311347E-03
  2.70552517E-08  4.37788533E-08  1.71221988E-02 -3.78270481E-02  2.14068736E-01
 -2.26381422E-01 -2.65113886E-07 -3.45491178E-02  5.03363520E-02 -1.16576937E-01
 -2.50191743E-07  9.77398731E-04 -4.85273977E-03  2.56551836E-03 -7.74113585E-03
 -7.02740417E-08  3.73885362E-08 -1.21311604E-01 -5.51690606E-02 -1.21324326E-01
 -5.51765039E-02 -5.94440058E-02  1.37426955E-01  3.50887001E-01  5.83459308E-02
 -1.66103195E-06  2.43207982E-01  1.97310062E-01  2.94018023E-02 -9.60981706E-07
 -2.22962529E-02  5.44233736E-03  5.39083326E-03 -9.54812562E-03  1.63946339E-07
  4.32094177E-08  5.94489103E-02 -1.37438059E-01  3.50889518E-01  5.84016635E-02
  2.14468246E-06 -2.43227042E-01  1.97310706E-01  2.94334445E-02  1.23132497E-06
  2.22951300E-02 -5.43997702E-03 -5.39099434E-03  9.55121677E-03  2.18269264E-07
  6.43124656E-08  3.47874463E-02 -8.41616413E-02 -1.51931726E-01 -1.85315169E-01
  7.77446721E-07 -2.68083019E-02 -1.28304344E-02 -6.03739146E-02  1.10797515E-07
  4.30224423E-04  3.84387577E-03  4.85730140E-03 -1.01646429E-02  5.09731914E-08
  6.89880072E-09 -3.47906569E-02  8.41687478E-02 -1.51972935E-01 -1.85271908E-01
 -6.10185129E-07  2.68146929E-02 -1.28401622E-02 -6.03515096E-02  5.60234975E-09
 -4.30438400E-04 -3.84292687E-03 -4.85780101E-03  1.01661861E-02  7.49370454E-08
  4.94174596E-08  6.73772699E-02  3.92091430E-02 -6.73540162E-02 -3.91986266E-02
 -3.96709239E-02  8.85063933E-02  3.40133390E-01  9.43204194E-02 -4.75318702E-07
  1.86105282E-01  1.94650205E-01  5.45771846E-02 -1.98753327E-07 -2.10719571E-02
  3.79596193E-03  3.83613438E-03 -1.03772626E-02  4.24517762E-08 -4.25748696E-09
 -3.96708624E-02  8.85062400E-02 -3.40132904E-01 -9.43213697E-02 -1.07352591E-06
  1.86105093E-01 -1.94649887E-01 -5.45777606E-02 -5.56153869E-07 -2.10718940E-02
  3.79591153E-03  3.83612766E-03 -1.03773255E-02 -1.05801461E-07 -2.02883140E-08
  6.32445493E-03 -2.68361475E-02 -1.88662277E-01 -2.04387438E-01  2.35407937E-06
  5.03989334E-02 -3.17498416E-02 -6.16954509E-02  8.88897100E-07 -1.37352843E-02
  1.85467763E-02  3.75698647E-03 -1.46196055E-02  1.03191123E-07  6.21686962E-08
  6.32440220E-03 -2.68360466E-02  1.88661965E-01  2.04387577E-01  2.10944081E-06
  5.03990526E-02  3.17497638E-02  6.16954673E-02  7.30562739E-07 -1.37352776E-02
  1.85467559E-02  3.75698540E-03 -1.46196663E-02 -1.16641743E-07 -1.20525094E-07
  1.19126090E-01  9.13971417E-02  1.19126080E-01  9.13970939E-02  4.47367434E-08
 -1.40138498E-07 -3.18731591E-07  1.21233283E-06  3.19202360E-01 -1.57948240E-07
 -1.62672203E-07  8.07696872E-07  2.21403796E-01 -8.00995095E-08 -1.25593063E-07
  1.84587545E-07 -1.10673991E-07 -2.59122823E-02 -1.23209860E-02  4.36509333E-08
 -1.74287746E-07 -4.14318094E-07 -9.92645553E-07  3.19202904E-01 -2.64933420E-08
 -2.83265975E-07 -6.33676397E-07  2.21404201E-01 -1.57712441E-07 -1.27862372E-07
  2.33623017E-07 -1.19997297E-07  2.59123053E-02  1.23210508E-02  3.69934350E-08
 -3.61621497E-08  1.24484964E-06  1.76994064E-06  2.53934468E-01 -4.14454596E-07
  3.98016206E-07  9.81846557E-07  1.50009405E-01  1.80834637E-07 -1.75397986E-08
 -1.86785330E-07  1.84472748E-07  1.29544671E-02  1.51969359E-02 -1.14769446E-07
  3.08569088E-07 -1.18925485E-06 -1.60959527E-06  2.53934777E-01 -1.70946167E-07
 -4.69834221E-07 -8.26846753E-07  1.50009566E-01  2.47827198E-07 -3.45639418E-08
 -2.42837584E-07  1.72941397E-07 -1.29545015E-02 -1.51969978E-02 -6.14193285E-07
 -3.39408972E-07 -6.79676632E-07 -3.53452690E-07 -1.12459574E-03  3.64617567E-03
 -1.32456508E-01  4.13814014E-01  1.59762581E-04  1.60370604E-03 -9.57547785E-02
  3.01055628E-01  1.18427911E-04  9.88850487E-03 -1.26413094E-02  1.68357116E-03
 -1.48305655E-02 -1.18401162E-05 -5.71004398E-06  1.12460264E-03 -3.64616521E-03
 -1.32457833E-01  4.13814134E-01 -1.60048086E-04 -1.60386649E-03 -9.57557737E-02
  3.01055712E-01 -1.18657709E-04 -9.88857912E-03  1.26413802E-02 -1.68355758E-03
  1.48305182E-02 -1.18637078E-05 -5.69487799E-06 -3.26553952E-02  6.26300716E-02
 -1.02172070E-01 -5.36831388E-02  9.08069710E-05  1.76624663E-01 -5.71781411E-02
  1.23549417E-02  6.30451771E-05 -2.38828593E-02  2.95179766E-02 -4.28768992E-04
  1.60744247E-02  1.24848236E-05  5.03462369E-06  3.26553485E-02 -6.26299924E-02
 -1.02171698E-01 -5.36831726E-02 -9.09287936E-05 -1.76624274E-01 -5.71782227E-02
  1.23548440E-02 -6.30777074E-05  2.38829237E-02 -2.95180186E-02  4.28767701E-04
 -1.60743693E-02  1.25206555E-05  5.08075529E-06  1.09726107E-01  8.94792059E-02
 -1.09726044E-01 -8.94792908E-02  4.81713710E-07 -1.50614416E-06  5.89213423E-05
 -1.77796707E-04  3.71854037E-01 -7.22961797E-07  4.26936922E-05 -1.29320283E-04
  2.75808957E-01 -4.44495700E-06  5.42735914E-06 -4.58542674E-07  6.27175974E-06
 -2.74554250E-02 -1.34592555E-02 -5.14525123E-07  1.50817493E-06  5.96869936E-05
 -1.77573569E-04 -3.71853520E-01  1.28439920E-06  4.33647542E-05 -1.29158840E-04
 -2.75808592E-01  4.49704850E-06 -5.45861820E-06  3.67728556E-07 -6.24222739E-06
 -2.74553656E-02 -1.34592851E-02  1.41181242E-05 -2.71905582E-05  4.47444714E-05
  2.36516937E-05  2.08945815E-01 -7.58549363E-05  2.50586043E-05 -5.30091394E-06
  1.45110359E-01  1.04519000E-05 -1.26868977E-05 -3.18291963E-08 -6.85644504E-06
  2.88244533E-02  1.21103496E-02 -1.39924019E-05  2.68564449E-05  4.46184504E-05
  2.34405763E-05 -2.08945487E-01  7.53395896E-05  2.54796564E-05 -4.70796844E-06
 -1.45110156E-01 -1.04780915E-05  1.26493797E-05  5.97357046E-08  6.85079495E-06
  2.88244074E-02  1.21103724E-02 -4.73023503E-05 -3.89109994E-05  4.72241101E-05
  3.83826121E-05 -1.79069705E-03 -1.31006470E-02 -2.10713758E-01  3.20441697E-01
 -2.05383820E-07  8.79624867E-02 -1.90067562E-01  2.52098278E-01  5.44650037E-08
  5.29706236E-03 -1.28154934E-02 -6.56936260E-03 -5.29076925E-03 -4.75668114E-08
  3.59210444E-08 -1.79068260E-03 -1.31006617E-02  2.10714137E-01 -3.20440878E-01
 -2.93615251E-08  8.79623987E-02  1.90067878E-01 -2.52097650E-01  2.37618300E-07
  5.29706496E-03 -1.28154848E-02 -6.56935602E-03 -5.29071899E-03  6.80790859E-08
 -4.83902062E-08  1.97426802E-02 -5.35842220E-02  1.60413723E-01 -1.77173257E-01
  1.68378281E-08 -1.32377190E-01 -7.41142403E-03 -1.30069982E-01  4.85949175E-10
 -3.17270266E-02  3.10407283E-02 -1.79582676E-03  2.90236362E-02  7.11588730E-08
 -2.06823217E-07  1.97427107E-02 -5.35842559E-02 -1.60414102E-01  1.77173083E-01
 -3.78162835E-08 -1.32377746E-01  7.41083484E-03  1.30070270E-01  1.15574814E-07
 -3.17270768E-02  3.10407931E-02 -1.79582222E-03  2.90234731E-02 -5.84432436E-08
  1.36692166E-07  1.38625142E-01  1.70794318E-01  1.38625092E-01  1.70794056E-01
  1.31668195E-07 -2.23887097E-07  1.81159743E-06  6.49309665E-07  3.09461898E-01
 -1.82187247E-06  2.27479038E-06  1.02391588E-06  3.67384128E-01 -3.74247269E-08
  6.23038581E-09  5.67960729E-08 -6.66608653E-08 -3.35867563E-03 -4.06385049E-03
  1.21171653E-07 -1.37840708E-07 -1.87722611E-06 -7.05174069E-07  3.09462019E-01
 -2.07032615E-06 -2.44752421E-06 -1.14955918E-06  3.67384312E-01 -1.78459359E-08