58999560                                                                
Freq      RMP2-FC                                                     6-31G(d)            
Number of atoms                            I               20
Info1-9                                    I   N=           9
          32          30        1002           0           0         100
           6           2           1
Charge                                     I                0
Multiplicity                               I                1
Number of electrons                        I               72
Number of alpha electrons                  I               36
Number of beta electrons                   I               36
Number of basis functions                  I              170
Number of independent functions            I              170
Number of point charges in /Mol/           I                0
Number of translation vectors              I                0
Atomic numbers                             I   N=          20
           7           7           6           6           6           6
           6           6           6           6           1           1
           1           1           1           1           1           1
           1           1
Nuclear charges                            R   N=          20
  7.00000000E+00  7.00000000E+00  6.00000000E+00  6.00000000E+00  6.00000000E+00
  6.00000000E+00  6.00000000E+00  6.00000000E+00  6.00000000E+00  6.00000000E+00
  1.00000000E+00  1.00000000E+00  1.00000000E+00  1.00000000E+00  1.00000000E+00
  1.00000000E+00  1.00000000E+00  1.00000000E+00  1.00000000E+00  1.00000000E+00
Current cartesian coordinates              R   N=          60
  3.25696782E-01 -1.78062363E+00 -2.08173917E-02 -4.17679695E-01  2.68809349E+00
 -6.38434548E-03  3.85414053E+00  1.11254598E+00  1.46130229E-02  5.57735883E+00
 -6.76939389E-01 -1.40037172E+00  5.56281175E+00 -6.97056133E-01  1.42149012E+00
  1.10363948E+00  6.45181041E-01 -2.05027460E-03 -3.94118549E+00 -2.01560254E-01
 -2.02982834E-02 -2.17629585E+00 -2.16532427E+00 -2.83817448E-02 -2.91091348E+00
  2.22800395E+00 -1.40878851E-02 -6.73961310E+00 -6.70855364E-01  3.60561404E-02
  4.35324318E+00  3.10168039E+00  3.08897907E-02  7.18634174E+00  1.39031180E-01
 -2.37558316E+00  4.66056670E+00 -2.24146476E+00 -2.35590490E+00  4.63656084E+00
 -2.27517405E+00  2.34505182E+00  7.16159428E+00  1.04746496E-01  2.42482671E+00
 -2.79191155E+00 -4.13296315E+00 -5.42046196E-02 -4.13462761E+00  3.88709510E+00
 -2.81214618E-02 -7.21260508E+00 -2.43601218E+00 -9.28103305E-01 -7.76434583E+00
  8.64832872E-01 -8.91439919E-01 -7.43059228E+00 -8.08034296E-01  1.98118495E+00
Force Field                                I                0
Int Atom Types                             I   N=          20
           0           0           0           0           0           0
           0           0           0           0           0           0
           0           0           0           0           0           0
           0           0
MM charges                                 R   N=          20
  0.00000000E+00  0.00000000E+00  0.00000000E+00  0.00000000E+00  0.00000000E+00
  0.00000000E+00  0.00000000E+00  0.00000000E+00  0.00000000E+00  0.00000000E+00
  0.00000000E+00  0.00000000E+00  0.00000000E+00  0.00000000E+00  0.00000000E+00
  0.00000000E+00  0.00000000E+00  0.00000000E+00  0.00000000E+00  0.00000000E+00
Integer atomic weights                     I   N=          20
          14          14          12          12          12          12
          12          12          12          12           1           1
           1           1           1           1           1           1
           1           1
Real atomic weights                        R   N=          20
  1.40030740E+01  1.40030740E+01  1.20000000E+01  1.20000000E+01  1.20000000E+01
  1.20000000E+01  1.20000000E+01  1.20000000E+01  1.20000000E+01  1.20000000E+01
  1.00782504E+00  1.00782504E+00  1.00782504E+00  1.00782504E+00  1.00782504E+00
  1.00782504E+00  1.00782504E+00  1.00782504E+00  1.00782504E+00  1.00782504E+00
Atom fragment info                         I   N=          20
           0           0           0           0           0           0
           0           0           0           0           0           0
           0           0           0           0           0           0
           0           0
Atom residue num                           I   N=          20
           0           0           0           0           0           0
           0           0           0           0           0           0
           0           0           0           0           0           0
           0           0
Nuclear spins                              I   N=          20
           2           2           0           0           0           0
           0           0           0           0           1           1
           1           1           1           1           1           1
           1           1
Nuclear ZEff                               R   N=          20
 -4.55000000E+00 -4.55000000E+00 -3.60000000E+00 -3.60000000E+00 -3.60000000E+00
 -3.60000000E+00 -3.60000000E+00 -3.60000000E+00 -3.60000000E+00 -3.60000000E+00
 -1.00000000E+00 -1.00000000E+00 -1.00000000E+00 -1.00000000E+00 -1.00000000E+00
 -1.00000000E+00 -1.00000000E+00 -1.00000000E+00 -1.00000000E+00 -1.00000000E+00
Nuclear QMom                               R   N=          20
  2.04400000E+00  2.04400000E+00  0.00000000E+00  0.00000000E+00  0.00000000E+00
  0.00000000E+00  0.00000000E+00  0.00000000E+00  0.00000000E+00  0.00000000E+00
  0.00000000E+00  0.00000000E+00  0.00000000E+00  0.00000000E+00  0.00000000E+00
  0.00000000E+00  0.00000000E+00  0.00000000E+00  0.00000000E+00  0.00000000E+00
Nuclear GFac                               R   N=          20
  4.03761000E-01  4.03761000E-01  0.00000000E+00  0.00000000E+00  0.00000000E+00
  0.00000000E+00  0.00000000E+00  0.00000000E+00  0.00000000E+00  0.00000000E+00
  2.79284600E+00  2.79284600E+00  2.79284600E+00  2.79284600E+00  2.79284600E+00
  2.79284600E+00  2.79284600E+00  2.79284600E+00  2.79284600E+00  2.79284600E+00
MicOpt                                     I   N=          20
          -1          -1          -1          -1          -1          -1
          -1          -1          -1          -1          -1          -1
          -1          -1          -1          -1          -1          -1
          -1          -1
Number of contracted shells                I               60
Number of primitive shells                 I              150
Pure/Cartesian d shells                    I                1
Pure/Cartesian f shells                    I                0
Highest angular momentum                   I                2
Largest degree of contraction              I                6
Shell types                                I   N=          60
           0          -1          -1           2           0          -1
          -1           2           0          -1          -1           2
           0          -1          -1           2           0          -1
          -1           2           0          -1          -1           2
           0          -1          -1           2           0          -1
          -1           2           0          -1          -1           2
           0          -1          -1           2           0           0
           0           0           0           0           0           0
           0           0           0           0           0           0
           0           0           0           0           0           0
Number of primitives per shell             I   N=          60
           6           3           1           1           6           3
           1           1           6           3           1           1
           6           3           1           1           6           3
           1           1           6           3           1           1
           6           3           1           1           6           3
           1           1           6           3           1           1
           6           3           1           1           3           1
           3           1           3           1           3           1
           3           1           3           1           3           1
           3           1           3           1           3           1
Shell to atom map                          I   N=          60
           1           1           1           1           2           2
           2           2           3           3           3           3
           4           4           4           4           5           5
           5           5           6           6           6           6
           7           7           7           7           8           8
           8           8           9           9           9           9
          10          10          10          10          11          11
          12          12          13          13          14          14
          15          15          16          16          17          17
          18          18          19          19          20          20
Primitive exponents                        R   N=         150
  4.17351146E+03  6.27457911E+02  1.42902093E+02  4.02343293E+01  1.28202129E+01
  4.39043701E+00  1.16263619E+01  2.71627981E+00  7.72218397E-01  2.12031498E-01
  8.00000000E-01  4.17351146E+03  6.27457911E+02  1.42902093E+02  4.02343293E+01
  1.28202129E+01  4.39043701E+00  1.16263619E+01  2.71627981E+00  7.72218397E-01
  2.12031498E-01  8.00000000E-01  3.04752488E+03  4.57369518E+02  1.03948685E+02
  2.92101553E+01  9.28666296E+00  3.16392696E+00  7.86827235E+00  1.88128854E+00
  5.44249258E-01  1.68714478E-01  8.00000000E-01  3.04752488E+03  4.57369518E+02
  1.03948685E+02  2.92101553E+01  9.28666296E+00  3.16392696E+00  7.86827235E+00
  1.88128854E+00  5.44249258E-01  1.68714478E-01  8.00000000E-01  3.04752488E+03
  4.57369518E+02  1.03948685E+02  2.92101553E+01  9.28666296E+00  3.16392696E+00
  7.86827235E+00  1.88128854E+00  5.44249258E-01  1.68714478E-01  8.00000000E-01
  3.04752488E+03  4.57369518E+02  1.03948685E+02  2.92101553E+01  9.28666296E+00
  3.16392696E+00  7.86827235E+00  1.88128854E+00  5.44249258E-01  1.68714478E-01
  8.00000000E-01  3.04752488E+03  4.57369518E+02  1.03948685E+02  2.92101553E+01
  9.28666296E+00  3.16392696E+00  7.86827235E+00  1.88128854E+00  5.44249258E-01
  1.68714478E-01  8.00000000E-01  3.04752488E+03  4.57369518E+02  1.03948685E+02
  2.92101553E+01  9.28666296E+00  3.16392696E+00  7.86827235E+00  1.88128854E+00
  5.44249258E-01  1.68714478E-01  8.00000000E-01  3.04752488E+03  4.57369518E+02
  1.03948685E+02  2.92101553E+01  9.28666296E+00  3.16392696E+00  7.86827235E+00
  1.88128854E+00  5.44249258E-01  1.68714478E-01  8.00000000E-01  3.04752488E+03
  4.57369518E+02  1.03948685E+02  2.92101553E+01  9.28666296E+00  3.16392696E+00
  7.86827235E+00  1.88128854E+00  5.44249258E-01  1.68714478E-01  8.00000000E-01
  1.87311370E+01  2.82539436E+00  6.40121692E-01  1.61277759E-01  1.87311370E+01
  2.82539436E+00  6.40121692E-01  1.61277759E-01  1.87311370E+01  2.82539436E+00
  6.40121692E-01  1.61277759E-01  1.87311370E+01  2.82539436E+00  6.40121692E-01
  1.61277759E-01  1.87311370E+01  2.82539436E+00  6.40121692E-01  1.61277759E-01
  1.87311370E+01  2.82539436E+00  6.40121692E-01  1.61277759E-01  1.87311370E+01
  2.82539436E+00  6.40121692E-01  1.61277759E-01  1.87311370E+01  2.82539436E+00
  6.40121692E-01  1.61277759E-01  1.87311370E+01  2.82539436E+00  6.40121692E-01
  1.61277759E-01  1.87311370E+01  2.82539436E+00  6.40121692E-01  1.61277759E-01
Contraction coefficients                   R   N=         150
  1.83477216E-03  1.39946270E-02  6.85865518E-02  2.32240873E-01  4.69069948E-01
  3.60455199E-01 -1.14961182E-01 -1.69117479E-01  1.14585195E+00  1.00000000E+00
  1.00000000E+00  1.83477216E-03  1.39946270E-02  6.85865518E-02  2.32240873E-01
  4.69069948E-01  3.60455199E-01 -1.14961182E-01 -1.69117479E-01  1.14585195E+00
  1.00000000E+00  1.00000000E+00  1.83473713E-03  1.40373228E-02  6.88426223E-02
  2.32184443E-01  4.67941348E-01  3.62311985E-01 -1.19332420E-01 -1.60854152E-01
  1.14345644E+00  1.00000000E+00  1.00000000E+00  1.83473713E-03  1.40373228E-02
  6.88426223E-02  2.32184443E-01  4.67941348E-01  3.62311985E-01 -1.19332420E-01
 -1.60854152E-01  1.14345644E+00  1.00000000E+00  1.00000000E+00  1.83473713E-03
  1.40373228E-02  6.88426223E-02  2.32184443E-01  4.67941348E-01  3.62311985E-01
 -1.19332420E-01 -1.60854152E-01  1.14345644E+00  1.00000000E+00  1.00000000E+00
  1.83473713E-03  1.40373228E-02  6.88426223E-02  2.32184443E-01  4.67941348E-01
  3.62311985E-01 -1.19332420E-01 -1.60854152E-01  1.14345644E+00  1.00000000E+00
  1.00000000E+00  1.83473713E-03  1.40373228E-02  6.88426223E-02  2.32184443E-01
  4.67941348E-01  3.62311985E-01 -1.19332420E-01 -1.60854152E-01  1.14345644E+00
  1.00000000E+00  1.00000000E+00  1.83473713E-03  1.40373228E-02  6.88426223E-02
  2.32184443E-01  4.67941348E-01  3.62311985E-01 -1.19332420E-01 -1.60854152E-01
  1.14345644E+00  1.00000000E+00  1.00000000E+00  1.83473713E-03  1.40373228E-02
  6.88426223E-02  2.32184443E-01  4.67941348E-01  3.62311985E-01 -1.19332420E-01
 -1.60854152E-01  1.14345644E+00  1.00000000E+00  1.00000000E+00  1.83473713E-03
  1.40373228E-02  6.88426223E-02  2.32184443E-01  4.67941348E-01  3.62311985E-01
 -1.19332420E-01 -1.60854152E-01  1.14345644E+00  1.00000000E+00  1.00000000E+00
  3.34946043E-02  2.34726953E-01  8.13757326E-01  1.00000000E+00  3.34946043E-02
  2.34726953E-01  8.13757326E-01  1.00000000E+00  3.34946043E-02  2.34726953E-01
  8.13757326E-01  1.00000000E+00  3.34946043E-02  2.34726953E-01  8.13757326E-01
  1.00000000E+00  3.34946043E-02  2.34726953E-01  8.13757326E-01  1.00000000E+00
  3.34946043E-02  2.34726953E-01  8.13757326E-01  1.00000000E+00  3.34946043E-02
  2.34726953E-01  8.13757326E-01  1.00000000E+00  3.34946043E-02  2.34726953E-01
  8.13757326E-01  1.00000000E+00  3.34946043E-02  2.34726953E-01  8.13757326E-01
  1.00000000E+00  3.34946043E-02  2.34726953E-01  8.13757326E-01  1.00000000E+00
P(S=P) Contraction coefficients            R   N=         150
  0.00000000E+00  0.00000000E+00  0.00000000E+00  0.00000000E+00  0.00000000E+00
  0.00000000E+00  6.75797439E-02  3.23907296E-01  7.40895140E-01  1.00000000E+00
  0.00000000E+00  0.00000000E+00  0.00000000E+00  0.00000000E+00  0.00000000E+00
  0.00000000E+00  0.00000000E+00  6.75797439E-02  3.23907296E-01  7.40895140E-01
  1.00000000E+00  0.00000000E+00  0.00000000E+00  0.00000000E+00  0.00000000E+00
  0.00000000E+00  0.00000000E+00  0.00000000E+00  6.89990666E-02  3.16423961E-01
  7.44308291E-01  1.00000000E+00  0.00000000E+00  0.00000000E+00  0.00000000E+00
  0.00000000E+00  0.00000000E+00  0.00000000E+00  0.00000000E+00  6.89990666E-02
  3.16423961E-01  7.44308291E-01  1.00000000E+00  0.00000000E+00  0.00000000E+00
  0.00000000E+00  0.00000000E+00  0.00000000E+00  0.00000000E+00  0.00000000E+00
  6.89990666E-02  3.16423961E-01  7.44308291E-01  1.00000000E+00  0.00000000E+00
  0.00000000E+00  0.00000000E+00  0.00000000E+00  0.00000000E+00  0.00000000E+00
  0.00000000E+00  6.89990666E-02  3.16423961E-01  7.44308291E-01  1.00000000E+00
  0.00000000E+00  0.00000000E+00  0.00000000E+00  0.00000000E+00  0.00000000E+00
  0.00000000E+00  0.00000000E+00  6.89990666E-02  3.16423961E-01  7.44308291E-01
  1.00000000E+00  0.00000000E+00  0.00000000E+00  0.00000000E+00  0.00000000E+00
  0.00000000E+00  0.00000000E+00  0.00000000E+00  6.89990666E-02  3.16423961E-01
  7.44308291E-01  1.00000000E+00  0.00000000E+00  0.00000000E+00  0.00000000E+00
  0.00000000E+00  0.00000000E+00  0.00000000E+00  0.00000000E+00  6.89990666E-02
  3.16423961E-01  7.44308291E-01  1.00000000E+00  0.00000000E+00  0.00000000E+00
  0.00000000E+00  0.00000000E+00  0.00000000E+00  0.00000000E+00  0.00000000E+00
  6.89990666E-02  3.16423961E-01  7.44308291E-01  1.00000000E+00  0.00000000E+00
  0.00000000E+00  0.00000000E+00  0.00000000E+00  0.00000000E+00  0.00000000E+00
  0.00000000E+00  0.00000000E+00  0.00000000E+00  0.00000000E+00  0.00000000E+00
  0.00000000E+00  0.00000000E+00  0.00000000E+00  0.00000000E+00  0.00000000E+00
  0.00000000E+00  0.00000000E+00  0.00000000E+00  0.00000000E+00  0.00000000E+00
  0.00000000E+00  0.00000000E+00  0.00000000E+00  0.00000000E+00  0.00000000E+00
  0.00000000E+00  0.00000000E+00  0.00000000E+00  0.00000000E+00  0.00000000E+00
  0.00000000E+00  0.00000000E+00  0.00000000E+00  0.00000000E+00  0.00000000E+00
  0.00000000E+00  0.00000000E+00  0.00000000E+00  0.00000000E+00  0.00000000E+00
Coordinates of each shell                  R   N=         180
  3.25696782E-01 -1.78062363E+00 -2.08173917E-02  3.25696782E-01 -1.78062363E+00
 -2.08173917E-02  3.25696782E-01 -1.78062363E+00 -2.08173917E-02  3.25696782E-01
 -1.78062363E+00 -2.08173917E-02 -4.17679695E-01  2.68809349E+00 -6.38434548E-03
 -4.17679695E-01  2.68809349E+00 -6.38434548E-03 -4.17679695E-01  2.68809349E+00
 -6.38434548E-03 -4.17679695E-01  2.68809349E+00 -6.38434548E-03  3.85414053E+00
  1.11254598E+00  1.46130229E-02  3.85414053E+00  1.11254598E+00  1.46130229E-02
  3.85414053E+00  1.11254598E+00  1.46130229E-02  3.85414053E+00  1.11254598E+00
  1.46130229E-02  5.57735883E+00 -6.76939389E-01 -1.40037172E+00  5.57735883E+00
 -6.76939389E-01 -1.40037172E+00  5.57735883E+00 -6.76939389E-01 -1.40037172E+00
  5.57735883E+00 -6.76939389E-01 -1.40037172E+00  5.56281175E+00 -6.97056133E-01
  1.42149012E+00  5.56281175E+00 -6.97056133E-01  1.42149012E+00  5.56281175E+00
 -6.97056133E-01  1.42149012E+00  5.56281175E+00 -6.97056133E-01  1.42149012E+00
  1.10363948E+00  6.45181041E-01 -2.05027460E-03  1.10363948E+00  6.45181041E-01
 -2.05027460E-03  1.10363948E+00  6.45181041E-01 -2.05027460E-03  1.10363948E+00
  6.45181041E-01 -2.05027460E-03 -3.94118549E+00 -2.01560254E-01 -2.02982834E-02
 -3.94118549E+00 -2.01560254E-01 -2.02982834E-02 -3.94118549E+00 -2.01560254E-01
 -2.02982834E-02 -3.94118549E+00 -2.01560254E-01 -2.02982834E-02 -2.17629585E+00
 -2.16532427E+00 -2.83817448E-02 -2.17629585E+00 -2.16532427E+00 -2.83817448E-02
 -2.17629585E+00 -2.16532427E+00 -2.83817448E-02 -2.17629585E+00 -2.16532427E+00
 -2.83817448E-02 -2.91091348E+00  2.22800395E+00 -1.40878851E-02 -2.91091348E+00
  2.22800395E+00 -1.40878851E-02 -2.91091348E+00  2.22800395E+00 -1.40878851E-02
 -2.91091348E+00  2.22800395E+00 -1.40878851E-02 -6.73961310E+00 -6.70855364E-01
  3.60561404E-02 -6.73961310E+00 -6.70855364E-01  3.60561404E-02 -6.73961310E+00
 -6.70855364E-01  3.60561404E-02 -6.73961310E+00 -6.70855364E-01  3.60561404E-02
  4.35324318E+00  3.10168039E+00  3.08897907E-02  4.35324318E+00  3.10168039E+00
  3.08897907E-02  7.18634174E+00  1.39031180E-01 -2.37558316E+00  7.18634174E+00
  1.39031180E-01 -2.37558316E+00  4.66056670E+00 -2.24146476E+00 -2.35590490E+00
  4.66056670E+00 -2.24146476E+00 -2.35590490E+00  4.63656084E+00 -2.27517405E+00
  2.34505182E+00  4.63656084E+00 -2.27517405E+00  2.34505182E+00  7.16159428E+00
  1.04746496E-01  2.42482671E+00  7.16159428E+00  1.04746496E-01  2.42482671E+00
 -2.79191155E+00 -4.13296315E+00 -5.42046196E-02 -2.79191155E+00 -4.13296315E+00
 -5.42046196E-02 -4.13462761E+00  3.88709510E+00 -2.81214618E-02 -4.13462761E+00
  3.88709510E+00 -2.81214618E-02 -7.21260508E+00 -2.43601218E+00 -9.28103305E-01
 -7.21260508E+00 -2.43601218E+00 -9.28103305E-01 -7.76434583E+00  8.64832872E-01
 -8.91439919E-01 -7.76434583E+00  8.64832872E-01 -8.91439919E-01 -7.43059228E+00
 -8.08034296E-01  1.98118495E+00 -7.43059228E+00 -8.08034296E-01  1.98118495E+00
Constraint Structure                       R   N=          60
  3.25696782E-01 -1.78062363E+00 -2.08173917E-02 -4.17679695E-01  2.68809349E+00
 -6.38434548E-03  3.85414053E+00  1.11254598E+00  1.46130229E-02  5.57735883E+00
 -6.76939389E-01 -1.40037172E+00  5.56281175E+00 -6.97056133E-01  1.42149012E+00
  1.10363948E+00  6.45181041E-01 -2.05027460E-03 -3.94118549E+00 -2.01560254E-01
 -2.02982834E-02 -2.17629585E+00 -2.16532427E+00 -2.83817448E-02 -2.91091348E+00
  2.22800395E+00 -1.40878851E-02 -6.73961310E+00 -6.70855364E-01  3.60561404E-02
  4.35324318E+00  3.10168039E+00  3.08897907E-02  7.18634174E+00  1.39031180E-01
 -2.37558316E+00  4.66056670E+00 -2.24146476E+00 -2.35590490E+00  4.63656084E+00
 -2.27517405E+00  2.34505182E+00  7.16159428E+00  1.04746496E-01  2.42482671E+00
 -2.79191155E+00 -4.13296315E+00 -5.42046196E-02 -4.13462761E+00  3.88709510E+00
 -2.81214618E-02 -7.21260508E+00 -2.43601218E+00 -9.28103305E-01 -7.76434583E+00
  8.64832872E-01 -8.91439919E-01 -7.43059228E+00 -8.08034296E-01  1.98118495E+00
Num ILSW                                   I              100
ILSW                                       I   N=         100
           0           1           0           0           2           0
           0           0           0           0           0          -1
           0           0           0           0           0           0
           0           0           0           0           1           0
           1           0           0           0           0           0
           0           0      100000           0          -1           0
           0           0           0           0           0           0
           0           0           0           1           1           0
           0           0           1           0           0           0
           0           0           4          40           0           0
           0           0           0           0           0           0
           0           0           0           0           0           0
           0           0           0           0           0           0
           0           0           0           0           0           0
           0           0           0           0           0           0
           0           0           0           0           0           0
           0           0           0           0
Num RLSW                                   I               40
RLSW                                       R   N=          40
  1.00000000E+00  1.00000000E+00  1.00000000E+00  1.00000000E+00  1.00000000E+00
  0.00000000E+00  0.00000000E+00  1.00000000E+00  0.00000000E+00  0.00000000E+00
  0.00000000E+00  0.00000000E+00  1.00000000E+00  0.00000000E+00  0.00000000E+00
  0.00000000E+00  0.00000000E+00  1.00000000E+00  0.00000000E+00  0.00000000E+00
  0.00000000E+00  0.00000000E+00  1.00000000E+00  0.00000000E+00  0.00000000E+00
  0.00000000E+00  0.00000000E+00  1.00000000E+00  0.00000000E+00  0.00000000E+00
  0.00000000E+00  0.00000000E+00  0.00000000E+00  0.00000000E+00  0.00000000E+00
  0.00000000E+00  0.00000000E+00  0.00000000E+00  1.00000000E+00  1.00000000E+00
MxBond                                     I                4
NBond                                      I   N=          20
           2           2           4           4           4           3
           3           3           3           4           1           1
           1           1           1           1           1           1
           1           1
IBond                                      I   N=          80
           6           8           0           0           6           9
           0           0           4           5           6          11
           3           5          12          13           3           4
          14          15           1           2           3           0
           8           9          10           0           1           7
          16           0           2           7          17           0
           7          18          19          20           3           0
           0           0           4           0           0           0
           4           0           0           0           5           0
           0           0           5           0           0           0
           8           0           0           0           9           0
           0           0          10           0           0           0
          10           0           0           0          10           0
           0           0
RBond                                      R   N=          80
  1.50000000E+00  1.50000000E+00  0.00000000E+00  0.00000000E+00  1.50000000E+00
  1.50000000E+00  0.00000000E+00  0.00000000E+00  1.00000000E+00  1.00000000E+00
  1.00000000E+00  1.00000000E+00  1.00000000E+00  1.00000000E+00  1.00000000E+00
  1.00000000E+00  1.00000000E+00  1.00000000E+00  1.00000000E+00  1.00000000E+00
  1.50000000E+00  1.50000000E+00  1.00000000E+00  0.00000000E+00  1.50000000E+00
  1.50000000E+00  1.00000000E+00  0.00000000E+00  1.50000000E+00  1.50000000E+00
  1.00000000E+00  0.00000000E+00  1.50000000E+00  1.50000000E+00  1.00000000E+00
  0.00000000E+00  1.00000000E+00  1.00000000E+00  1.00000000E+00  1.00000000E+00
  1.00000000E+00  0.00000000E+00  0.00000000E+00  0.00000000E+00  1.00000000E+00
  0.00000000E+00  0.00000000E+00  0.00000000E+00  1.00000000E+00  0.00000000E+00
  0.00000000E+00  0.00000000E+00  1.00000000E+00  0.00000000E+00  0.00000000E+00
  0.00000000E+00  1.00000000E+00  0.00000000E+00  0.00000000E+00  0.00000000E+00
  1.00000000E+00  0.00000000E+00  0.00000000E+00  0.00000000E+00  1.00000000E+00
  0.00000000E+00  0.00000000E+00  0.00000000E+00  1.00000000E+00  0.00000000E+00
  0.00000000E+00  0.00000000E+00  1.00000000E+00  0.00000000E+00  0.00000000E+00
  0.00000000E+00  1.00000000E+00  0.00000000E+00  0.00000000E+00  0.00000000E+00
Virial Ratio                               R      2.002137463292244E+00
SCF Energy                                 R     -4.176406396827650E+02
MP2 Energy                                 R     -4.189851567731419E+02
Total Energy                               R     -4.189851567731419E+02
Post-SCF wavefunction norm                 R      1.713694103278806E+00
RMS Force                                  R      4.731531557432901E-08
RMS Density                                R      7.109052039570153E-10
External E-field                           R   N=          35
  0.00000000E+00  0.00000000E+00  0.00000000E+00  0.00000000E+00  0.00000000E+00
  0.00000000E+00  0.00000000E+00  0.00000000E+00  0.00000000E+00  0.00000000E+00
  0.00000000E+00  0.00000000E+00  0.00000000E+00  0.00000000E+00  0.00000000E+00
  0.00000000E+00  0.00000000E+00  0.00000000E+00  0.00000000E+00  0.00000000E+00
  0.00000000E+00  0.00000000E+00  0.00000000E+00  0.00000000E+00  0.00000000E+00
  0.00000000E+00  0.00000000E+00  0.00000000E+00  0.00000000E+00  0.00000000E+00
  0.00000000E+00  0.00000000E+00  0.00000000E+00  0.00000000E+00  0.00000000E+00
IOpCl                                      I                0
IROHF                                      I                0
Alpha Orbital Energies                     R   N=         170
 -1.55675026E+01 -1.55664441E+01 -1.13133061E+01 -1.12925777E+01 -1.12908854E+01
 -1.12470126E+01 -1.12388507E+01 -1.12292373E+01 -1.12244623E+01 -1.12238031E+01
 -1.30069975E+00 -1.18106685E+00 -1.14518090E+00 -1.08710949E+00 -9.66031234E-01
 -8.89299300E-01 -8.72830583E-01 -8.16130425E-01 -7.94124914E-01 -7.13227105E-01
 -6.92315579E-01 -6.43743118E-01 -6.11581262E-01 -5.96611231E-01 -5.89697303E-01
 -5.80844812E-01 -5.55462855E-01 -5.54810641E-01 -5.21240997E-01 -5.09131428E-01
 -4.67982334E-01 -4.30717324E-01 -4.20459227E-01 -4.09894700E-01 -3.98389103E-01
 -3.31204873E-01  1.09787551E-01  1.31644986E-01  2.38451894E-01  2.52259797E-01
  2.75973957E-01  2.81859931E-01  2.91967552E-01  2.96289374E-01  3.13219050E-01
  3.17163007E-01  3.37490117E-01  3.43440602E-01  3.74546658E-01  3.90527781E-01
  3.97862061E-01  4.07742435E-01  4.49884099E-01  4.55548317E-01  4.61219928E-01
  4.97512549E-01  5.37381607E-01  5.56940475E-01  5.91163201E-01  6.20258755E-01
  7.11297371E-01  7.19158023E-01  7.51736802E-01  7.72426571E-01  7.87422443E-01
  7.88378185E-01  8.04529432E-01  8.16967673E-01  8.30339152E-01  8.46263182E-01
  8.52704433E-01  8.86380683E-01  9.01238699E-01  9.11324026E-01  9.14105713E-01
  9.25217842E-01  9.44541384E-01  9.56484867E-01  9.70620215E-01  9.88335251E-01
  1.01765416E+00  1.07257797E+00  1.08119608E+00  1.08731179E+00  1.10018607E+00
  1.10730098E+00  1.13273387E+00  1.13711797E+00  1.14336534E+00  1.15291452E+00
  1.17659530E+00  1.18379009E+00  1.20098363E+00  1.21886375E+00  1.24754528E+00
  1.25634092E+00  1.28205657E+00  1.28287820E+00  1.30977205E+00  1.34157289E+00
  1.35797843E+00  1.41760876E+00  1.42556201E+00  1.46428842E+00  1.56323604E+00
  1.59340789E+00  1.60978166E+00  1.64236805E+00  1.70079538E+00  1.71894767E+00
  1.74704231E+00  1.77231618E+00  1.78718133E+00  1.80636024E+00  1.86479115E+00
  1.93329979E+00  1.98670564E+00  2.06191746E+00  2.11832480E+00  2.14279169E+00
  2.14584174E+00  2.15631326E+00  2.16797968E+00  2.17490227E+00  2.19063572E+00
  2.20029836E+00  2.21715449E+00  2.25431372E+00  2.32550985E+00  2.37309491E+00
  2.43636350E+00  2.44716406E+00  2.46400974E+00  2.49567539E+00  2.52685030E+00
  2.56078718E+00  2.58649548E+00  2.62190968E+00  2.64025392E+00  2.64799417E+00
  2.65578949E+00  2.70454344E+00  2.72426437E+00  2.74236735E+00  2.77448571E+00
  2.78394985E+00  2.86513858E+00  2.87312480E+00  2.92428257E+00  2.95405336E+00
  2.97858992E+00  3.05392511E+00  3.11221849E+00  3.14055852E+00  3.17449820E+00
  3.17805165E+00  3.27864846E+00  3.31728493E+00  3.55192412E+00  3.76138749E+00
  4.47705917E+00  4.49818249E+00  4.58917096E+00  4.62688924E+00  4.65774920E+00
  4.69242424E+00  4.73864258E+00  4.82582288E+00  4.95457751E+00  5.02810049E+00
Alpha MO coefficients                      R   N=       28900
  9.95159254E-01  2.51086834E-02 -1.29302716E-03  1.48952856E-03  8.99644787E-06
 -7.43093156E-03  1.35150858E-03 -2.86740903E-03 -1.73125890E-05 -2.71946109E-03
 -2.78661884E-03 -3.10660665E-03  8.52724028E-05  1.20465995E-06  2.96629479E-06