204_SalicylicAcid Gaussian SP Calculation on node58.bme.utexas.edu      
Freq      RMP2-FC                                                     6-31G(d)            
Number of atoms                            I               16
Info1-9                                    I   N=           9
          27          26        1002           0           0         100
           6           2           1
Charge                                     I                0
Multiplicity                               I                1
Number of electrons                        I               72
Number of alpha electrons                  I               36
Number of beta electrons                   I               36
Number of basis functions                  I              162
Number of independent functions            I              162
Number of point charges in /Mol/           I                0
Number of translation vectors              I                0
Atomic numbers                             I   N=          16
           8           8           8           6           6           6
           6           6           6           6           1           1
           1           1           1           1
Nuclear charges                            R   N=          16
  8.00000000E+00  8.00000000E+00  8.00000000E+00  6.00000000E+00  6.00000000E+00
  6.00000000E+00  6.00000000E+00  6.00000000E+00  6.00000000E+00  6.00000000E+00
  1.00000000E+00  1.00000000E+00  1.00000000E+00  1.00000000E+00  1.00000000E+00
  1.00000000E+00
Current cartesian coordinates              R   N=          48
 -1.94000799E-01  4.09357413E+00 -2.97746657E-01 -4.26793359E+00 -2.52375149E+00
 -6.95196481E-01 -4.51837769E+00  1.47738470E+00  7.98221641E-01 -4.21330012E-01
 -4.01483247E-01  3.02861351E-02  1.02665251E+00  1.82632805E+00 -1.07875771E-01
  8.19087509E-01 -2.73918297E+00  1.74362568E-01  3.66665507E+00  1.66596399E+00
 -1.04933547E-01  3.44540494E+00 -2.88482505E+00  1.92177394E-01  4.86982874E+00
 -6.69099645E-01  5.68126521E-02 -3.22519860E+00 -2.97184795E-01  1.04904253E-01
 -3.14106015E-01 -4.44557181E+00  2.71786404E-01  4.78153871E+00  3.39267373E+00
 -2.23413912E-01  4.37429934E+00 -4.71108510E+00  3.18005979E-01  6.92297280E+00
 -7.49410180E-01  6.55319223E-02  1.08375880E+00  5.41103208E+00 -4.49450357E-01
 -6.09256797E+00 -2.27839534E+00 -4.99090165E-01
Force Field                                I                0
Int Atom Types                             I   N=          16
           0           0           0           0           0           0
           0           0           0           0           0           0
           0           0           0           0
MM charges                                 R   N=          16
  0.00000000E+00  0.00000000E+00  0.00000000E+00  0.00000000E+00  0.00000000E+00
  0.00000000E+00  0.00000000E+00  0.00000000E+00  0.00000000E+00  0.00000000E+00
  0.00000000E+00  0.00000000E+00  0.00000000E+00  0.00000000E+00  0.00000000E+00
  0.00000000E+00
Integer atomic weights                     I   N=          16
          16          16          16          12          12          12
          12          12          12          12           1           1
           1           1           1           1
Real atomic weights                        R   N=          16
  1.59949146E+01  1.59949146E+01  1.59949146E+01  1.20000000E+01  1.20000000E+01
  1.20000000E+01  1.20000000E+01  1.20000000E+01  1.20000000E+01  1.20000000E+01
  1.00782504E+00  1.00782504E+00  1.00782504E+00  1.00782504E+00  1.00782504E+00
  1.00782504E+00
Atom fragment info                         I   N=          16
           0           0           0           0           0           0
           0           0           0           0           0           0
           0           0           0           0
Atom residue num                           I   N=          16
           0           0           0           0           0           0
           0           0           0           0           0           0
           0           0           0           0
Nuclear spins                              I   N=          16
           0           0           0           0           0           0
           0           0           0           0           1           1
           1           1           1           1
Nuclear ZEff                               R   N=          16
 -5.60000000E+00 -5.60000000E+00 -5.60000000E+00 -3.60000000E+00 -3.60000000E+00
 -3.60000000E+00 -3.60000000E+00 -3.60000000E+00 -3.60000000E+00 -3.60000000E+00
 -1.00000000E+00 -1.00000000E+00 -1.00000000E+00 -1.00000000E+00 -1.00000000E+00
 -1.00000000E+00
Nuclear QMom                               R   N=          16
  0.00000000E+00  0.00000000E+00  0.00000000E+00  0.00000000E+00  0.00000000E+00
  0.00000000E+00  0.00000000E+00  0.00000000E+00  0.00000000E+00  0.00000000E+00
  0.00000000E+00  0.00000000E+00  0.00000000E+00  0.00000000E+00  0.00000000E+00
  0.00000000E+00
Nuclear GFac                               R   N=          16
  0.00000000E+00  0.00000000E+00  0.00000000E+00  0.00000000E+00  0.00000000E+00
  0.00000000E+00  0.00000000E+00  0.00000000E+00  0.00000000E+00  0.00000000E+00
  2.79284600E+00  2.79284600E+00  2.79284600E+00  2.79284600E+00  2.79284600E+00
  2.79284600E+00
MicOpt                                     I   N=          16
          -1          -1          -1          -1          -1          -1
          -1          -1          -1          -1          -1          -1
          -1          -1          -1          -1
Number of contracted shells                I               52
Number of primitive shells                 I              134
Pure/Cartesian d shells                    I                1
Pure/Cartesian f shells                    I                0
Highest angular momentum                   I                2
Largest degree of contraction              I                6
Shell types                                I   N=          52
           0          -1          -1           2           0          -1
          -1           2           0          -1          -1           2
           0          -1          -1           2           0          -1
          -1           2           0          -1          -1           2
           0          -1          -1           2           0          -1
          -1           2           0          -1          -1           2
           0          -1          -1           2           0           0
           0           0           0           0           0           0
           0           0           0           0
Number of primitives per shell             I   N=          52
           6           3           1           1           6           3
           1           1           6           3           1           1
           6           3           1           1           6           3
           1           1           6           3           1           1
           6           3           1           1           6           3
           1           1           6           3           1           1
           6           3           1           1           3           1
           3           1           3           1           3           1
           3           1           3           1
Shell to atom map                          I   N=          52
           1           1           1           1           2           2
           2           2           3           3           3           3
           4           4           4           4           5           5
           5           5           6           6           6           6
           7           7           7           7           8           8
           8           8           9           9           9           9
          10          10          10          10          11          11
          12          12          13          13          14          14
          15          15          16          16
Primitive exponents                        R   N=         134
  5.48467166E+03  8.25234946E+02  1.88046958E+02  5.29645000E+01  1.68975704E+01
  5.79963534E+00  1.55396162E+01  3.59993359E+00  1.01376175E+00  2.70005823E-01
  8.00000000E-01  5.48467166E+03  8.25234946E+02  1.88046958E+02  5.29645000E+01
  1.68975704E+01  5.79963534E+00  1.55396162E+01  3.59993359E+00  1.01376175E+00
  2.70005823E-01  8.00000000E-01  5.48467166E+03  8.25234946E+02  1.88046958E+02
  5.29645000E+01  1.68975704E+01  5.79963534E+00  1.55396162E+01  3.59993359E+00
  1.01376175E+00  2.70005823E-01  8.00000000E-01  3.04752488E+03  4.57369518E+02
  1.03948685E+02  2.92101553E+01  9.28666296E+00  3.16392696E+00  7.86827235E+00
  1.88128854E+00  5.44249258E-01  1.68714478E-01  8.00000000E-01  3.04752488E+03
  4.57369518E+02  1.03948685E+02  2.92101553E+01  9.28666296E+00  3.16392696E+00
  7.86827235E+00  1.88128854E+00  5.44249258E-01  1.68714478E-01  8.00000000E-01
  3.04752488E+03  4.57369518E+02  1.03948685E+02  2.92101553E+01  9.28666296E+00
  3.16392696E+00  7.86827235E+00  1.88128854E+00  5.44249258E-01  1.68714478E-01
  8.00000000E-01  3.04752488E+03  4.57369518E+02  1.03948685E+02  2.92101553E+01
  9.28666296E+00  3.16392696E+00  7.86827235E+00  1.88128854E+00  5.44249258E-01
  1.68714478E-01  8.00000000E-01  3.04752488E+03  4.57369518E+02  1.03948685E+02
  2.92101553E+01  9.28666296E+00  3.16392696E+00  7.86827235E+00  1.88128854E+00
  5.44249258E-01  1.68714478E-01  8.00000000E-01  3.04752488E+03  4.57369518E+02
  1.03948685E+02  2.92101553E+01  9.28666296E+00  3.16392696E+00  7.86827235E+00
  1.88128854E+00  5.44249258E-01  1.68714478E-01  8.00000000E-01  3.04752488E+03
  4.57369518E+02  1.03948685E+02  2.92101553E+01  9.28666296E+00  3.16392696E+00
  7.86827235E+00  1.88128854E+00  5.44249258E-01  1.68714478E-01  8.00000000E-01
  1.87311370E+01  2.82539436E+00  6.40121692E-01  1.61277759E-01  1.87311370E+01
  2.82539436E+00  6.40121692E-01  1.61277759E-01  1.87311370E+01  2.82539436E+00
  6.40121692E-01  1.61277759E-01  1.87311370E+01  2.82539436E+00  6.40121692E-01
  1.61277759E-01  1.87311370E+01  2.82539436E+00  6.40121692E-01  1.61277759E-01
  1.87311370E+01  2.82539436E+00  6.40121692E-01  1.61277759E-01
Contraction coefficients                   R   N=         134
  1.83107443E-03  1.39501722E-02  6.84450781E-02  2.32714336E-01  4.70192898E-01
  3.58520853E-01 -1.10777550E-01 -1.48026263E-01  1.13076702E+00  1.00000000E+00
  1.00000000E+00  1.83107443E-03  1.39501722E-02  6.84450781E-02  2.32714336E-01
  4.70192898E-01  3.58520853E-01 -1.10777550E-01 -1.48026263E-01  1.13076702E+00
  1.00000000E+00  1.00000000E+00  1.83107443E-03  1.39501722E-02  6.84450781E-02
  2.32714336E-01  4.70192898E-01  3.58520853E-01 -1.10777550E-01 -1.48026263E-01
  1.13076702E+00  1.00000000E+00  1.00000000E+00  1.83473713E-03  1.40373228E-02
  6.88426223E-02  2.32184443E-01  4.67941348E-01  3.62311985E-01 -1.19332420E-01
 -1.60854152E-01  1.14345644E+00  1.00000000E+00  1.00000000E+00  1.83473713E-03
  1.40373228E-02  6.88426223E-02  2.32184443E-01  4.67941348E-01  3.62311985E-01
 -1.19332420E-01 -1.60854152E-01  1.14345644E+00  1.00000000E+00  1.00000000E+00
  1.83473713E-03  1.40373228E-02  6.88426223E-02  2.32184443E-01  4.67941348E-01
  3.62311985E-01 -1.19332420E-01 -1.60854152E-01  1.14345644E+00  1.00000000E+00
  1.00000000E+00  1.83473713E-03  1.40373228E-02  6.88426223E-02  2.32184443E-01
  4.67941348E-01  3.62311985E-01 -1.19332420E-01 -1.60854152E-01  1.14345644E+00
  1.00000000E+00  1.00000000E+00  1.83473713E-03  1.40373228E-02  6.88426223E-02
  2.32184443E-01  4.67941348E-01  3.62311985E-01 -1.19332420E-01 -1.60854152E-01
  1.14345644E+00  1.00000000E+00  1.00000000E+00  1.83473713E-03  1.40373228E-02
  6.88426223E-02  2.32184443E-01  4.67941348E-01  3.62311985E-01 -1.19332420E-01
 -1.60854152E-01  1.14345644E+00  1.00000000E+00  1.00000000E+00  1.83473713E-03
  1.40373228E-02  6.88426223E-02  2.32184443E-01  4.67941348E-01  3.62311985E-01
 -1.19332420E-01 -1.60854152E-01  1.14345644E+00  1.00000000E+00  1.00000000E+00
  3.34946043E-02  2.34726953E-01  8.13757326E-01  1.00000000E+00  3.34946043E-02
  2.34726953E-01  8.13757326E-01  1.00000000E+00  3.34946043E-02  2.34726953E-01
  8.13757326E-01  1.00000000E+00  3.34946043E-02  2.34726953E-01  8.13757326E-01
  1.00000000E+00  3.34946043E-02  2.34726953E-01  8.13757326E-01  1.00000000E+00
  3.34946043E-02  2.34726953E-01  8.13757326E-01  1.00000000E+00
P(S=P) Contraction coefficients            R   N=         134
  0.00000000E+00  0.00000000E+00  0.00000000E+00  0.00000000E+00  0.00000000E+00
  0.00000000E+00  7.08742682E-02  3.39752839E-01  7.27158577E-01  1.00000000E+00
  0.00000000E+00  0.00000000E+00  0.00000000E+00  0.00000000E+00  0.00000000E+00
  0.00000000E+00  0.00000000E+00  7.08742682E-02  3.39752839E-01  7.27158577E-01
  1.00000000E+00  0.00000000E+00  0.00000000E+00  0.00000000E+00  0.00000000E+00
  0.00000000E+00  0.00000000E+00  0.00000000E+00  7.08742682E-02  3.39752839E-01
  7.27158577E-01  1.00000000E+00  0.00000000E+00  0.00000000E+00  0.00000000E+00
  0.00000000E+00  0.00000000E+00  0.00000000E+00  0.00000000E+00  6.89990666E-02
  3.16423961E-01  7.44308291E-01  1.00000000E+00  0.00000000E+00  0.00000000E+00
  0.00000000E+00  0.00000000E+00  0.00000000E+00  0.00000000E+00  0.00000000E+00
  6.89990666E-02  3.16423961E-01  7.44308291E-01  1.00000000E+00  0.00000000E+00
  0.00000000E+00  0.00000000E+00  0.00000000E+00  0.00000000E+00  0.00000000E+00
  0.00000000E+00  6.89990666E-02  3.16423961E-01  7.44308291E-01  1.00000000E+00
  0.00000000E+00  0.00000000E+00  0.00000000E+00  0.00000000E+00  0.00000000E+00
  0.00000000E+00  0.00000000E+00  6.89990666E-02  3.16423961E-01  7.44308291E-01
  1.00000000E+00  0.00000000E+00  0.00000000E+00  0.00000000E+00  0.00000000E+00
  0.00000000E+00  0.00000000E+00  0.00000000E+00  6.89990666E-02  3.16423961E-01
  7.44308291E-01  1.00000000E+00  0.00000000E+00  0.00000000E+00  0.00000000E+00
  0.00000000E+00  0.00000000E+00  0.00000000E+00  0.00000000E+00  6.89990666E-02
  3.16423961E-01  7.44308291E-01  1.00000000E+00  0.00000000E+00  0.00000000E+00
  0.00000000E+00  0.00000000E+00  0.00000000E+00  0.00000000E+00  0.00000000E+00
  6.89990666E-02  3.16423961E-01  7.44308291E-01  1.00000000E+00  0.00000000E+00
  0.00000000E+00  0.00000000E+00  0.00000000E+00  0.00000000E+00  0.00000000E+00
  0.00000000E+00  0.00000000E+00  0.00000000E+00  0.00000000E+00  0.00000000E+00
  0.00000000E+00  0.00000000E+00  0.00000000E+00  0.00000000E+00  0.00000000E+00
  0.00000000E+00  0.00000000E+00  0.00000000E+00  0.00000000E+00  0.00000000E+00
  0.00000000E+00  0.00000000E+00  0.00000000E+00  0.00000000E+00
Coordinates of each shell                  R   N=         156
 -1.94000799E-01  4.09357413E+00 -2.97746657E-01 -1.94000799E-01  4.09357413E+00
 -2.97746657E-01 -1.94000799E-01  4.09357413E+00 -2.97746657E-01 -1.94000799E-01
  4.09357413E+00 -2.97746657E-01 -4.26793359E+00 -2.52375149E+00 -6.95196481E-01
 -4.26793359E+00 -2.52375149E+00 -6.95196481E-01 -4.26793359E+00 -2.52375149E+00
 -6.95196481E-01 -4.26793359E+00 -2.52375149E+00 -6.95196481E-01 -4.51837769E+00
  1.47738470E+00  7.98221641E-01 -4.51837769E+00  1.47738470E+00  7.98221641E-01
 -4.51837769E+00  1.47738470E+00  7.98221641E-01 -4.51837769E+00  1.47738470E+00
  7.98221641E-01 -4.21330012E-01 -4.01483247E-01  3.02861351E-02 -4.21330012E-01
 -4.01483247E-01  3.02861351E-02 -4.21330012E-01 -4.01483247E-01  3.02861351E-02
 -4.21330012E-01 -4.01483247E-01  3.02861351E-02  1.02665251E+00  1.82632805E+00
 -1.07875771E-01  1.02665251E+00  1.82632805E+00 -1.07875771E-01  1.02665251E+00
  1.82632805E+00 -1.07875771E-01  1.02665251E+00  1.82632805E+00 -1.07875771E-01
  8.19087509E-01 -2.73918297E+00  1.74362568E-01  8.19087509E-01 -2.73918297E+00
  1.74362568E-01  8.19087509E-01 -2.73918297E+00  1.74362568E-01  8.19087509E-01
 -2.73918297E+00  1.74362568E-01  3.66665507E+00  1.66596399E+00 -1.04933547E-01
  3.66665507E+00  1.66596399E+00 -1.04933547E-01  3.66665507E+00  1.66596399E+00
 -1.04933547E-01  3.66665507E+00  1.66596399E+00 -1.04933547E-01  3.44540494E+00
 -2.88482505E+00  1.92177394E-01  3.44540494E+00 -2.88482505E+00  1.92177394E-01
  3.44540494E+00 -2.88482505E+00  1.92177394E-01  3.44540494E+00 -2.88482505E+00
  1.92177394E-01  4.86982874E+00 -6.69099645E-01  5.68126521E-02  4.86982874E+00
 -6.69099645E-01  5.68126521E-02  4.86982874E+00 -6.69099645E-01  5.68126521E-02
  4.86982874E+00 -6.69099645E-01  5.68126521E-02 -3.22519860E+00 -2.97184795E-01
  1.04904253E-01 -3.22519860E+00 -2.97184795E-01  1.04904253E-01 -3.22519860E+00
 -2.97184795E-01  1.04904253E-01 -3.22519860E+00 -2.97184795E-01  1.04904253E-01
 -3.14106015E-01 -4.44557181E+00  2.71786404E-01 -3.14106015E-01 -4.44557181E+00
  2.71786404E-01  4.78153871E+00  3.39267373E+00 -2.23413912E-01  4.78153871E+00
  3.39267373E+00 -2.23413912E-01  4.37429934E+00 -4.71108510E+00  3.18005979E-01
  4.37429934E+00 -4.71108510E+00  3.18005979E-01  6.92297280E+00 -7.49410180E-01
  6.55319223E-02  6.92297280E+00 -7.49410180E-01  6.55319223E-02  1.08375880E+00
  5.41103208E+00 -4.49450357E-01  1.08375880E+00  5.41103208E+00 -4.49450357E-01
 -6.09256797E+00 -2.27839534E+00 -4.99090165E-01 -6.09256797E+00 -2.27839534E+00
 -4.99090165E-01
Constraint Structure                       R   N=          48
 -1.94000799E-01  4.09357413E+00 -2.97746657E-01 -4.26793359E+00 -2.52375149E+00
 -6.95196481E-01 -4.51837769E+00  1.47738470E+00  7.98221641E-01 -4.21330012E-01
 -4.01483247E-01  3.02861351E-02  1.02665251E+00  1.82632805E+00 -1.07875771E-01
  8.19087509E-01 -2.73918297E+00  1.74362568E-01  3.66665507E+00  1.66596399E+00
 -1.04933547E-01  3.44540494E+00 -2.88482505E+00  1.92177394E-01  4.86982874E+00
 -6.69099645E-01  5.68126521E-02 -3.22519860E+00 -2.97184795E-01  1.04904253E-01
 -3.14106015E-01 -4.44557181E+00  2.71786404E-01  4.78153871E+00  3.39267373E+00
 -2.23413912E-01  4.37429934E+00 -4.71108510E+00  3.18005979E-01  6.92297280E+00
 -7.49410180E-01  6.55319223E-02  1.08375880E+00  5.41103208E+00 -4.49450357E-01
 -6.09256797E+00 -2.27839534E+00 -4.99090165E-01
Num ILSW                                   I              100
ILSW                                       I   N=         100
           0           1           0           1           2           0
           0           0           0           0           0          -1
           0           0           0           0           0           0
           0           0           0           0           1           0
           1           0           0           0           0           0
           0           0      100000           0          -1           0
           0           0           0           0           0           0
           0           0           0           1           1           0
           0           0           1           0           0           0
           0           0           4          40           0           0
           0           0           0           0           0           0
           0           0           0           0           0           0
           0           0           0           0           0           0
           0           0           0           0           0           0
           0           0           0           0           0           0
           0           0           0           0           0           0
           0           0           0           0
Num RLSW                                   I               40
RLSW                                       R   N=          40
  1.00000000E+00  1.00000000E+00  1.00000000E+00  1.00000000E+00  1.00000000E+00
  0.00000000E+00  0.00000000E+00  1.00000000E+00  0.00000000E+00  0.00000000E+00
  0.00000000E+00  0.00000000E+00  1.00000000E+00  0.00000000E+00  0.00000000E+00
  0.00000000E+00  0.00000000E+00  1.00000000E+00  0.00000000E+00  0.00000000E+00
  0.00000000E+00  0.00000000E+00  1.00000000E+00  0.00000000E+00  0.00000000E+00
  0.00000000E+00  0.00000000E+00  1.00000000E+00  0.00000000E+00  0.00000000E+00
  0.00000000E+00  0.00000000E+00  0.00000000E+00  0.00000000E+00  0.00000000E+00
  0.00000000E+00  0.00000000E+00  0.00000000E+00  1.00000000E+00  1.00000000E+00
MxBond                                     I                3
NBond                                      I   N=          16
           2           2           1           3           3           3
           3           3           3           3           1           1
           1           1           1           1
IBond                                      I   N=          48
           5          15           0          10          16           0
          10           0           0           5           6          10
           1           4           7           4           8          11
           5           9          12           6           9          13
           7           8          14           2           3           4
           6           0           0           7           0           0
           8           0           0           9           0           0
           1           0           0           2           0           0
RBond                                      R   N=          48
  1.50000000E+00  1.00000000E+00  0.00000000E+00  1.50000000E+00  1.00000000E+00
  0.00000000E+00  2.00000000E+00  0.00000000E+00  0.00000000E+00  1.50000000E+00
  1.50000000E+00  1.00000000E+00  1.50000000E+00  1.50000000E+00  1.50000000E+00
  1.50000000E+00  1.50000000E+00  1.00000000E+00  1.50000000E+00  1.50000000E+00
  1.00000000E+00  1.50000000E+00  1.50000000E+00  1.00000000E+00  1.50000000E+00
  1.50000000E+00  1.00000000E+00  1.50000000E+00  2.00000000E+00  1.00000000E+00
  1.00000000E+00  0.00000000E+00  0.00000000E+00  1.00000000E+00  0.00000000E+00
  0.00000000E+00  1.00000000E+00  0.00000000E+00  0.00000000E+00  1.00000000E+00
  0.00000000E+00  0.00000000E+00  1.00000000E+00  0.00000000E+00  0.00000000E+00
  1.00000000E+00  0.00000000E+00  0.00000000E+00
Virial Ratio                               R      2.002882890602217E+00
SCF Energy                                 R     -4.931647313901984E+02
MP2 Energy                                 R     -4.945809171845984E+02
Total Energy                               R     -4.945809171845984E+02
Post-SCF wavefunction norm                 R      1.712876872452509E+00
RMS Force                                  R      4.283696115097064E-07
RMS Density                                R      1.528238731074879E-09
External E-field                           R   N=          35
  0.00000000E+00  0.00000000E+00  0.00000000E+00  0.00000000E+00  0.00000000E+00
  0.00000000E+00  0.00000000E+00  0.00000000E+00  0.00000000E+00  0.00000000E+00
  0.00000000E+00  0.00000000E+00  0.00000000E+00  0.00000000E+00  0.00000000E+00
  0.00000000E+00  0.00000000E+00  0.00000000E+00  0.00000000E+00  0.00000000E+00
  0.00000000E+00  0.00000000E+00  0.00000000E+00  0.00000000E+00  0.00000000E+00
  0.00000000E+00  0.00000000E+00  0.00000000E+00  0.00000000E+00  0.00000000E+00
  0.00000000E+00  0.00000000E+00  0.00000000E+00  0.00000000E+00  0.00000000E+00
IOpCl                                      I                0
IROHF                                      I                0
Alpha Orbital Energies                     R   N=         162
 -2.06124361E+01 -2.06047063E+01 -2.05465139E+01 -1.13886255E+01 -1.13282779E+01
 -1.12639848E+01 -1.12606082E+01 -1.12535674E+01 -1.12482498E+01 -1.12409412E+01
 -1.44874153E+00 -1.41010614E+00 -1.34276466E+00 -1.16252245E+00 -1.05022283E+00
 -1.01847955E+00 -8.92713034E-01 -8.56912106E-01 -7.96194561E-01 -7.40825594E-01
 -7.03561099E-01 -6.90252749E-01 -6.69943299E-01 -6.38558205E-01 -6.19914630E-01
 -6.17247320E-01 -5.89286992E-01 -5.82680802E-01 -5.72965834E-01 -5.31488970E-01
 -5.18842669E-01 -4.91668335E-01 -4.68170057E-01 -4.37942318E-01 -3.55618518E-01
 -3.25438358E-01  9.43538597E-02  1.43191191E-01  2.10434403E-01  2.26533937E-01
  2.30941021E-01  2.43090932E-01  2.89002471E-01  3.13430544E-01  3.31363964E-01
  3.72991997E-01  4.14449618E-01  4.33183467E-01  4.66743547E-01  4.68039792E-01
  5.05961195E-01  5.16302606E-01  5.70576121E-01  5.97808189E-01  6.91587684E-01
  7.13329620E-01  7.28041063E-01  7.50857213E-01  7.65584713E-01  7.68706414E-01
  8.05404238E-01  8.13436597E-01  8.17535711E-01  8.21049329E-01  8.34033052E-01
  8.63457467E-01  8.68889009E-01  8.91843166E-01  9.29159833E-01  9.39104715E-01
  9.66905441E-01  1.00411385E+00  1.02509296E+00  1.06090480E+00  1.07918685E+00
  1.08909724E+00  1.09812921E+00  1.12273186E+00  1.13281729E+00  1.14847140E+00
  1.17988226E+00  1.19683959E+00  1.21335161E+00  1.22075440E+00  1.25524720E+00
  1.27159894E+00  1.28228615E+00  1.30221981E+00  1.33119908E+00  1.35725825E+00
  1.36242475E+00  1.41475958E+00  1.44782806E+00  1.47680916E+00  1.51695732E+00
  1.56727331E+00  1.59391367E+00  1.61740216E+00  1.64741127E+00  1.67251536E+00
  1.68154663E+00  1.70476820E+00  1.72963069E+00  1.73870239E+00  1.76504262E+00
  1.78991685E+00  1.95033577E+00  1.98113754E+00  2.01155468E+00  2.01986749E+00
  2.04502241E+00  2.05229775E+00  2.07430402E+00  2.10805657E+00  2.14267982E+00
  2.16352722E+00  2.17414542E+00  2.21522416E+00  2.22134329E+00  2.25654797E+00
  2.29293993E+00  2.29817828E+00  2.32994028E+00  2.36327116E+00  2.41910685E+00
  2.43856525E+00  2.45550407E+00  2.54557423E+00  2.59384332E+00  2.60556973E+00
  2.62009551E+00  2.65184927E+00  2.70591943E+00  2.73398354E+00  2.78244489E+00
  2.81133041E+00  2.86473787E+00  2.90680461E+00  2.95125142E+00  2.97067180E+00
  2.99649429E+00  3.02289096E+00  3.06151153E+00  3.08544051E+00  3.12874017E+00
  3.18601494E+00  3.23819972E+00  3.28853000E+00  3.35992536E+00  3.45039512E+00
  3.58533049E+00  3.79733837E+00  4.24649102E+00  4.39052065E+00  4.49779972E+00
  4.51164694E+00  4.57568337E+00  4.63857894E+00  4.74593655E+00  4.82314726E+00
  4.95278222E+00  5.18305892E+00
Alpha MO coefficients                      R   N=       26244
  6.06974937E-06 -4.72709977E-06 -2.57984005E-06  4.69741291E-07 -4.83720691E-07
  3.88762968E-05  1.48195213E-05 -3.47778731E-06  5.69127975E-06 -4.52926594E-06
 -2.32703917E-06 -1.04032951E-06  1.74609160E-06  2.48403247E-06 -8.94566765E-07
  9.94632869E-01  2.11652846E-02 -6.08076275E-04  1.02985560E-03  4.41730093E-04
  4.08627354E-03  4.75716349E-04 -5.09421253E-04 -1.91498027E-04 -4.17498712E-03
 -4.10436340E-03 -3.98658802E-03 -4.26159720E-05  8.97361468E-06 -6.49798698E-05
 -2.66901796E-04  1.15971839E-05  6.37374810E-06  3.71828227E-05  1.84966135E-05
 -2.06086673E-04  7.33372417E-05  8.43722924E-05  1.14018559E-05  4.88017500E-05
 -6.36238255E-05 -2.52870034E-05 -1.84194646E-05 -1.18905249E-05 -1.62730851E-05
 -6.16676145E-06 -2.13641956E-06  2.74371007E-05 -1.26466244E-05 -2.45832971E-06
  8.23773227E-04 -3.21090039E-04 -1.91712187E-04  4.05020613E-05 -4.54975142E-05
 -4.78020742E-06 -2.42841114E-05 -5.08157142E-05 -1.77324155E-05 -6.16637454E-06
 -5.01989648E-07 -4.24765758E-07  5.57224406E-06 -5.12468595E-06  8.90976075E-06
  2.19715738E-05 -3.13084479E-05 -8.32759061E-05 -2.64112202E-05 -1.01263256E-05
  1.72908844E-05 -3.19124074E-06  1.11611284E-06  7.10242300E-07 -1.71783308E-06
 -1.59599857E-06 -5.68590459E-06 -3.91872426E-05  2.15376401E-05 -2.21011050E-05
  4.12042020E-04  6.77504886E-04 -3.69005916E-04  8.65024319E-05  2.21146098E-05
 -3.56691942E-05  3.87535993E-06  1.56972206E-05 -7.01226024E-06  2.00017647E-06
  4.34751025E-07  2.28321993E-06 -3.32671799E-06  5.51201873E-06 -5.43394459E-07
 -1.40463104E-04 -6.91212890E-05  1.03348070E-04  1.34399007E-08  5.99021856E-06
 -5.16388586E-06 -9.94080724E-08  1.13151022E-06 -2.21468050E-06  1.27719837E-06
  6.52614261E-06  3.92416686E-05  1.31838896E-05 -5.19305700E-06  7.88353506E-06
 -6.36837104E-04  4.38279653E-04  9.52616681E-05 -4.25106536E-05 -1.94176712E-05
  8.00114230E-06  1.37639444E-05 -1.82249006E-06  3.57087968E-06 -1.67481639E-06
 -2.65769940E-06 -1.31112252E-05  6.88128575E-06 -6.69650115E-06  2.27417711E-07
  5.99509060E-05 -1.32909926E-04  1.75425697E-04 -3.07629983E-06 -1.42533532E-06
 -5.11675556E-08 -5.36839358E-06 -2.44691383E-06 -5.49630981E-07 -2.95052497E-06
 -4.62530165E-06  3.77743531E-04 -1.32658273E-04 -2.70212131E-04 -1.07509691E-04
 -4.40615329E-04 -5.90107216E-04  1.67025331E-04  1.02565168E-04 -2.12231707E-05
 -6.22233412E-05 -5.73619202E-05 -1.24291643E-05 -4.51955154E-06 -3.33889414E-06
  6.61967479E-05 -2.85702256E-04  7.41914899E-07 -4.71854894E-06  1.54135508E-05
  1.65506840E-05  1.22270987E-05  4.47387972E-05 -2.28403222E-06 -4.18458539E-06
  4.53861365E-04 -2.57782186E-04  9.94647547E-01  2.11886268E-02  1.40241133E-03
 -2.31555353E-04 -1.90230441E-05  3.92141888E-03 -8.69464955E-04 -6.37234774E-05
  3.22243013E-05 -4.09992802E-03 -4.15640760E-03 -3.89813847E-03 -6.77750959E-06
  2.58728974E-06  2.89431077E-05  2.92636810E-06  4.60736721E-05 -5.23802153E-07
 -1.43298254E-06  3.65226650E-06 -3.30758632E-04 -5.69525870E-05 -7.99939245E-05
 -4.80880984E-05  2.97985776E-05  1.88413290E-05  2.16769428E-05 -1.48363960E-05
 -5.17582929E-06 -6.59260876E-06 -1.15430675E-05  1.25215656E-05  3.82213050E-05
  2.96260363E-05 -1.08343860E-05  1.45218270E-04 -4.95900128E-05 -1.37293298E-04
  1.67994693E-06  1.83157597E-05  4.66390160E-05  6.24600329E-05 -2.16377991E-05
  1.81980607E-05  6.35673005E-06 -8.88146199E-06 -1.54764887E-05 -5.27159582E-06
 -2.19695855E-05 -9.48204000E-06  8.59715062E-04  4.76546951E-04  9.88377782E-04
  2.36349357E-05  1.33270663E-05 -5.86262916E-05 -2.91416827E-05  2.65842549E-05
 -5.48544824E-06  6.74804799E-06 -3.66765928E-06  4.13718647E-04 -1.77586778E-04
  2.75849724E-04 -2.35174240E-05 -6.41446673E-04  1.18692838E-03  7.79326855E-04
 -8.21350417E-05 -2.70715846E-05 -9.55778164E-05 -6.09886149E-05  1.43437041E-05
 -4.35669929E-07  4.99305854E-06  7.76744446E-07 -1.54185566E-06 -3.81652786E-06