
    -----------------------------------------------------------------------
          Psi4: An Open-Source Ab Initio Electronic Structure Package
                               Psi4 1.3.2 release

                         Git: Rev {HEAD} ecbda83 


    R. M. Parrish, L. A. Burns, D. G. A. Smith, A. C. Simmonett,
    A. E. DePrince III, E. G. Hohenstein, U. Bozkaya, A. Yu. Sokolov,
    R. Di Remigio, R. M. Richard, J. F. Gonthier, A. M. James,
    H. R. McAlexander, A. Kumar, M. Saitow, X. Wang, B. P. Pritchard,
    P. Verma, H. F. Schaefer III, K. Patkowski, R. A. King, E. F. Valeev,
    F. A. Evangelista, J. M. Turney, T. D. Crawford, and C. D. Sherrill,
    J. Chem. Theory Comput. 13(7) pp 3185--3197 (2017).
    (doi: 10.1021/acs.jctc.7b00174)


                         Additional Contributions by
    P. Kraus, H. Kruse, M. H. Lechner, M. C. Schieber, R. A. Shaw,
    A. Alenaizan, R. Galvelis, Z. L. Glick, S. Lehtola, and J. P. Misiewicz

    -----------------------------------------------------------------------


    Psi4 started on: Thursday, 04 February 2021 03:41PM

    Process ID: 52019
    Host:       node59.bme.utexas.edu
    PSIDATADIR: /home/xy3866/psi4conda/share/psi4
    Memory:     500.0 MiB
    Threads:    8
    
  ==> Input File <==

--------------------------------------------------------------------------
#psi4
#
memory 32 gb

molecule  {
0 1
  O        0.0894740    -1.2706490     0.0016280
  N        1.0961490     0.8320480    -0.0012430
  C       -1.2534649    -0.5362092     0.0649655
  C       -1.7504730    -0.3080250    -1.2153360
  C       -1.7497660    -0.3035760     1.2162340
  C        1.2195230    -0.4906020     0.0005970
  C       -3.0144240     0.2837480    -1.2099290
  C       -3.0137120     0.2881830     1.2093930
  C       -3.6464470     0.5845060    -0.0006310
  C        2.4408500    -1.1790020     0.0015830
  C        3.6030640    -0.4211020     0.0005590
  C        3.5068820     0.9758400    -0.0013820
  C        2.2403890     1.5483070    -0.0022070
  H       -1.2410120    -0.5552270    -2.1426030
  H       -1.2397720    -0.5473760     2.1441080
  H       -3.5056790     0.5103880    -2.1530410
  H       -3.5044150     0.5182820     2.1519550
  H        2.4499920    -2.2642250     0.0030920
  H       -4.6315180     1.0439850    -0.0011840
  H        4.5737430    -0.9107530     0.0012630
  H        4.3934310     1.6024650    -0.0022300
  H        2.1135170     2.6292430    -0.0037130
units angstrom
no_reorient  #important for SAPT in psi4, default
symmetry c1  #important for SAPT in psi4, default
}

set PROPERTIES_ORIGIN ["COM"]
properties('MP2/aug-cc-pvtz', properties = ['dipole'])
--------------------------------------------------------------------------

  Memory set to  29.802 GiB by Python driver.
    SCF Algorithm Type (re)set to DF.

*** tstart() called on node59.bme.utexas.edu
*** at Thu Feb  4 15:41:31 2021

   => Loading Basis Set <=

    Name: AUG-CC-PVTZ
    Role: ORBITAL
    Keyword: BASIS
    atoms 1     entry O          line   327 file /home/xy3866/psi4conda/share/psi4/basis/aug-cc-pvtz.gbs 
    atoms 2     entry N          line   281 file /home/xy3866/psi4conda/share/psi4/basis/aug-cc-pvtz.gbs 
    atoms 3-13  entry C          line   235 file /home/xy3866/psi4conda/share/psi4/basis/aug-cc-pvtz.gbs 
    atoms 14-22 entry H          line    36 file /home/xy3866/psi4conda/share/psi4/basis/aug-cc-pvtz.gbs 


         ---------------------------------------------------------
                                   SCF
               by Justin Turney, Rob Parrish, Andy Simmonett
                          and Daniel G. A. Smith
                              RHF Reference
                        8 Threads,  30517 MiB Core
         ---------------------------------------------------------

  ==> Geometry <==

    Molecular point group: c1
    Full point group: C1

    Geometry (in Angstrom), charge = 0, multiplicity = 1:

       Center              X                  Y                   Z               Mass       
    ------------   -----------------  -----------------  -----------------  -----------------
         O            0.094306601161    -1.262902173555    -0.002887272399    15.994914619570
         N            1.100981601161     0.839794826445    -0.005758272399    14.003074004430
         C           -1.248632298839    -0.528462373555     0.060450227601    12.000000000000
         C           -1.745640398839    -0.300278173555    -1.219851272399    12.000000000000
         C           -1.744933398839    -0.295829173555     1.211718727601    12.000000000000
         C            1.224355601161    -0.482855173555    -0.003918272399    12.000000000000
         C           -3.009591398839     0.291494826445    -1.214444272399    12.000000000000
         C           -3.008879398839     0.295929826445     1.204877727601    12.000000000000
         C           -3.641614398839     0.592252826445    -0.005146272399    12.000000000000
         C            2.445682601161    -1.171255173555    -0.002932272399    12.000000000000
         C            3.607896601161    -0.413355173555    -0.003956272399    12.000000000000
         C            3.511714601161     0.983586826445    -0.005897272399    12.000000000000
         C            2.245221601161     1.556053826445    -0.006722272399    12.000000000000
         H           -1.236179398839    -0.547480173555    -2.147118272399     1.007825032230
         H           -1.234939398839    -0.539629173555     2.139592727601     1.007825032230
         H           -3.500846398839     0.518134826445    -2.157556272399     1.007825032230
         H           -3.499582398839     0.526028826445     2.147439727601     1.007825032230
         H            2.454824601161    -2.256478173555    -0.001423272399     1.007825032230
         H           -4.626685398839     1.051731826445    -0.005699272399     1.007825032230
         H            4.578575601161    -0.903006173555    -0.003252272399     1.007825032230
         H            4.398263601161     1.610211826445    -0.006745272399     1.007825032230
         H            2.118349601161     2.636989826445    -0.008228272399     1.007825032230

  Running in c1 symmetry.

  Rotational constants: A =      0.07798  B =      0.01492  C =      0.01444 [cm^-1]
  Rotational constants: A =   2337.77647  B =    447.37138  C =    432.91979 [MHz]
  Nuclear repulsion =  708.889669666765371

  Charge       = 0
  Multiplicity = 1
  Electrons    = 90
  Nalpha       = 45
  Nbeta        = 45

  ==> Algorithm <==

  SCF Algorithm Type is DF.
  DIIS enabled.
  MOM disabled.
  Fractional occupation disabled.
  Guess Type is SAD.
  Energy threshold   = 1.00e-10
  Density threshold  = 1.00e-10
  Integral threshold = 0.00e+00

  ==> Primary Basis <==

  Basis Set: AUG-CC-PVTZ
    Blend: AUG-CC-PVTZ
    Number of shells: 263
    Number of basis function: 805
    Number of Cartesian functions: 940
    Spherical Harmonics?: true
    Max angular momentum: 3

   => Loading Basis Set <=

    Name: (AUG-CC-PVTZ AUX)
    Role: JKFIT
    Keyword: DF_BASIS_SCF
    atoms 1     entry O          line   286 file /home/xy3866/psi4conda/share/psi4/basis/aug-cc-pvtz-jkfit.gbs 
    atoms 2     entry N          line   224 file /home/xy3866/psi4conda/share/psi4/basis/aug-cc-pvtz-jkfit.gbs 
    atoms 3-13  entry C          line   162 file /home/xy3866/psi4conda/share/psi4/basis/aug-cc-pvtz-jkfit.gbs 
    atoms 14-22 entry H          line    70 file /home/xy3866/psi4conda/share/psi4/basis/aug-cc-pvtz-jkfit.gbs 

  ==> Pre-Iterations <==

   -------------------------------------------------------
    Irrep   Nso     Nmo     Nalpha   Nbeta   Ndocc  Nsocc
   -------------------------------------------------------
     A        805     805       0       0       0       0
   -------------------------------------------------------
    Total     805     805      45      45      45       0
   -------------------------------------------------------

  ==> Integral Setup <==

  DFHelper Memory: AOs need 7.847 GiB; user supplied 22.352 GiB. Using in-core AOs.

  ==> MemDFJK: Density-Fitted J/K Matrices <==

    J tasked:                   Yes
    K tasked:                   Yes
    wK tasked:                   No
    OpenMP threads:               8
    Memory [MiB]:             22888
    Algorithm:                 Disk
    Schwarz Cutoff:           1E-12
    Mask sparsity (%):      10.2231
    Fitting Condition:        1E-10

   => Auxiliary Basis Set <=

  Basis Set: (AUG-CC-PVTZ AUX)
    Blend: AUG-CC-PVTZ-JKFIT
    Number of shells: 516
    Number of basis function: 1766
    Number of Cartesian functions: 2198
    Spherical Harmonics?: true
    Max angular momentum: 4

  Minimum eigenvalue in the overlap matrix is 5.8672681839E-07.
  Using Symmetric Orthogonalization.

  SCF Guess: Superposition of Atomic Densities via on-the-fly atomic UHF.

  ==> Iterations <==

                           Total Energy        Delta E     RMS |[F,P]|

   @DF-RHF iter SAD:  -550.50181225980475   -5.50502e+02   0.00000e+00 
   @DF-RHF iter   1:  -550.93568530713969   -4.33873e-01   9.26542e-04 DIIS
   @DF-RHF iter   2:  -551.19986884719549   -2.64184e-01   4.18024e-04 DIIS
   @DF-RHF iter   3:  -551.25254226242248   -5.26734e-02   8.97457e-05 DIIS
   @DF-RHF iter   4:  -551.25597638802719   -3.43413e-03   4.27155e-05 DIIS
   @DF-RHF iter   5:  -551.25654216730516   -5.65779e-04   6.94472e-06 DIIS
   @DF-RHF iter   6:  -551.25657543668649   -3.32694e-05   2.61068e-06 DIIS
   @DF-RHF iter   7:  -551.25658080286792   -5.36618e-06   1.05259e-06 DIIS
   @DF-RHF iter   8:  -551.25658198404892   -1.18118e-06   3.96837e-07 DIIS
   @DF-RHF iter   9:  -551.25658223515620   -2.51107e-07   1.51075e-07 DIIS
   @DF-RHF iter  10:  -551.25658226972837   -3.45722e-08   7.32429e-08 DIIS
   @DF-RHF iter  11:  -551.25658227959752   -9.86915e-09   3.24774e-08 DIIS
   @DF-RHF iter  12:  -551.25658228118834   -1.59082e-09   1.36166e-08 DIIS
   @DF-RHF iter  13:  -551.25658228136967   -1.81331e-10   3.64727e-09 DIIS
   @DF-RHF iter  14:  -551.25658228138036   -1.06866e-11   1.44764e-09 DIIS
   @DF-RHF iter  15:  -551.25658228138479   -4.43379e-12   7.71805e-10 DIIS
   @DF-RHF iter  16:  -551.25658228138650   -1.70530e-12   3.12390e-10 DIIS
   @DF-RHF iter  17:  -551.25658228138514    1.36424e-12   1.37957e-10 DIIS
   @DF-RHF iter  18:  -551.25658228138434    7.95808e-13   5.69146e-11 DIIS
  Energy and wave function converged.


  ==> Post-Iterations <==

    Orbital Energies [Eh]
    ---------------------

    Doubly Occupied:                                                      

       1A    -20.582159     2A    -15.557828     3A    -11.335742  
       4A    -11.294450     5A    -11.278470     6A    -11.260805  
       7A    -11.246195     8A    -11.244434     9A    -11.242383  
      10A    -11.238295    11A    -11.234117    12A    -11.231230  
      13A    -11.228362    14A     -1.391176    15A     -1.244904  
      16A     -1.171002    17A     -1.086598    18A     -1.041653  
      19A     -1.027731    20A     -1.000485    21A     -0.867671  
      22A     -0.849734    23A     -0.846564    24A     -0.806360  
      25A     -0.729657    26A     -0.701789    27A     -0.676030  
      28A     -0.658840    29A     -0.654418    30A     -0.628674  
      31A     -0.611658    32A     -0.605455    33A     -0.584455  
      34A     -0.575797    35A     -0.558868    36A     -0.530091  
      37A     -0.520051    38A     -0.513510    39A     -0.497281  
      40A     -0.487281    41A     -0.425147    42A     -0.384059  
      43A     -0.355343    44A     -0.336671    45A     -0.323002  

    Virtual:                                                              

      46A      0.027228    47A      0.029631    48A      0.035265  
      49A      0.036161    50A      0.041135    51A      0.048765  
      52A      0.051007    53A      0.053170    54A      0.063865  
      55A      0.080860    56A      0.086095    57A      0.090233  
      58A      0.092305    59A      0.098909    60A      0.101693  
      61A      0.103281    62A      0.107197    63A      0.112966  
      64A      0.114314    65A      0.114994    66A      0.117727  
      67A      0.119881    68A      0.121535    69A      0.124492  
      70A      0.127038    71A      0.128888    72A      0.130004  
      73A      0.133621    74A      0.140123    75A      0.141007  
      76A      0.144792    77A      0.149155    78A      0.149871  
      79A      0.153824    80A      0.154503    81A      0.162523  
      82A      0.165624    83A      0.168302    84A      0.171244  
      85A      0.179652    86A      0.180810    87A      0.182627  
      88A      0.194999    89A      0.197956    90A      0.205516  
      91A      0.211840    92A      0.222178    93A      0.229102  
      94A      0.232251    95A      0.246526    96A      0.249474  
      97A      0.252904    98A      0.253957    99A      0.256182  
     100A      0.259828   101A      0.266874   102A      0.267833  
     103A      0.276373   104A      0.283058   105A      0.288407  
     106A      0.290811   107A      0.293999   108A      0.299290  
     109A      0.301077   110A      0.302897   111A      0.306760  
     112A      0.311716   113A      0.313896   114A      0.315341  
     115A      0.319301   116A      0.322049   117A      0.327807  
     118A      0.328204   119A      0.329931   120A      0.336026  
     121A      0.337035   122A      0.343568   123A      0.343991  
     124A      0.346214   125A      0.356341   126A      0.360944  
     127A      0.363148   128A      0.367323   129A      0.369542  
     130A      0.381576   131A      0.383330   132A      0.389426  
     133A      0.390408   134A      0.403272   135A      0.412848  
     136A      0.425069   137A      0.426795   138A      0.427104  
     139A      0.430162   140A      0.433512   141A      0.437475  
     142A      0.442123   143A      0.442706   144A      0.451118  
     145A      0.452202   146A      0.453804   147A      0.462985  
     148A      0.465130   149A      0.467077   150A      0.469138  
     151A      0.471724   152A      0.473942   153A      0.476951  
     154A      0.480191   155A      0.486620   156A      0.492304  
     157A      0.494091   158A      0.497430   159A      0.499708  
     160A      0.501843   161A      0.503540   162A      0.506083  
     163A      0.509982   164A      0.513327   165A      0.517379  
     166A      0.526658   167A      0.527919   168A      0.531464  
     169A      0.535392   170A      0.542062   171A      0.544970  
     172A      0.547517   173A      0.552371   174A      0.554252  
     175A      0.558111   176A      0.562391   177A      0.563877  
     178A      0.573975   179A      0.580119   180A      0.581781  
     181A      0.584727   182A      0.589780   183A      0.600399  
     184A      0.609333   185A      0.613111   186A      0.619494  
     187A      0.626409   188A      0.635152   189A      0.639026  
     190A      0.640183   191A      0.647520   192A      0.652261  
     193A      0.653272   194A      0.663235   195A      0.666889  
     196A      0.676660   197A      0.678686   198A      0.680455  
     199A      0.682368   200A      0.687407   201A      0.703461  
     202A      0.704752   203A      0.711635   204A      0.714315  
     205A      0.717646   206A      0.722425   207A      0.729735  
     208A      0.733057   209A      0.739560   210A      0.752862  
     211A      0.757306   212A      0.760349   213A      0.763639  
     214A      0.766193   215A      0.772839   216A      0.784487  
     217A      0.789263   218A      0.791364   219A      0.793336  
     220A      0.812306   221A      0.813403   222A      0.814028  
     223A      0.820225   224A      0.826602   225A      0.836140  
     226A      0.839380   227A      0.850152   228A      0.853323  
     229A      0.855588   230A      0.864652   231A      0.868833  
     232A      0.870761   233A      0.873439   234A      0.878290  
     235A      0.882752   236A      0.885657   237A      0.887988  
     238A      0.894596   239A      0.896730   240A      0.904160  
     241A      0.908873   242A      0.912740   243A      0.915307  
     244A      0.925419   245A      0.929724   246A      0.933317  
     247A      0.939461   248A      0.943247   249A      0.954408  
     250A      0.958310   251A      0.966753   252A      0.971638  
     253A      0.975689   254A      0.978525   255A      0.984364  
     256A      0.991465   257A      0.998793   258A      0.999845  
     259A      1.012303   260A      1.017425   261A      1.020753  
     262A      1.022010   263A      1.024119   264A      1.032397  
     265A      1.036678   266A      1.041643   267A      1.043410  
     268A      1.048167   269A      1.056702   270A      1.059979  
     271A      1.060481   272A      1.071749   273A      1.072706  
     274A      1.073229   275A      1.082603   276A      1.086430  
     277A      1.089224   278A      1.092959   279A      1.095462  
     280A      1.100296   281A      1.107385   282A      1.109376  
     283A      1.111515   284A      1.116602   285A      1.124575  
     286A      1.126678   287A      1.128250   288A      1.131548  
     289A      1.134257   290A      1.138073   291A      1.157022  
     292A      1.160524   293A      1.170116   294A      1.171053  
     295A      1.176277   296A      1.183292   297A      1.188825  
     298A      1.191170   299A      1.195153   300A      1.197000  
     301A      1.202945   302A      1.210296   303A      1.211974  
     304A      1.212717   305A      1.216517   306A      1.223541  
     307A      1.226618   308A      1.235625   309A      1.237786  
     310A      1.238243   311A      1.240257   312A      1.248446  
     313A      1.253053   314A      1.256775   315A      1.258949  
     316A      1.266256   317A      1.273606   318A      1.279846  
     319A      1.285851   320A      1.295013   321A      1.309247  
     322A      1.313651   323A      1.316438   324A      1.322689  
     325A      1.324622   326A      1.333653   327A      1.339656  
     328A      1.344395   329A      1.371641   330A      1.378229  
     331A      1.381323   332A      1.384986   333A      1.389917  
     334A      1.401619   335A      1.407549   336A      1.411742  
     337A      1.420084   338A      1.429132   339A      1.435343  
     340A      1.438338   341A      1.444875   342A      1.462201  
     343A      1.465120   344A      1.471600   345A      1.481681  
     346A      1.490458   347A      1.495487   348A      1.499527  
     349A      1.514672   350A      1.520543   351A      1.523381  
     352A      1.541003   353A      1.544509   354A      1.556269  
     355A      1.566528   356A      1.571153   357A      1.576959  
     358A      1.579219   359A      1.586457   360A      1.589548  
     361A      1.600853   362A      1.616174   363A      1.626304  
     364A      1.636095   365A      1.638512   366A      1.643108  
     367A      1.667490   368A      1.680772   369A      1.685369  
     370A      1.692362   371A      1.692964   372A      1.699233  
     373A      1.705554   374A      1.715879   375A      1.723943  
     376A      1.729463   377A      1.736344   378A      1.740366  
     379A      1.751330   380A      1.761620   381A      1.771312  
     382A      1.774995   383A      1.780402   384A      1.784072  
     385A      1.794913   386A      1.807879   387A      1.818523  
     388A      1.828569   389A      1.831038   390A      1.832364  
     391A      1.836908   392A      1.838361   393A      1.846108  
     394A      1.857593   395A      1.859088   396A      1.862911  
     397A      1.868334   398A      1.881730   399A      1.886005  
     400A      1.894599   401A      1.915264   402A      1.918698  
     403A      1.923297   404A      1.944755   405A      1.949078  
     406A      1.958425   407A      1.966703   408A      1.971548  
     409A      1.973792   410A      1.992426   411A      1.994532  
     412A      1.999836   413A      2.002952   414A      2.003601  
     415A      2.012973   416A      2.031649   417A      2.034054  
     418A      2.037465   419A      2.048556   420A      2.050634  
     421A      2.054112   422A      2.056993   423A      2.059069  
     424A      2.074607   425A      2.078442   426A      2.085871  
     427A      2.095274   428A      2.103011   429A      2.110636  
     430A      2.114524   431A      2.123463   432A      2.127225  
     433A      2.135828   434A      2.146144   435A      2.152672  
     436A      2.166655   437A      2.179295   438A      2.181649  
     439A      2.204786   440A      2.223383   441A      2.226466  
     442A      2.231280   443A      2.240330   444A      2.248176  
     445A      2.259784   446A      2.263578   447A      2.272632  
     448A      2.286576   449A      2.288766   450A      2.293978  
     451A      2.306499   452A      2.318183   453A      2.337080  
     454A      2.343715   455A      2.360493   456A      2.363395  
     457A      2.368156   458A      2.376105   459A      2.378936  
     460A      2.396839   461A      2.403723   462A      2.406337  
     463A      2.413330   464A      2.415743   465A      2.435291  
     466A      2.451776   467A      2.462640   468A      2.472411  
     469A      2.495493   470A      2.502320   471A      2.519423  
     472A      2.533990   473A      2.539850   474A      2.548353  
     475A      2.569412   476A      2.580340   477A      2.602101  
     478A      2.616158   479A      2.633393   480A      2.637202  
     481A      2.662967   482A      2.669300   483A      2.678174  
     484A      2.694619   485A      2.717649   486A      2.726716  
     487A      2.738703   488A      2.764022   489A      2.767445  
     490A      2.810687   491A      2.824142   492A      2.831196  
     493A      2.845164   494A      2.852214   495A      2.878628  
     496A      2.893581   497A      2.922666   498A      2.934656  
     499A      2.964064   500A      2.977868   501A      2.987891  
     502A      3.031186   503A      3.041093   504A      3.050149  
     505A      3.064300   506A      3.074666   507A      3.090908  
     508A      3.113490   509A      3.120928   510A      3.132833  
     511A      3.166987   512A      3.172680   513A      3.194843  
     514A      3.209584   515A      3.218642   516A      3.236619  
     517A      3.251761   518A      3.267014   519A      3.280134  
     520A      3.294013   521A      3.314870   522A      3.334731  
     523A      3.337566   524A      3.345592   525A      3.357256  
     526A      3.366096   527A      3.376948   528A      3.382133  
     529A      3.387556   530A      3.393963   531A      3.398191  
     532A      3.410908   533A      3.417014   534A      3.430492  
     535A      3.434434   536A      3.449443   537A      3.459877  
     538A      3.469146   539A      3.471481   540A      3.474967  
     541A      3.481208   542A      3.495054   543A      3.499033  
     544A      3.513428   545A      3.527167   546A      3.535872  
     547A      3.539441   548A      3.540477   549A      3.546588  
     550A      3.558175   551A      3.561078   552A      3.569753  
     553A      3.583674   554A      3.588156   555A      3.600866  
     556A      3.612530   557A      3.622381   558A      3.630902  
     559A      3.633978   560A      3.650265   561A      3.664640  
     562A      3.671698   563A      3.682593   564A      3.683682  
     565A      3.702245   566A      3.710861   567A      3.720202  
     568A      3.720628   569A      3.726937   570A      3.760156  
     571A      3.768330   572A      3.773371   573A      3.798359  
     574A      3.806058   575A      3.811147   576A      3.813624  
     577A      3.822545   578A      3.823361   579A      3.842420  
     580A      3.851972   581A      3.861597   582A      3.867381  
     583A      3.885534   584A      3.889105   585A      3.900603  
     586A      3.903851   587A      3.905742   588A      3.917615  
     589A      3.921552   590A      3.935658   591A      3.942503  
     592A      3.946501   593A      3.961185   594A      3.967669  
     595A      3.971871   596A      3.974042   597A      3.975233  
     598A      3.987808   599A      4.002339   600A      4.013191  
     601A      4.014818   602A      4.024291   603A      4.031893  
     604A      4.041093   605A      4.053239   606A      4.061652  
     607A      4.079798   608A      4.093391   609A      4.098648  
     610A      4.106054   611A      4.116130   612A      4.139278  
     613A      4.145236   614A      4.149082   615A      4.154193  
     616A      4.161156   617A      4.165894   618A      4.170283  
     619A      4.198747   620A      4.202768   621A      4.204898  
     622A      4.217205   623A      4.228402   624A      4.233484  
     625A      4.240996   626A      4.252301   627A      4.262364  
     628A      4.271149   629A      4.276840   630A      4.289191  
     631A      4.301557   632A      4.310754   633A      4.317773  
     634A      4.329611   635A      4.331826   636A      4.348245  
     637A      4.364953   638A      4.367154   639A      4.390474  
     640A      4.396141   641A      4.400696   642A      4.407321  
     643A      4.411590   644A      4.415389   645A      4.426210  
     646A      4.432987   647A      4.440987   648A      4.451966  
     649A      4.459264   650A      4.469516   651A      4.477614  
     652A      4.483590   653A      4.489434   654A      4.497484  
     655A      4.514935   656A      4.530469   657A      4.557550  
     658A      4.562296   659A      4.571840   660A      4.584221  
     661A      4.604434   662A      4.616058   663A      4.622720  
     664A      4.647338   665A      4.689066   666A      4.698626  
     667A      4.716920   668A      4.730211   669A      4.744489  
     670A      4.764614   671A      4.773337   672A      4.783730  
     673A      4.789341   674A      4.813576   675A      4.817965  
     676A      4.844371   677A      4.850823   678A      4.876332  
     679A      4.889453   680A      4.899371   681A      4.907332  
     682A      4.922539   683A      4.946660   684A      4.949022  
     685A      4.963550   686A      4.980214   687A      4.995122  
     688A      5.007817   689A      5.010654   690A      5.021883  
     691A      5.026786   692A      5.056865   693A      5.060598  
     694A      5.073163   695A      5.077896   696A      5.085503  
     697A      5.096107   698A      5.101629   699A      5.116201  
     700A      5.119354   701A      5.132888   702A      5.140910  
     703A      5.148072   704A      5.150631   705A      5.152411  
     706A      5.170060   707A      5.176931   708A      5.195460  
     709A      5.203781   710A      5.212406   711A      5.223769  
     712A      5.244818   713A      5.262560   714A      5.276823  
     715A      5.305995   716A      5.313596   717A      5.325134  
     718A      5.336931   719A      5.348774   720A      5.376235  
     721A      5.402176   722A      5.425142   723A      5.435571  
     724A      5.443864   725A      5.463439   726A      5.476579  
     727A      5.512457   728A      5.524484   729A      5.544253  
     730A      5.556351   731A      5.573718   732A      5.613748  
     733A      5.633294   734A      5.650128   735A      5.676514  
     736A      5.690252   737A      5.716009   738A      5.749925  
     739A      5.778462   740A      5.797254   741A      5.816905  
     742A      5.833971   743A      5.846840   744A      5.859184  
     745A      5.902073   746A      5.906658   747A      5.926539  
     748A      5.942663   749A      6.001242   750A      6.067668  
     751A      6.131800   752A      6.148547   753A      6.164172  
     754A      6.200771   755A      6.211996   756A      6.229833  
     757A      6.242905   758A      6.264431   759A      6.281193  
     760A      6.305316   761A      6.385446   762A      6.405133  
     763A      6.489484   764A      6.494090   765A      6.540064  
     766A      6.591735   767A      6.649751   768A      6.674735  
     769A      6.737960   770A      6.753080   771A      6.790803  
     772A      6.832786   773A      6.867990   774A      6.926989  
     775A      6.988291   776A      7.037913   777A      7.055399  
     778A      7.087836   779A      7.133263   780A      7.137371  
     781A      7.142040   782A      7.212312   783A      7.277840  
     784A      7.455099   785A      7.518325   786A      7.593315  
     787A      7.619424   788A      7.765310   789A      7.856067  
     790A      7.996202   791A      8.210796   792A      8.614228  
     793A     15.795783   794A     16.169436   795A     16.279469  
     796A     16.424752   797A     17.250958   798A     18.483267  
     799A     18.775844   800A     19.247267   801A     19.397028  
     802A     19.850802   803A     20.000345   804A     20.408008  
     805A     20.425640  

    Final Occupation by Irrep:
              A 
    DOCC [    45 ]

  @DF-RHF Final Energy:  -551.25658228138434

   => Energetics <=

    Nuclear Repulsion Energy =            708.8896696667653714
    One-Electron Energy =               -2154.9596524699231850
    Two-Electron Energy =                 894.8134005217735876
    Total Energy =                       -551.2565822813843397

Computation Completed

*** tstop() called on node59.bme.utexas.edu at Thu Feb  4 15:43:39 2021
Module time:
	user time   =     565.96 seconds =       9.43 minutes
	system time =      67.38 seconds =       1.12 minutes
	total time  =        128 seconds =       2.13 minutes
Total time:
	user time   =     565.96 seconds =       9.43 minutes
	system time =      67.38 seconds =       1.12 minutes
	total time  =        128 seconds =       2.13 minutes
   => Loading Basis Set <=

    Name: (AUG-CC-PVTZ AUX)
    Role: RIFIT
    Keyword: DF_BASIS_MP2
    atoms 1     entry O          line   264 file /home/xy3866/psi4conda/share/psi4/basis/aug-cc-pvtz-ri.gbs 
    atoms 2     entry N          line   206 file /home/xy3866/psi4conda/share/psi4/basis/aug-cc-pvtz-ri.gbs 
    atoms 3-13  entry C          line   148 file /home/xy3866/psi4conda/share/psi4/basis/aug-cc-pvtz-ri.gbs 
    atoms 14-22 entry H          line    30 file /home/xy3866/psi4conda/share/psi4/basis/aug-cc-pvtz-ri.gbs 


*** tstart() called on node59.bme.utexas.edu
*** at Thu Feb  4 15:43:40 2021


  //>>>>>>>>>>>>>>>>>>>>>>>>>>>>>>>>>>>//
  //               DFMP2               //
  //<<<<<<<<<<<<<<<<<<<<<<<<<<<<<<<<<<<//

	 --------------------------------------------------------
	                          DF-MP2                         
	      2nd-Order Density-Fitted Moller-Plesset Theory     
	              RMP2 Wavefunction,   8 Threads             
	                                                         
	        Rob Parrish, Justin Turney, Andy Simmonett,      
	           Ed Hohenstein, and C. David Sherrill          
	 --------------------------------------------------------

   => Auxiliary Basis Set <=

  Basis Set: (AUG-CC-PVTZ AUX)
    Blend: AUG-CC-PVTZ-RI
    Number of shells: 490
    Number of basis function: 1792
    Number of Cartesian functions: 2263
    Spherical Harmonics?: true
    Max angular momentum: 4

	 --------------------------------------------------------
	                 NBF =   805, NAUX =  1792
	 --------------------------------------------------------
	   CLASS    FOCC     OCC    AOCC    AVIR     VIR    FVIR
	   PAIRS       0      45      45     760     760       0
	 --------------------------------------------------------

  DFHelper Memory: AOs need 7.847 GiB; user supplied 22.352 GiB. Using in-core AOs.


         ------------------------------------------------------------
                                     CPHF                           
                                  Rob Parrish                       
         ------------------------------------------------------------

  ==> Geometry <==

    Molecular point group: c1
    Full point group: C1

    Geometry (in Angstrom), charge = 0, multiplicity = 1:

       Center              X                  Y                   Z               Mass       
    ------------   -----------------  -----------------  -----------------  -----------------
         O            0.094306601161    -1.262902173555    -0.002887272399    15.994914619570
         N            1.100981601161     0.839794826445    -0.005758272399    14.003074004430
         C           -1.248632298839    -0.528462373555     0.060450227601    12.000000000000
         C           -1.745640398839    -0.300278173555    -1.219851272399    12.000000000000
         C           -1.744933398839    -0.295829173555     1.211718727601    12.000000000000
         C            1.224355601161    -0.482855173555    -0.003918272399    12.000000000000
         C           -3.009591398839     0.291494826445    -1.214444272399    12.000000000000
         C           -3.008879398839     0.295929826445     1.204877727601    12.000000000000
         C           -3.641614398839     0.592252826445    -0.005146272399    12.000000000000
         C            2.445682601161    -1.171255173555    -0.002932272399    12.000000000000
         C            3.607896601161    -0.413355173555    -0.003956272399    12.000000000000
         C            3.511714601161     0.983586826445    -0.005897272399    12.000000000000
         C            2.245221601161     1.556053826445    -0.006722272399    12.000000000000
         H           -1.236179398839    -0.547480173555    -2.147118272399     1.007825032230
         H           -1.234939398839    -0.539629173555     2.139592727601     1.007825032230
         H           -3.500846398839     0.518134826445    -2.157556272399     1.007825032230
         H           -3.499582398839     0.526028826445     2.147439727601     1.007825032230
         H            2.454824601161    -2.256478173555    -0.001423272399     1.007825032230
         H           -4.626685398839     1.051731826445    -0.005699272399     1.007825032230
         H            4.578575601161    -0.903006173555    -0.003252272399     1.007825032230
         H            4.398263601161     1.610211826445    -0.006745272399     1.007825032230
         H            2.118349601161     2.636989826445    -0.008228272399     1.007825032230

  Nuclear repulsion =  708.889669666765371
  Reference energy  = -551.256582281384340

  ==> Basis Set <==

  Basis Set: AUG-CC-PVTZ
    Blend: AUG-CC-PVTZ
    Number of shells: 263
    Number of basis function: 805
    Number of Cartesian functions: 940
    Spherical Harmonics?: true
    Max angular momentum: 3

  ==> CGRSolver (by Rob Parrish) <==

   Number of roots    =         1
   Preconditioning    =    JACOBI
   Convergence cutoff =     1E-06
   Maximum iterations =       100

  ==> CPHFRHamiltonian (by Rob Parrish) <== 

  ==> MemDFJK: Density-Fitted J/K Matrices <==

    J tasked:                   Yes
    K tasked:                   Yes
    wK tasked:                   No
    OpenMP threads:               8
    Memory [MiB]:             22888
    Algorithm:                 Disk
    Schwarz Cutoff:           1E-12
    Mask sparsity (%):      10.2231
    Fitting Condition:        1E-10

   => Auxiliary Basis Set <=

  Basis Set: (AUG-CC-PVTZ AUX)
    Blend: AUG-CC-PVTZ-JKFIT
    Number of shells: 516
    Number of basis function: 1766
    Number of Cartesian functions: 2198
    Spherical Harmonics?: true
    Max angular momentum: 4

  ==> CPHF Iterations <==

  => Iterations <=

             Iter  Converged  Remaining    Residual
  CGR           1          0          1   1.103E-01
  CGR           2          0          1   3.794E-02
  CGR           3          0          1   2.451E-02
  CGR           4          0          1   8.579E-03
  CGR           5          0          1   3.391E-03
  CGR           6          0          1   1.403E-03
  CGR           7          0          1   4.083E-04
  CGR           8          0          1   1.295E-04
  CGR           9          0          1   5.026E-05
  CGR          10          0          1   2.129E-05
  CGR          11          0          1   1.074E-05
  CGR          12          0          1   4.302E-06
  CGR          13          0          1   1.522E-06
  CGR          14          1          0   4.563E-07

    CGRSolver converged.

	-----------------------------------------------------------
	 ==================> DF-MP2 Energies <==================== 
	-----------------------------------------------------------
	 Reference Energy          =    -551.2565822813843397 [Eh]
	 Singles Energy            =      -0.0000000000000000 [Eh]
	 Same-Spin Energy          =      -0.5998891567830439 [Eh]
	 Opposite-Spin Energy      =      -1.8265007163818439 [Eh]
	 Correlation Energy        =      -2.4263898731648879 [Eh]
	 Total Energy              =    -553.6829721545492475 [Eh]
	-----------------------------------------------------------
	 ================> DF-SCS-MP2 Energies <================== 
	-----------------------------------------------------------
	 SCS Same-Spin Scale       =       0.3333333333333333 [-]
	 SCS Opposite-Spin Scale   =       1.2000000000000000 [-]
	 SCS Same-Spin Energy      =      -0.1999630522610146 [Eh]
	 SCS Opposite-Spin Energy  =      -2.1918008596582124 [Eh]
	 SCS Correlation Energy    =      -2.3917639119192269 [Eh]
	 SCS Total Energy          =    -553.6483461933036097 [Eh]
	-----------------------------------------------------------



Properties will be evaluated at  -0.000000,   0.000000,   0.000000 [a0]

Properties computed using the MP2 density matrix

  Nuclear Dipole Moment: [e a0]
     X:    -0.5167      Y:     1.9569      Z:    -0.0403

  Electronic Dipole Moment: [e a0]
     X:     0.7076      Y:    -1.8307      Z:     0.0638

  Dipole Moment: [e a0]
     X:     0.1909      Y:     0.1262      Z:     0.0235     Total:     0.2301

  Dipole Moment: [D]
     X:     0.4853      Y:     0.3208      Z:     0.0597     Total:     0.5848


*** tstop() called on node59.bme.utexas.edu at Thu Feb  4 15:49:18 2021
Module time:
	user time   =    2011.34 seconds =      33.52 minutes
	system time =      85.48 seconds =       1.42 minutes
	total time  =        338 seconds =       5.63 minutes
Total time:
	user time   =    2577.51 seconds =      42.96 minutes
	system time =     152.86 seconds =       2.55 minutes
	total time  =        467 seconds =       7.78 minutes

    Psi4 stopped on: Thursday, 04 February 2021 03:49PM
    Psi4 wall time for execution: 0:07:47.68

*** Psi4 exiting successfully. Buy a developer a beer!
