
    -----------------------------------------------------------------------
          Psi4: An Open-Source Ab Initio Electronic Structure Package
                               Psi4 1.4a3.dev225 

                         Git: Rev {master} 7105e37 


    D. G. A. Smith, L. A. Burns, A. C. Simmonett, R. M. Parrish,
    M. C. Schieber, R. Galvelis, P. Kraus, H. Kruse, R. Di Remigio,
    A. Alenaizan, A. M. James, S. Lehtola, J. P. Misiewicz, M. Scheurer,
    R. A. Shaw, J. B. Schriber, Y. Xie, Z. L. Glick, D. A. Sirianni,
    J. S. O'Brien, J. M. Waldrop, A. Kumar, E. G. Hohenstein,
    B. P. Pritchard, B. R. Brooks, H. F. Schaefer III, A. Yu. Sokolov,
    K. Patkowski, A. E. DePrince III, U. Bozkaya, R. A. King,
    F. A. Evangelista, J. M. Turney, T. D. Crawford, C. D. Sherrill,
    J. Chem. Phys. 152(18) 184108 (2020). https://doi.org/10.1063/5.0006002

                            Additional Code Authors
    E. T. Seidl, C. L. Janssen, E. F. Valeev, M. L. Leininger,
    J. F. Gonthier, R. M. Richard, H. R. McAlexander, M. Saitow, X. Wang,
    P. Verma, and M. H. Lechner

             Previous Authors, Complete List of Code Contributors,
                       and Citations for Specific Modules
    https://github.com/psi4/psi4/blob/master/codemeta.json
    https://github.com/psi4/psi4/graphs/contributors
    http://psicode.org/psi4manual/master/introduction.html#citing-psifour

    -----------------------------------------------------------------------


    Psi4 started on: Sunday, 28 February 2021 11:20PM

    Process ID: 107451
    Host:       c421-112.stampede2.tacc.utexas.edu
    PSIDATADIR: /home1/07844/xy3866/miniconda3/envs/p4env/share/psi4
    Memory:     500.0 MiB
    Threads:    32
    
  ==> Input File <==

--------------------------------------------------------------------------
#psi4
#
memory 32 gb

molecule  {
0 1
  O       -2.3098380     0.0000000     0.0000530
  O        3.0303810     0.0000000    -0.0000560
  C       -0.3206930     1.2871930     0.0000000
  C       -0.3206930    -1.2871930     0.0000010
  C       -1.1147827    -0.0269456     0.0000213
  C        1.0315930     1.2651910    -0.0000170
  C        1.0315930    -1.2651910    -0.0000160
  C        1.7909690     0.0000000    -0.0000320
  C       -1.1413450     2.5387140     0.0000150
  C       -1.1413450    -2.5387140     0.0000190
  H        1.6245090     2.1778770    -0.0000300
  H        1.6245090    -2.1778770    -0.0000270
  H       -1.7933300     2.5679320     0.8776520
  H       -1.7934040     2.5679060    -0.8775670
  H       -0.4992340     3.4225460    -0.0000240
  H       -0.4992350    -3.4225460    -0.0000280
  H       -1.7934120    -2.5679030    -0.8775580
  H       -1.7933230    -2.5679350     0.8776610
units angstrom
no_reorient  #important for SAPT in psi4, default
symmetry c1  #important for SAPT in psi4, default
}

set PROPERTIES_ORIGIN ["COM"]
properties('MP2/aug-cc-pvtz', properties = ['dipole'])
--------------------------------------------------------------------------

  Memory set to  29.802 GiB by Python driver.
    SCF Algorithm Type (re)set to DF.

*** tstart() called on c421-112.stampede2.tacc.utexas.edu
*** at Sun Feb 28 23:20:12 2021

   => Loading Basis Set <=

    Name: AUG-CC-PVTZ
    Role: ORBITAL
    Keyword: BASIS
    atoms 1-2   entry O          line   331 file /home1/07844/xy3866/miniconda3/envs/p4env/share/psi4/basis/aug-cc-pvtz.gbs 
    atoms 3-10  entry C          line   239 file /home1/07844/xy3866/miniconda3/envs/p4env/share/psi4/basis/aug-cc-pvtz.gbs 
    atoms 11-18 entry H          line    40 file /home1/07844/xy3866/miniconda3/envs/p4env/share/psi4/basis/aug-cc-pvtz.gbs 


         ---------------------------------------------------------
                                   SCF
               by Justin Turney, Rob Parrish, Andy Simmonett
                          and Daniel G. A. Smith
                              RHF Reference
                       32 Threads,  30517 MiB Core
         ---------------------------------------------------------

  ==> Geometry <==

    Molecular point group: c1
    Full point group: C1

    Geometry (in Angstrom), charge = 0, multiplicity = 1:

       Center              X                  Y                   Z               Mass       
    ------------   -----------------  -----------------  -----------------  -----------------
         O           -2.341789927453     0.002376636722     0.000053534842    15.994914619570
         O            2.998429072547     0.002376636722    -0.000055465158    15.994914619570
         C           -0.352644927453     1.289569636722     0.000000534842    12.000000000000
         C           -0.352644927453    -1.284816363278     0.000001534842    12.000000000000
         C           -1.146734627453    -0.024568963278     0.000021834842    12.000000000000
         C            0.999641072547     1.267567636722    -0.000016465158    12.000000000000
         C            0.999641072547    -1.262814363278    -0.000015465158    12.000000000000
         C            1.759017072547     0.002376636722    -0.000031465158    12.000000000000
         C           -1.173296927453     2.541090636722     0.000015534842    12.000000000000
         C           -1.173296927453    -2.536337363278     0.000019534842    12.000000000000
         H            1.592557072547     2.180253636722    -0.000029465158     1.007825032230
         H            1.592557072547    -2.175500363278    -0.000026465158     1.007825032230
         H           -1.825281927453     2.570308636722     0.877652534842     1.007825032230
         H           -1.825355927453     2.570282636722    -0.877566465158     1.007825032230
         H           -0.531185927453     3.424922636722    -0.000023465158     1.007825032230
         H           -0.531186927453    -3.420169363278    -0.000027465158     1.007825032230
         H           -1.825363927453    -2.565526363278    -0.877557465158     1.007825032230
         H           -1.825274927453    -2.565558363278     0.877661534842     1.007825032230

  Running in c1 symmetry.

  Rotational constants: A =      0.05700  B =      0.04598  C =      0.02569 [cm^-1]
  Rotational constants: A =   1708.92577  B =   1378.35182  C =    770.19073 [MHz]
  Nuclear repulsion =  490.504503881330436

  Charge       = 0
  Multiplicity = 1
  Electrons    = 72
  Nalpha       = 36
  Nbeta        = 36

  ==> Algorithm <==

  SCF Algorithm Type is DF.
  DIIS enabled.
  MOM disabled.
  Fractional occupation disabled.
  Guess Type is SAD.
  Energy threshold   = 1.00e-10
  Density threshold  = 1.00e-10
  Integral threshold = 1.00e-12

  ==> Primary Basis <==

  Basis Set: AUG-CC-PVTZ
    Blend: AUG-CC-PVTZ
    Number of shells: 212
    Number of basis functions: 644
    Number of Cartesian functions: 750
    Spherical Harmonics?: true
    Max angular momentum: 3

   => Loading Basis Set <=

    Name: (AUG-CC-PVTZ AUX)
    Role: JKFIT
    Keyword: DF_BASIS_SCF
    atoms 1-2   entry O          line   286 file /home1/07844/xy3866/miniconda3/envs/p4env/share/psi4/basis/aug-cc-pvtz-jkfit.gbs 
    atoms 3-10  entry C          line   162 file /home1/07844/xy3866/miniconda3/envs/p4env/share/psi4/basis/aug-cc-pvtz-jkfit.gbs 
    atoms 11-18 entry H          line    70 file /home1/07844/xy3866/miniconda3/envs/p4env/share/psi4/basis/aug-cc-pvtz-jkfit.gbs 

  ==> Integral Setup <==

  DFHelper Memory: AOs need 4.157 GiB; user supplied 22.352 GiB. Using in-core AOs.

  ==> MemDFJK: Density-Fitted J/K Matrices <==

    J tasked:                   Yes
    K tasked:                   Yes
    wK tasked:                   No
    OpenMP threads:              32
    Memory [MiB]:             22888
    Algorithm:                 Core
    Schwarz Cutoff:           1E-12
    Mask sparsity (%):       8.9903
    Fitting Condition:        1E-10

   => Auxiliary Basis Set <=

  Basis Set: (AUG-CC-PVTZ AUX)
    Blend: AUG-CC-PVTZ-JKFIT
    Number of shells: 412
    Number of basis functions: 1408
    Number of Cartesian functions: 1750
    Spherical Harmonics?: true
    Max angular momentum: 4

  Minimum eigenvalue in the overlap matrix is 7.7883464981E-07.
  Reciprocal condition number of the overlap matrix is 4.2186987928E-08.
    Using symmetric orthogonalization.

  ==> Pre-Iterations <==

  SCF Guess: Superposition of Atomic Densities via on-the-fly atomic UHF (no occupation information).

   -------------------------
    Irrep   Nso     Nmo    
   -------------------------
     A        644     644 
   -------------------------
    Total     644     644
   -------------------------

  ==> Iterations <==

                           Total Energy        Delta E     RMS |[F,P]|

   @DF-RHF iter SAD:  -456.40924620500476   -4.56409e+02   0.00000e+00 
   @DF-RHF iter   1:  -457.18876908474829   -7.79523e-01   1.11722e-03 DIIS
   @DF-RHF iter   2:  -457.41317195040972   -2.24403e-01   6.14365e-04 DIIS
   @DF-RHF iter   3:  -457.46666530613692   -5.34934e-02   1.59931e-04 DIIS
   @DF-RHF iter   4:  -457.47242107711827   -5.75577e-03   6.33423e-05 DIIS
   @DF-RHF iter   5:  -457.47350577595734   -1.08470e-03   1.02740e-05 DIIS
   @DF-RHF iter   6:  -457.47355914863829   -5.33727e-05   5.11879e-06 DIIS
   @DF-RHF iter   7:  -457.47356876761978   -9.61898e-06   2.02902e-06 DIIS
   @DF-RHF iter   8:  -457.47357073108981   -1.96347e-06   9.59881e-07 DIIS
   @DF-RHF iter   9:  -457.47357111719043   -3.86101e-07   3.02362e-07 DIIS
   @DF-RHF iter  10:  -457.47357118023308   -6.30426e-08   9.72522e-08 DIIS
   @DF-RHF iter  11:  -457.47357118424787   -4.01479e-09   4.29962e-08 DIIS
   @DF-RHF iter  12:  -457.47357118503584   -7.87963e-10   1.53320e-08 DIIS
   @DF-RHF iter  13:  -457.47357118516015   -1.24317e-10   5.74125e-09 DIIS
   @DF-RHF iter  14:  -457.47357118518329   -2.31353e-11   2.27176e-09 DIIS
   @DF-RHF iter  15:  -457.47357118518823   -4.94538e-12   6.27434e-10 DIIS
   @DF-RHF iter  16:  -457.47357118518846   -2.27374e-13   1.88316e-10 DIIS
   @DF-RHF iter  17:  -457.47357118518704    1.42109e-12   9.72882e-11 DIIS
  Energy and wave function converged.


  ==> Post-Iterations <==

    Orbital Energies [Eh]
    ---------------------

    Doubly Occupied:                                                      

       1A    -20.581804     2A    -20.563788     3A    -11.359542  
       4A    -11.350798     5A    -11.286650     6A    -11.285947  
       7A    -11.270701     8A    -11.264926     9A    -11.243105  
      10A    -11.242287    11A     -1.432775    12A     -1.386481  
      13A     -1.156293    14A     -1.099181    15A     -1.006400  
      16A     -0.963829    17A     -0.923262    18A     -0.818628  
      19A     -0.805746    20A     -0.722987    21A     -0.703449  
      22A     -0.656040    23A     -0.621719    24A     -0.618878  
      25A     -0.605506    26A     -0.590822    27A     -0.588991  
      28A     -0.575037    29A     -0.553504    30A     -0.553298  
      31A     -0.551741    32A     -0.546598    33A     -0.454834  
      34A     -0.429212    35A     -0.400369    36A     -0.382562  

    Virtual:                                                              

      37A      0.010365    38A      0.026040    39A      0.028618  
      40A      0.038332    41A      0.040921    42A      0.045814  
      43A      0.051158    44A      0.055451    45A      0.067452  
      46A      0.078196    47A      0.091580    48A      0.093845  
      49A      0.101976    50A      0.103036    51A      0.107767  
      52A      0.110595    53A      0.113284    54A      0.120074  
      55A      0.125328    56A      0.130453    57A      0.133144  
      58A      0.135725    59A      0.137942    60A      0.140472  
      61A      0.149456    62A      0.150156    63A      0.153081  
      64A      0.154132    65A      0.155246    66A      0.165940  
      67A      0.171717    68A      0.175667    69A      0.177810  
      70A      0.179326    71A      0.206278    72A      0.208543  
      73A      0.216625    74A      0.222483    75A      0.224975  
      76A      0.228487    77A      0.235520    78A      0.244388  
      79A      0.245354    80A      0.252310    81A      0.255363  
      82A      0.255720    83A      0.263412    84A      0.275413  
      85A      0.278738    86A      0.287796    87A      0.293074  
      88A      0.296114    89A      0.304140    90A      0.309303  
      91A      0.313979    92A      0.315420    93A      0.320767  
      94A      0.333604    95A      0.344250    96A      0.345728  
      97A      0.346181    98A      0.352629    99A      0.353553  
     100A      0.357427   101A      0.360625   102A      0.366729  
     103A      0.370862   104A      0.384774   105A      0.388251  
     106A      0.388796   107A      0.397552   108A      0.404987  
     109A      0.405962   110A      0.413185   111A      0.416862  
     112A      0.419789   113A      0.424185   114A      0.426038  
     115A      0.429985   116A      0.430754   117A      0.430897  
     118A      0.442073   119A      0.444825   120A      0.446107  
     121A      0.446934   122A      0.452392   123A      0.456883  
     124A      0.469090   125A      0.470191   126A      0.480127  
     127A      0.481355   128A      0.483895   129A      0.487338  
     130A      0.495931   131A      0.502971   132A      0.503957  
     133A      0.512476   134A      0.516091   135A      0.525430  
     136A      0.528561   137A      0.540277   138A      0.546834  
     139A      0.548168   140A      0.549207   141A      0.551551  
     142A      0.562591   143A      0.567898   144A      0.570271  
     145A      0.571016   146A      0.586601   147A      0.597642  
     148A      0.602535   149A      0.608918   150A      0.610822  
     151A      0.622179   152A      0.630270   153A      0.639001  
     154A      0.648109   155A      0.652723   156A      0.658842  
     157A      0.666903   158A      0.692867   159A      0.697828  
     160A      0.700024   161A      0.713363   162A      0.721328  
     163A      0.731701   164A      0.738553   165A      0.740445  
     166A      0.745895   167A      0.758385   168A      0.775978  
     169A      0.778720   170A      0.785258   171A      0.788750  
     172A      0.789526   173A      0.799785   174A      0.802097  
     175A      0.814661   176A      0.822595   177A      0.826907  
     178A      0.827562   179A      0.843904   180A      0.855080  
     181A      0.856962   182A      0.860663   183A      0.872345  
     184A      0.875396   185A      0.875991   186A      0.880705  
     187A      0.899508   188A      0.900894   189A      0.905413  
     190A      0.906336   191A      0.912147   192A      0.916773  
     193A      0.925077   194A      0.935992   195A      0.939252  
     196A      0.943397   197A      0.948622   198A      0.954023  
     199A      0.954136   200A      0.957453   201A      0.964045  
     202A      0.965608   203A      0.972943   204A      0.973096  
     205A      0.978970   206A      0.985280   207A      0.989252  
     208A      0.991574   209A      0.998698   210A      0.999578  
     211A      1.015803   212A      1.020594   213A      1.032106  
     214A      1.040506   215A      1.046946   216A      1.056029  
     217A      1.061339   218A      1.063585   219A      1.068794  
     220A      1.080643   221A      1.083376   222A      1.091561  
     223A      1.097636   224A      1.105032   225A      1.106222  
     226A      1.115564   227A      1.117931   228A      1.118435  
     229A      1.128472   230A      1.143701   231A      1.148427  
     232A      1.148948   233A      1.153649   234A      1.154885  
     235A      1.163163   236A      1.165860   237A      1.168564  
     238A      1.177684   239A      1.186730   240A      1.192923  
     241A      1.206549   242A      1.218666   243A      1.219973  
     244A      1.220699   245A      1.223469   246A      1.228422  
     247A      1.237254   248A      1.239274   249A      1.249868  
     250A      1.250054   251A      1.264689   252A      1.282084  
     253A      1.304675   254A      1.316409   255A      1.320819  
     256A      1.328884   257A      1.349036   258A      1.350915  
     259A      1.356457   260A      1.366722   261A      1.380156  
     262A      1.383033   263A      1.393660   264A      1.395638  
     265A      1.409111   266A      1.424734   267A      1.427853  
     268A      1.430611   269A      1.435331   270A      1.436064  
     271A      1.456589   272A      1.464959   273A      1.478916  
     274A      1.480870   275A      1.498315   276A      1.500863  
     277A      1.522476   278A      1.527713   279A      1.544650  
     280A      1.551313   281A      1.560861   282A      1.565686  
     283A      1.573138   284A      1.591427   285A      1.600997  
     286A      1.602474   287A      1.607644   288A      1.621821  
     289A      1.633206   290A      1.639072   291A      1.645256  
     292A      1.647895   293A      1.672564   294A      1.679881  
     295A      1.680195   296A      1.695669   297A      1.699978  
     298A      1.712123   299A      1.721790   300A      1.723389  
     301A      1.738945   302A      1.743472   303A      1.750660  
     304A      1.762755   305A      1.778215   306A      1.783329  
     307A      1.793287   308A      1.804509   309A      1.811047  
     310A      1.812341   311A      1.815866   312A      1.839319  
     313A      1.841714   314A      1.859219   315A      1.863237  
     316A      1.869720   317A      1.878679   318A      1.886904  
     319A      1.890600   320A      1.894444   321A      1.898659  
     322A      1.923193   323A      1.925945   324A      1.943251  
     325A      1.961538   326A      1.966869   327A      1.976848  
     328A      1.985937   329A      2.012599   330A      2.021006  
     331A      2.027490   332A      2.037678   333A      2.048500  
     334A      2.055845   335A      2.061973   336A      2.075330  
     337A      2.083000   338A      2.086042   339A      2.089151  
     340A      2.093580   341A      2.110996   342A      2.119482  
     343A      2.128197   344A      2.146249   345A      2.159563  
     346A      2.177959   347A      2.184228   348A      2.193942  
     349A      2.216777   350A      2.224905   351A      2.226931  
     352A      2.247551   353A      2.258925   354A      2.260118  
     355A      2.263307   356A      2.271917   357A      2.274765  
     358A      2.281630   359A      2.306748   360A      2.324838  
     361A      2.332034   362A      2.349171   363A      2.352302  
     364A      2.381480   365A      2.381775   366A      2.404605  
     367A      2.412000   368A      2.437652   369A      2.460932  
     370A      2.500772   371A      2.504025   372A      2.525710  
     373A      2.530963   374A      2.544685   375A      2.550569  
     376A      2.555463   377A      2.581684   378A      2.598232  
     379A      2.606900   380A      2.609140   381A      2.609623  
     382A      2.622470   383A      2.630375   384A      2.676157  
     385A      2.688154   386A      2.692424   387A      2.718773  
     388A      2.726871   389A      2.727302   390A      2.790215  
     391A      2.802800   392A      2.808910   393A      2.826335  
     394A      2.861081   395A      2.875395   396A      2.913104  
     397A      2.943985   398A      2.944984   399A      2.961094  
     400A      2.997532   401A      3.029076   402A      3.052417  
     403A      3.060113   404A      3.090486   405A      3.113167  
     406A      3.125634   407A      3.151378   408A      3.183123  
     409A      3.210671   410A      3.228306   411A      3.267331  
     412A      3.295921   413A      3.304538   414A      3.311300  
     415A      3.330997   416A      3.351663   417A      3.373894  
     418A      3.373928   419A      3.405112   420A      3.412715  
     421A      3.418778   422A      3.422522   423A      3.439316  
     424A      3.446689   425A      3.455558   426A      3.472755  
     427A      3.483804   428A      3.486071   429A      3.504876  
     430A      3.522808   431A      3.528003   432A      3.548455  
     433A      3.555027   434A      3.581012   435A      3.587116  
     436A      3.594239   437A      3.623379   438A      3.628977  
     439A      3.632388   440A      3.642100   441A      3.653321  
     442A      3.656612   443A      3.657539   444A      3.664092  
     445A      3.665466   446A      3.681864   447A      3.705252  
     448A      3.708586   449A      3.728743   450A      3.732181  
     451A      3.746753   452A      3.762288   453A      3.765957  
     454A      3.776786   455A      3.809558   456A      3.822267  
     457A      3.824593   458A      3.833935   459A      3.839607  
     460A      3.848264   461A      3.855034   462A      3.856341  
     463A      3.858804   464A      3.875388   465A      3.895518  
     466A      3.921402   467A      3.934054   468A      3.946488  
     469A      3.953955   470A      3.955775   471A      3.965410  
     472A      3.969223   473A      3.990935   474A      4.003302  
     475A      4.013151   476A      4.023606   477A      4.033647  
     478A      4.059865   479A      4.062433   480A      4.067666  
     481A      4.082222   482A      4.091638   483A      4.100779  
     484A      4.113156   485A      4.154369   486A      4.157010  
     487A      4.178776   488A      4.188844   489A      4.197899  
     490A      4.197966   491A      4.215079   492A      4.215300  
     493A      4.236955   494A      4.246077   495A      4.263579  
     496A      4.265688   497A      4.292378   498A      4.297058  
     499A      4.321467   500A      4.331257   501A      4.334003  
     502A      4.339901   503A      4.370945   504A      4.379731  
     505A      4.384092   506A      4.387670   507A      4.389013  
     508A      4.423335   509A      4.436630   510A      4.453733  
     511A      4.470125   512A      4.475510   513A      4.480119  
     514A      4.510243   515A      4.517632   516A      4.546100  
     517A      4.548296   518A      4.552946   519A      4.553775  
     520A      4.566082   521A      4.592422   522A      4.602862  
     523A      4.640929   524A      4.664554   525A      4.676109  
     526A      4.687507   527A      4.699415   528A      4.707993  
     529A      4.709921   530A      4.741888   531A      4.750480  
     532A      4.764797   533A      4.767153   534A      4.785409  
     535A      4.804607   536A      4.823349   537A      4.842773  
     538A      4.845360   539A      4.852010   540A      4.876130  
     541A      4.909005   542A      4.924297   543A      4.947487  
     544A      4.949278   545A      4.963734   546A      5.017585  
     547A      5.024768   548A      5.045661   549A      5.053701  
     550A      5.057814   551A      5.066808   552A      5.096182  
     553A      5.133032   554A      5.148286   555A      5.154455  
     556A      5.172949   557A      5.194125   558A      5.197207  
     559A      5.230766   560A      5.235387   561A      5.244910  
     562A      5.268278   563A      5.269118   564A      5.289858  
     565A      5.295891   566A      5.302387   567A      5.358431  
     568A      5.434008   569A      5.459217   570A      5.468222  
     571A      5.472239   572A      5.520815   573A      5.530656  
     574A      5.545569   575A      5.585805   576A      5.602799  
     577A      5.633500   578A      5.643603   579A      5.650818  
     580A      5.714058   581A      5.719667   582A      5.725198  
     583A      5.752908   584A      5.787784   585A      5.825826  
     586A      5.836052   587A      5.976990   588A      5.984036  
     589A      6.028058   590A      6.097231   591A      6.110136  
     592A      6.142328   593A      6.156993   594A      6.162583  
     595A      6.182363   596A      6.205160   597A      6.264145  
     598A      6.286703   599A      6.302287   600A      6.373101  
     601A      6.489411   602A      6.577824   603A      6.609333  
     604A      6.654943   605A      6.697825   606A      6.739232  
     607A      6.739425   608A      6.753732   609A      6.762544  
     610A      6.787349   611A      6.802339   612A      6.810164  
     613A      6.821928   614A      6.903602   615A      6.952216  
     616A      7.040287   617A      7.090924   618A      7.140110  
     619A      7.185480   620A      7.198146   621A      7.355275  
     622A      7.401088   623A      7.453905   624A      7.465054  
     625A      7.524064   626A      7.638710   627A      7.737647  
     628A      7.743983   629A      7.773531   630A      7.805267  
     631A      7.860500   632A      7.964045   633A      8.005495  
     634A      8.055892   635A     15.333006   636A     16.197361  
     637A     16.483107   638A     17.058547   639A     18.645262  
     640A     18.825612   641A     19.579108   642A     19.974374  
     643A     20.548710   644A     20.724367  

    Final Occupation by Irrep:
              A 
    DOCC [    36 ]

  @DF-RHF Final Energy:  -457.47357118518704

   => Energetics <=

    Nuclear Repulsion Energy =            490.5045038813304359
    One-Electron Energy =               -1594.7607660945736825
    Two-Electron Energy =                 646.7826910280560924
    Total Energy =                       -457.4735711851870974

Computation Completed

*** tstop() called on c421-112.stampede2.tacc.utexas.edu at Sun Feb 28 23:20:46 2021
Module time:
	user time   =     594.10 seconds =       9.90 minutes
	system time =      42.85 seconds =       0.71 minutes
	total time  =         34 seconds =       0.57 minutes
Total time:
	user time   =     594.10 seconds =       9.90 minutes
	system time =      42.85 seconds =       0.71 minutes
	total time  =         34 seconds =       0.57 minutes
   => Loading Basis Set <=

    Name: (AUG-CC-PVTZ AUX)
    Role: RIFIT
    Keyword: DF_BASIS_MP2
    atoms 1-2   entry O          line   264 file /home1/07844/xy3866/miniconda3/envs/p4env/share/psi4/basis/aug-cc-pvtz-ri.gbs 
    atoms 3-10  entry C          line   148 file /home1/07844/xy3866/miniconda3/envs/p4env/share/psi4/basis/aug-cc-pvtz-ri.gbs 
    atoms 11-18 entry H          line    30 file /home1/07844/xy3866/miniconda3/envs/p4env/share/psi4/basis/aug-cc-pvtz-ri.gbs 


*** tstart() called on c421-112.stampede2.tacc.utexas.edu
*** at Sun Feb 28 23:20:47 2021


  //>>>>>>>>>>>>>>>>>>>>>>>>>>>>>>>>>>>//
  //               DFMP2               //
  //<<<<<<<<<<<<<<<<<<<<<<<<<<<<<<<<<<<//

	 --------------------------------------------------------
	                          DF-MP2                         
	      2nd-Order Density-Fitted Moller-Plesset Theory     
	              RMP2 Wavefunction,  32 Threads             
	                                                         
	        Rob Parrish, Justin Turney, Andy Simmonett,      
	           Ed Hohenstein, and C. David Sherrill          
	 --------------------------------------------------------

   => Auxiliary Basis Set <=

  Basis Set: (AUG-CC-PVTZ AUX)
    Blend: AUG-CC-PVTZ-RI
    Number of shells: 392
    Number of basis functions: 1428
    Number of Cartesian functions: 1800
    Spherical Harmonics?: true
    Max angular momentum: 4

	 --------------------------------------------------------
	                 NBF =   644, NAUX =  1428
	 --------------------------------------------------------
	   CLASS    FOCC     OCC    AOCC    AVIR     VIR    FVIR
	   PAIRS       0      36      36     608     608       0
	 --------------------------------------------------------

  DFHelper Memory: AOs need 4.308 GiB; user supplied 22.352 GiB. Using in-core AOs.


         ------------------------------------------------------------
                                     CPHF                           
                                  Rob Parrish                       
         ------------------------------------------------------------

  ==> Geometry <==

    Molecular point group: c1
    Full point group: C1

    Geometry (in Angstrom), charge = 0, multiplicity = 1:

       Center              X                  Y                   Z               Mass       
    ------------   -----------------  -----------------  -----------------  -----------------
         O           -2.341789927453     0.002376636722     0.000053534842    15.994914619570
         O            2.998429072547     0.002376636722    -0.000055465158    15.994914619570
         C           -0.352644927453     1.289569636722     0.000000534842    12.000000000000
         C           -0.352644927453    -1.284816363278     0.000001534842    12.000000000000
         C           -1.146734627453    -0.024568963278     0.000021834842    12.000000000000
         C            0.999641072547     1.267567636722    -0.000016465158    12.000000000000
         C            0.999641072547    -1.262814363278    -0.000015465158    12.000000000000
         C            1.759017072547     0.002376636722    -0.000031465158    12.000000000000
         C           -1.173296927453     2.541090636722     0.000015534842    12.000000000000
         C           -1.173296927453    -2.536337363278     0.000019534842    12.000000000000
         H            1.592557072547     2.180253636722    -0.000029465158     1.007825032230
         H            1.592557072547    -2.175500363278    -0.000026465158     1.007825032230
         H           -1.825281927453     2.570308636722     0.877652534842     1.007825032230
         H           -1.825355927453     2.570282636722    -0.877566465158     1.007825032230
         H           -0.531185927453     3.424922636722    -0.000023465158     1.007825032230
         H           -0.531186927453    -3.420169363278    -0.000027465158     1.007825032230
         H           -1.825363927453    -2.565526363278    -0.877557465158     1.007825032230
         H           -1.825274927453    -2.565558363278     0.877661534842     1.007825032230

  Nuclear repulsion =  490.504503881330436
  Reference energy  = -457.473571185187041

  ==> Basis Set <==

  Basis Set: AUG-CC-PVTZ
    Blend: AUG-CC-PVTZ
    Number of shells: 212
    Number of basis functions: 644
    Number of Cartesian functions: 750
    Spherical Harmonics?: true
    Max angular momentum: 3

  ==> CGRSolver (by Rob Parrish) <==

   Number of roots    =         1
   Preconditioning    =    JACOBI
   Convergence cutoff =     1E-06
   Maximum iterations =       100

  ==> CPHFRHamiltonian (by Rob Parrish) <== 

  ==> MemDFJK: Density-Fitted J/K Matrices <==

    J tasked:                   Yes
    K tasked:                   Yes
    wK tasked:                   No
    OpenMP threads:              32
    Memory [MiB]:             22888
    Algorithm:                 Core
    Schwarz Cutoff:           1E-12
    Mask sparsity (%):       5.5124
    Fitting Condition:        1E-10

   => Auxiliary Basis Set <=

  Basis Set: (AUG-CC-PVTZ AUX)
    Blend: AUG-CC-PVTZ-JKFIT
    Number of shells: 412
    Number of basis functions: 1408
    Number of Cartesian functions: 1750
    Spherical Harmonics?: true
    Max angular momentum: 4

  ==> CPHF Iterations <==

  => Iterations <=

             Iter  Converged  Remaining    Residual
  CGR           1          0          1   1.218E-01
  CGR           2          0          1   3.439E-02
  CGR           3          0          1   1.105E-02
  CGR           4          0          1   4.262E-03
  CGR           5          0          1   2.025E-03
  CGR           6          0          1   8.118E-04
  CGR           7          0          1   2.208E-04
  CGR           8          0          1   8.495E-05
  CGR           9          0          1   2.871E-05
  CGR          10          0          1   1.324E-05
  CGR          11          0          1   4.657E-06
  CGR          12          0          1   1.276E-06
  CGR          13          1          0   4.143E-07

    CGRSolver converged.

	-----------------------------------------------------------
	 ==================> DF-MP2 Energies <==================== 
	-----------------------------------------------------------
	 Reference Energy          =    -457.4735711851870406 [Eh]
	 Singles Energy            =      -0.0000000000000000 [Eh]
	 Same-Spin Energy          =      -0.4652589504272728 [Eh]
	 Opposite-Spin Energy      =      -1.4736731541129870 [Eh]
	 Correlation Energy        =      -1.9389321045402599 [Eh]
	 Total Energy              =    -459.4125032897272831 [Eh]
	-----------------------------------------------------------
	 ================> DF-SCS-MP2 Energies <================== 
	-----------------------------------------------------------
	 SCS Same-Spin Scale       =       0.3333333333333333 [-]
	 SCS Opposite-Spin Scale   =       1.2000000000000000 [-]
	 SCS Same-Spin Energy      =      -0.1550863168090909 [Eh]
	 SCS Opposite-Spin Energy  =      -1.7684077849355844 [Eh]
	 SCS Correlation Energy    =      -1.9234941017446754 [Eh]
	 SCS Total Energy          =    -459.3970652869317064 [Eh]
	-----------------------------------------------------------



Properties will be evaluated at  -0.000000,   0.000000,  -0.000000 [a0]

Properties computed using the MP2 density matrix

  Nuclear Dipole Moment: [e a0]
     X:    -4.8516      Y:     0.0178      Z:     0.0001

  Electronic Dipole Moment: [e a0]
     X:     4.3216      Y:    -0.0599      Z:    -0.0001

  Dipole Moment: [e a0]
     X:    -0.5299      Y:    -0.0420      Z:     0.0000     Total:     0.5316

  Dipole Moment: [D]
     X:    -1.3470      Y:    -0.1068      Z:     0.0000     Total:     1.3512


*** tstop() called on c421-112.stampede2.tacc.utexas.edu at Sun Feb 28 23:24:13 2021
Module time:
	user time   =    1779.18 seconds =      29.65 minutes
	system time =      70.76 seconds =       1.18 minutes
	total time  =        206 seconds =       3.43 minutes
Total time:
	user time   =    2374.17 seconds =      39.57 minutes
	system time =     113.64 seconds =       1.89 minutes
	total time  =        241 seconds =       4.02 minutes

    Psi4 stopped on: Sunday, 28 February 2021 11:24PM
    Psi4 wall time for execution: 0:04:01.80

*** Psi4 exiting successfully. Buy a developer a beer!
