090_PropionylChloride Gaussian SP Calculation on node142.bme.utexas.edu 
Freq      RMP2-FC                                                     6-31G(d)            
Number of atoms                            I               10
Info1-9                                    I   N=           9
          21          20        1002           0           0         100
           6           2           1
Charge                                     I                0
Multiplicity                               I                1
Number of electrons                        I               48
Number of alpha electrons                  I               24
Number of beta electrons                   I               24
Number of basis functions                  I               89
Number of independent functions            I               89
Number of point charges in /Mol/           I                0
Number of translation vectors              I                0
Atomic numbers                             I   N=          10
          17           8           6           6           6           1
           1           1           1           1
Nuclear charges                            R   N=          10
  1.70000000E+01  8.00000000E+00  6.00000000E+00  6.00000000E+00  6.00000000E+00
  1.00000000E+00  1.00000000E+00  1.00000000E+00  1.00000000E+00  1.00000000E+00
Current cartesian coordinates              R   N=          30
 -3.33624963E+00 -5.85967229E-01  1.48587893E-06  2.25175875E-01  2.86896497E+00
 -7.67123261E-07  1.78943301E+00 -1.44468051E+00 -3.60844583E-06  4.47011616E+00
 -4.01199755E-01  3.24771508E-06 -1.55088895E-01  6.30657738E-01 -2.64443161E-06
  1.42261549E+00 -2.63761172E+00  1.65216627E+00  1.42262075E+00 -2.63760090E+00
 -1.65218260E+00  4.80594995E+00  7.65102665E-01 -1.66808095E+00  4.80594977E+00
  7.65082156E-01  1.66810219E+00  5.83093916E+00 -1.95391392E+00 -6.00534210E-06
Force Field                                I                0
Int Atom Types                             I   N=          10
           0           0           0           0           0           0
           0           0           0           0
MM charges                                 R   N=          10
  0.00000000E+00  0.00000000E+00  0.00000000E+00  0.00000000E+00  0.00000000E+00
  0.00000000E+00  0.00000000E+00  0.00000000E+00  0.00000000E+00  0.00000000E+00
Integer atomic weights                     I   N=          10
          35          16          12          12          12           1
           1           1           1           1
Real atomic weights                        R   N=          10
  3.49688527E+01  1.59949146E+01  1.20000000E+01  1.20000000E+01  1.20000000E+01
  1.00782504E+00  1.00782504E+00  1.00782504E+00  1.00782504E+00  1.00782504E+00
Atom fragment info                         I   N=          10
           0           0           0           0           0           0
           0           0           0           0
Atom residue num                           I   N=          10
           0           0           0           0           0           0
           0           0           0           0
Nuclear spins                              I   N=          10
           3           0           0           0           0           1
           1           1           1           1
Nuclear ZEff                               R   N=          10
 -1.42400000E+01 -5.60000000E+00 -3.60000000E+00 -3.60000000E+00 -3.60000000E+00
 -1.00000000E+00 -1.00000000E+00 -1.00000000E+00 -1.00000000E+00 -1.00000000E+00
Nuclear QMom                               R   N=          10
 -8.16500000E+00  0.00000000E+00  0.00000000E+00  0.00000000E+00  0.00000000E+00
  0.00000000E+00  0.00000000E+00  0.00000000E+00  0.00000000E+00  0.00000000E+00
Nuclear GFac                               R   N=          10
  8.21874000E-01  0.00000000E+00  0.00000000E+00  0.00000000E+00  0.00000000E+00
  2.79284600E+00  2.79284600E+00  2.79284600E+00  2.79284600E+00  2.79284600E+00
MicOpt                                     I   N=          10
          -1          -1          -1          -1          -1          -1
          -1          -1          -1          -1
Number of contracted shells                I               31
Number of primitive shells                 I               81
Pure/Cartesian d shells                    I                1
Pure/Cartesian f shells                    I                0
Highest angular momentum                   I                2
Largest degree of contraction              I                6
Shell types                                I   N=          31
           0          -1          -1          -1           2           0
          -1          -1           2           0          -1          -1
           2           0          -1          -1           2           0
          -1          -1           2           0           0           0
           0           0           0           0           0           0
           0
Number of primitives per shell             I   N=          31
           6           6           3           1           1           6
           3           1           1           6           3           1
           1           6           3           1           1           6
           3           1           1           3           1           3
           1           3           1           3           1           3
           1
Shell to atom map                          I   N=          31
           1           1           1           1           1           2
           2           2           2           3           3           3
           3           4           4           4           4           5
           5           5           5           6           6           7
           7           8           8           9           9          10
          10
Primitive exponents                        R   N=          81
  2.51801000E+04  3.78035000E+03  8.60474000E+02  2.42145000E+02  7.73349000E+01
  2.62470000E+01  4.91765000E+02  1.16984000E+02  3.74153000E+01  1.37834000E+01
  5.45215000E+00  2.22588000E+00  3.18649000E+00  1.14427000E+00  4.20377000E-01
  1.42657000E-01  7.50000000E-01  5.48467166E+03  8.25234946E+02  1.88046958E+02
  5.29645000E+01  1.68975704E+01  5.79963534E+00  1.55396162E+01  3.59993359E+00
  1.01376175E+00  2.70005823E-01  8.00000000E-01  3.04752488E+03  4.57369518E+02
  1.03948685E+02  2.92101553E+01  9.28666296E+00  3.16392696E+00  7.86827235E+00
  1.88128854E+00  5.44249258E-01  1.68714478E-01  8.00000000E-01  3.04752488E+03
  4.57369518E+02  1.03948685E+02  2.92101553E+01  9.28666296E+00  3.16392696E+00
  7.86827235E+00  1.88128854E+00  5.44249258E-01  1.68714478E-01  8.00000000E-01
  3.04752488E+03  4.57369518E+02  1.03948685E+02  2.92101553E+01  9.28666296E+00
  3.16392696E+00  7.86827235E+00  1.88128854E+00  5.44249258E-01  1.68714478E-01
  8.00000000E-01  1.87311370E+01  2.82539436E+00  6.40121692E-01  1.61277759E-01
  1.87311370E+01  2.82539436E+00  6.40121692E-01  1.61277759E-01  1.87311370E+01
  2.82539436E+00  6.40121692E-01  1.61277759E-01  1.87311370E+01  2.82539436E+00
  6.40121692E-01  1.61277759E-01  1.87311370E+01  2.82539436E+00  6.40121692E-01
  1.61277759E-01
Contraction coefficients                   R   N=          81
  1.83295985E-03  1.40341988E-02  6.90973943E-02  2.37451980E-01  4.83033960E-01
  3.39855972E-01 -2.29739142E-03 -3.07137189E-02 -1.12528069E-01  4.50163278E-02
  5.89353363E-01  4.65206287E-01 -2.51828028E-01  6.15892514E-02  1.06018433E+00
  1.00000000E+00  1.00000000E+00  1.83107443E-03  1.39501722E-02  6.84450781E-02
  2.32714336E-01  4.70192898E-01  3.58520853E-01 -1.10777550E-01 -1.48026263E-01
  1.13076702E+00  1.00000000E+00  1.00000000E+00  1.83473713E-03  1.40373228E-02
  6.88426223E-02  2.32184443E-01  4.67941348E-01  3.62311985E-01 -1.19332420E-01
 -1.60854152E-01  1.14345644E+00  1.00000000E+00  1.00000000E+00  1.83473713E-03
  1.40373228E-02  6.88426223E-02  2.32184443E-01  4.67941348E-01  3.62311985E-01
 -1.19332420E-01 -1.60854152E-01  1.14345644E+00  1.00000000E+00  1.00000000E+00
  1.83473713E-03  1.40373228E-02  6.88426223E-02  2.32184443E-01  4.67941348E-01
  3.62311985E-01 -1.19332420E-01 -1.60854152E-01  1.14345644E+00  1.00000000E+00
  1.00000000E+00  3.34946043E-02  2.34726953E-01  8.13757326E-01  1.00000000E+00
  3.34946043E-02  2.34726953E-01  8.13757326E-01  1.00000000E+00  3.34946043E-02
  2.34726953E-01  8.13757326E-01  1.00000000E+00  3.34946043E-02  2.34726953E-01
  8.13757326E-01  1.00000000E+00  3.34946043E-02  2.34726953E-01  8.13757326E-01
  1.00000000E+00
P(S=P) Contraction coefficients            R   N=          81
  0.00000000E+00  0.00000000E+00  0.00000000E+00  0.00000000E+00  0.00000000E+00
  0.00000000E+00  3.98940088E-03  3.03177067E-02  1.29880029E-01  3.27951072E-01
  4.53527100E-01  2.52154056E-01 -1.42993147E-02  3.23572333E-01  7.43507765E-01
  1.00000000E+00  0.00000000E+00  0.00000000E+00  0.00000000E+00  0.00000000E+00
  0.00000000E+00  0.00000000E+00  0.00000000E+00  7.08742682E-02  3.39752839E-01
  7.27158577E-01  1.00000000E+00  0.00000000E+00  0.00000000E+00  0.00000000E+00
  0.00000000E+00  0.00000000E+00  0.00000000E+00  0.00000000E+00  6.89990666E-02
  3.16423961E-01  7.44308291E-01  1.00000000E+00  0.00000000E+00  0.00000000E+00
  0.00000000E+00  0.00000000E+00  0.00000000E+00  0.00000000E+00  0.00000000E+00
  6.89990666E-02  3.16423961E-01  7.44308291E-01  1.00000000E+00  0.00000000E+00
  0.00000000E+00  0.00000000E+00  0.00000000E+00  0.00000000E+00  0.00000000E+00
  0.00000000E+00  6.89990666E-02  3.16423961E-01  7.44308291E-01  1.00000000E+00
  0.00000000E+00  0.00000000E+00  0.00000000E+00  0.00000000E+00  0.00000000E+00
  0.00000000E+00  0.00000000E+00  0.00000000E+00  0.00000000E+00  0.00000000E+00
  0.00000000E+00  0.00000000E+00  0.00000000E+00  0.00000000E+00  0.00000000E+00
  0.00000000E+00  0.00000000E+00  0.00000000E+00  0.00000000E+00  0.00000000E+00
  0.00000000E+00
Coordinates of each shell                  R   N=          93
 -3.33624963E+00 -5.85967229E-01  1.48587893E-06 -3.33624963E+00 -5.85967229E-01
  1.48587893E-06 -3.33624963E+00 -5.85967229E-01  1.48587893E-06 -3.33624963E+00
 -5.85967229E-01  1.48587893E-06 -3.33624963E+00 -5.85967229E-01  1.48587893E-06
  2.25175875E-01  2.86896497E+00 -7.67123261E-07  2.25175875E-01  2.86896497E+00
 -7.67123261E-07  2.25175875E-01  2.86896497E+00 -7.67123261E-07  2.25175875E-01
  2.86896497E+00 -7.67123261E-07  1.78943301E+00 -1.44468051E+00 -3.60844583E-06
  1.78943301E+00 -1.44468051E+00 -3.60844583E-06  1.78943301E+00 -1.44468051E+00
 -3.60844583E-06  1.78943301E+00 -1.44468051E+00 -3.60844583E-06  4.47011616E+00
 -4.01199755E-01  3.24771508E-06  4.47011616E+00 -4.01199755E-01  3.24771508E-06
  4.47011616E+00 -4.01199755E-01  3.24771508E-06  4.47011616E+00 -4.01199755E-01
  3.24771508E-06 -1.55088895E-01  6.30657738E-01 -2.64443161E-06 -1.55088895E-01
  6.30657738E-01 -2.64443161E-06 -1.55088895E-01  6.30657738E-01 -2.64443161E-06
 -1.55088895E-01  6.30657738E-01 -2.64443161E-06  1.42261549E+00 -2.63761172E+00
  1.65216627E+00  1.42261549E+00 -2.63761172E+00  1.65216627E+00  1.42262075E+00
 -2.63760090E+00 -1.65218260E+00  1.42262075E+00 -2.63760090E+00 -1.65218260E+00
  4.80594995E+00  7.65102665E-01 -1.66808095E+00  4.80594995E+00  7.65102665E-01
 -1.66808095E+00  4.80594977E+00  7.65082156E-01  1.66810219E+00  4.80594977E+00
  7.65082156E-01  1.66810219E+00  5.83093916E+00 -1.95391392E+00 -6.00534210E-06
  5.83093916E+00 -1.95391392E+00 -6.00534210E-06
Constraint Structure                       R   N=          30
 -3.33624963E+00 -5.85967229E-01  1.48587893E-06  2.25175875E-01  2.86896497E+00
 -7.67123261E-07  1.78943301E+00 -1.44468051E+00 -3.60844583E-06  4.47011616E+00
 -4.01199755E-01  3.24771508E-06 -1.55088895E-01  6.30657738E-01 -2.64443161E-06
  1.42261549E+00 -2.63761172E+00  1.65216627E+00  1.42262075E+00 -2.63760090E+00
 -1.65218260E+00  4.80594995E+00  7.65102665E-01 -1.66808095E+00  4.80594977E+00
  7.65082156E-01  1.66810219E+00  5.83093916E+00 -1.95391392E+00 -6.00534210E-06
Num ILSW                                   I              100
ILSW                                       I   N=         100
           0           1           0           0           2           0
           0           0           0           0           0          -1
           0           0           0           0           0           0
           0           0           0           0           1           0
           1           0           0           0           0           0
           0           0      100000           0          -1           0
           0           0           0           0           0           0
           0           0           0           1           1           0
           0           0           1           0           0           0
           0           0           4          40           0           0
           0           0           0           0           0           0
           0           0           0           0           0           0
           0           0           0           0           0           0
           0           0           0           0           0           0
           0           0           0           0           0           0
           0           0           0           0           0           0
           0           0           0           0
Num RLSW                                   I               40
RLSW                                       R   N=          40
  1.00000000E+00  1.00000000E+00  1.00000000E+00  1.00000000E+00  1.00000000E+00
  0.00000000E+00  0.00000000E+00  1.00000000E+00  0.00000000E+00  0.00000000E+00
  0.00000000E+00  0.00000000E+00  1.00000000E+00  0.00000000E+00  0.00000000E+00
  0.00000000E+00  0.00000000E+00  1.00000000E+00  0.00000000E+00  0.00000000E+00
  0.00000000E+00  0.00000000E+00  1.00000000E+00  0.00000000E+00  0.00000000E+00
  0.00000000E+00  0.00000000E+00  1.00000000E+00  0.00000000E+00  0.00000000E+00
  0.00000000E+00  0.00000000E+00  0.00000000E+00  0.00000000E+00  0.00000000E+00
  0.00000000E+00  0.00000000E+00  0.00000000E+00  1.00000000E+00  1.00000000E+00
MxBond                                     I                4
NBond                                      I   N=          10
           1           1           4           4           3           1
           1           1           1           1
IBond                                      I   N=          40
           5           0           0           0           5           0
           0           0           4           5           6           7
           3           8           9          10           1           2
           3           0           3           0           0           0
           3           0           0           0           4           0
           0           0           4           0           0           0
           4           0           0           0
RBond                                      R   N=          40
  1.00000000E+00  0.00000000E+00  0.00000000E+00  0.00000000E+00  2.00000000E+00
  0.00000000E+00  0.00000000E+00  0.00000000E+00  1.00000000E+00  1.00000000E+00
  1.00000000E+00  1.00000000E+00  1.00000000E+00  1.00000000E+00  1.00000000E+00
  1.00000000E+00  1.00000000E+00  2.00000000E+00  1.00000000E+00  0.00000000E+00
  1.00000000E+00  0.00000000E+00  0.00000000E+00  0.00000000E+00  1.00000000E+00
  0.00000000E+00  0.00000000E+00  0.00000000E+00  1.00000000E+00  0.00000000E+00
  0.00000000E+00  0.00000000E+00  1.00000000E+00  0.00000000E+00  0.00000000E+00
  0.00000000E+00  1.00000000E+00  0.00000000E+00  0.00000000E+00  0.00000000E+00
Virial Ratio                               R      2.001046764022293E+00
SCF Energy                                 R     -6.508651449284211E+02
MP2 Energy                                 R     -6.515640767859889E+02
Total Energy                               R     -6.515640767859889E+02
Post-SCF wavefunction norm                 R      1.571260001753485E+00
RMS Force                                  R      5.364777805464763E-07
RMS Density                                R      3.109141731740453E-09
External E-field                           R   N=          35
  0.00000000E+00  0.00000000E+00  0.00000000E+00  0.00000000E+00  0.00000000E+00
  0.00000000E+00  0.00000000E+00  0.00000000E+00  0.00000000E+00  0.00000000E+00
  0.00000000E+00  0.00000000E+00  0.00000000E+00  0.00000000E+00  0.00000000E+00
  0.00000000E+00  0.00000000E+00  0.00000000E+00  0.00000000E+00  0.00000000E+00
  0.00000000E+00  0.00000000E+00  0.00000000E+00  0.00000000E+00  0.00000000E+00
  0.00000000E+00  0.00000000E+00  0.00000000E+00  0.00000000E+00  0.00000000E+00
  0.00000000E+00  0.00000000E+00  0.00000000E+00  0.00000000E+00  0.00000000E+00
IOpCl                                      I                0
IROHF                                      I                0
Alpha Orbital Energies                     R   N=          89
 -1.04832154E+02 -2.06054345E+01 -1.14149520E+01 -1.12728528E+01 -1.12399702E+01
 -1.05670848E+01 -8.03620314E+00 -8.03306646E+00 -8.03283970E+00 -1.43871155E+00
 -1.13755309E+00 -1.07329412E+00 -9.13651433E-01 -7.64150102E-01 -6.84125177E-01
 -6.62738781E-01 -6.54477455E-01 -5.70871432E-01 -5.64665447E-01 -5.41592235E-01
 -5.17311270E-01 -4.64170019E-01 -4.63728312E-01 -4.49052923E-01  1.30975071E-01
  1.88684415E-01  2.21566076E-01  2.79431291E-01  2.83885839E-01  3.06796262E-01
  3.28936856E-01  3.72062810E-01  4.20603192E-01  4.35412132E-01  5.61337482E-01
  6.15896855E-01  6.37668499E-01  6.42366306E-01  7.13477601E-01  7.34136149E-01
  7.74963382E-01  7.78203936E-01  8.38066545E-01  9.25610846E-01  9.27478729E-01
  9.48712011E-01  9.92352329E-01  1.08770644E+00  1.09594230E+00  1.10486435E+00
  1.13935341E+00  1.13944682E+00  1.15703781E+00  1.17228501E+00  1.17767558E+00
  1.20697637E+00  1.21966993E+00  1.27394923E+00  1.32230157E+00  1.33682763E+00
  1.38605990E+00  1.45006183E+00  1.62010181E+00  1.78572459E+00  1.82254702E+00
  1.82280658E+00  1.94232102E+00  2.03469478E+00  2.05078135E+00  2.08686987E+00
  2.20048636E+00  2.24696727E+00  2.25646883E+00  2.38552678E+00  2.40576366E+00
  2.60443306E+00  2.62313681E+00  2.64231376E+00  2.70924551E+00  2.76673711E+00
  2.91132433E+00  3.02113193E+00  3.19741124E+00  3.32200084E+00  4.31302323E+00
  4.46637867E+00  4.64356133E+00  4.73821097E+00  4.87217725E+00
Alpha MO coefficients                      R   N=        7921
  9.96116357E-01  1.46470305E-02  4.99332888E-05  1.48308924E-05 -8.86452392E-11
 -1.77353861E-02 -5.62693449E-05 -1.05960840E-05  6.93252577E-11  1.44670817E-03
  4.67946992E-05  1.88018072E-05 -1.71510370E-11  6.26068317E-03  6.26862323E-03
  6.26379248E-03  3.44751583E-06  9.56752592E-12 -8.69218949E-12 -9.90106752E-06
 -4.09041654E-05  2.94935514E-06  1.31982646E-05  2.78381886E-11  2.70551272E-04
  3.68888117E-05 -8.72433006E-05 -2.13999181E-10 -4.23109850E-05 -1.68085955E-05
 -3.45326517E-05 -2.03823938E-05 -1.46613863E-11  5.75499631E-11 -6.56976277E-06
  5.76631648E-07  3.66105646E-06 -9.60886869E-08  5.33989863E-11  1.24048606E-04
  1.33326641E-04  7.50095706E-06 -3.42589230E-10 -4.05880738E-05 -9.79700188E-06
 -2.10001105E-05  1.10100485E-05  4.24624111E-11  1.14948202E-12 -8.93756258E-08
  7.47534078E-07  9.38100578E-06  4.96224917E-08  9.23313350E-12 -1.00861281E-04
  1.47222815E-05  4.59435026E-05  3.45887739E-10  1.46795377E-06 -3.63068584E-06
 -6.11479658E-07 -1.11625986E-06 -1.55427825E-11 -3.67927474E-11 -5.27640984E-07
  4.22920794E-05 -5.10407754E-05 -2.09530612E-05  8.08326775E-11 -1.83945226E-04
 -7.35052330E-05 -1.83532185E-04  5.83342152E-12 -4.12322757E-06  9.76787389E-06
 -4.61462864E-06 -2.66863118E-05 -2.08511987E-11  1.84344705E-11  7.53747195E-06
 -5.94115100E-05  7.53743734E-06 -5.94117700E-05 -1.79800422E-07  9.90111078E-07
 -1.79825814E-07  9.90070537E-07  6.69749619E-06  1.98716103E-05  3.46869751E-07
  3.71636370E-06  8.99362622E-06  5.28034104E-06 -7.96728291E-12  4.09635603E-05
 -4.06175007E-05 -1.03715862E-05  5.48617500E-11 -1.76557285E-04 -1.12673805E-04
 -5.76653806E-06  1.60678100E-10 -3.24027398E-05 -1.06704210E-05 -3.61571466E-06
 -1.71348359E-05  3.70553019E-11  8.46955874E-12  9.94695303E-01  2.09365451E-02
 -2.84017701E-04 -1.61344274E-03 -1.64348500E-09  4.74428772E-03 -8.72103701E-06
 -7.48194042E-05 -1.65695207E-11 -3.92157516E-03 -3.52486959E-03 -4.19361457E-03
  6.79942955E-05  1.57286816E-10  5.12800568E-10 -6.44549481E-07 -8.23735337E-06
 -1.02780061E-05 -1.48220762E-05  2.19413446E-11 -1.50489550E-04  1.88528958E-04
 -3.62867245E-05 -1.02925817E-11  5.63042332E-05 -4.18550848E-05 -1.83603749E-05
 -1.08577796E-05  8.49511855E-11 -3.30871665E-12  2.67432227E-06  1.48350293E-05
 -7.06571242E-06  1.68172210E-05  2.08276806E-10 -5.74373403E-05  7.62276159E-05
 -7.36281300E-06 -7.86884285E-10  5.48327001E-07 -6.70527638E-06  3.69255642E-06
 -1.39369647E-05 -8.68624891E-11 -3.25755466E-11 -1.10753658E-05  4.10305991E-04
 -4.17517293E-05 -1.42335588E-04 -1.74959880E-10 -2.17957834E-04 -9.59157251E-05
 -7.51013015E-04 -4.25613817E-10 -7.32987981E-05 -8.51965042E-04 -3.70915528E-05
 -1.51098514E-04 -1.68644063E-10 -8.05531230E-10  9.84212782E-06 -1.95147932E-05
  9.84212858E-06 -1.95152979E-05  1.99499876E-05 -2.50514326E-05  1.99497452E-05
 -2.50496539E-05 -2.23450397E-06 -3.69853201E-05 -2.89838196E-05  5.06362048E-05
 -3.08410291E-05  1.23182871E-05  6.80775737E-11  2.37568906E-04  3.13604413E-04
  1.03697246E-07 -5.83285985E-10  2.68473346E-03  1.59810553E-03  3.69476437E-04
 -1.66110460E-09 -1.45901795E-04 -2.63487425E-04 -1.16728964E-04 -1.07957391E-04
  6.17391368E-11  1.96325643E-10 -3.38671819E-04  5.85345388E-04 -3.30226132E-06
 -3.34541999E-04 -4.03201102E-10 -3.01938607E-03  2.55208530E-04  1.52236462E-03
  3.31515569E-09  1.07136073E-04  1.67002370E-04  3.49246398E-04 -1.17967033E-04
 -1.36336840E-10 -7.37404630E-10  2.12480922E-03  1.25732889E-04  6.32528966E-05
 -1.07757239E-04 -1.03001154E-09  3.05581925E-03 -1.91622715E-03  9.49911481E-04
  8.87663348E-09 -2.69670356E-04 -3.55614707E-04 -5.70935511E-05  1.52215717E-04
 -4.01586363E-10 -4.81735793E-10 -1.09061625E-05 -5.65083573E-05  1.27260234E-05
  9.03250894E-06 -1.32548784E-10  1.58296213E-04 -7.82395175E-05 -4.08698166E-04
 -2.84580605E-09  3.55065191E-05  6.78269242E-05 -2.70956999E-05  2.43368171E-05
  4.71700813E-10  6.12391503E-10  9.95920944E-01  2.61379889E-02 -7.01208442E-04
  4.11500823E-04  1.88525514E-10 -8.74059648E-03  1.24105509E-03  4.05302341E-03
 -2.65290919E-09 -1.92071685E-03 -5.71092997E-04 -2.10810033E-03 -4.43023654E-06
 -3.00570766E-10  1.30201004E-09 -1.21533513E-04  1.33639862E-04 -1.21532624E-04
  1.33651942E-04 -6.01964695E-06  1.28552015E-04 -6.01961532E-06  1.28552197E-04
 -4.11574686E-05 -8.19435573E-06  2.32979147E-06 -3.99603750E-05  1.39241631E-05
 -1.41277244E-06 -4.57435856E-12 -3.60125934E-05 -9.35810421E-05  1.19364059E-05
  8.59101655E-11  4.26088697E-04  2.20652140E-04  2.08273134E-04 -7.83977518E-10
 -7.00518147E-05 -1.23245410E-05 -1.13347063E-04  8.27510689E-06 -2.07554310E-10
 -4.14020494E-11 -8.11489788E-06 -9.63208941E-05  6.22012744E-07  1.44581448E-05
  2.05796290E-10  1.32617555E-04 -4.84495176E-04 -2.37872884E-05 -7.80952735E-10
  2.34044440E-05  4.61663154E-05 -1.40892801E-04  1.05195960E-04  7.57028194E-11
  3.21829019E-10  9.95792794E-01  2.88220484E-02 -3.22978733E-04  3.00878150E-04
 -1.39080214E-09 -1.82746319E-02  4.00328368E-04 -1.55599324E-03  4.02507010E-09
 -1.64150868E-03 -1.69798553E-03 -1.59853751E-03  8.03530355E-06 -1.21861892E-10
 -6.53454508E-10  9.08575184E-03  2.94463721E-04 -1.01101544E-04  1.24146165E-05
  2.78844107E-10  4.05692992E-03 -1.77100971E-03 -7.05889842E-04 -8.48669766E-09
 -4.11518547E-04 -2.13344242E-04 -9.51480920E-05 -1.42425510E-04 -7.43117961E-10
 -6.45948794E-10 -2.44424511E-03  4.07224358E-05 -3.71513290E-05 -7.16444462E-05
 -2.24387771E-10  4.72979053E-03  2.38971961E-03 -1.80599427E-03 -4.81892778E-10
 -3.31853814E-04 -4.67105914E-04 -1.58133076E-04  2.79696075E-04  1.23200234E-10
 -1.60369433E-10  2.68377737E-04  2.61592714E-03  2.68379087E-04  2.61593191E-03
 -1.63146623E-04  7.60926304E-05 -1.63146409E-04  7.60965975E-05 -1.31866874E-04
 -1.64343784E-04 -1.20500078E-06 -1.97469555E-05 -6.59149785E-06 -4.45929833E-06
 -5.19053165E-11 -6.20982235E-05  2.70276329E-05  2.63384029E-05  2.91139545E-10
  4.87179190E-04  2.88900099E-04  8.08657335E-05 -1.03893982E-09  1.51399927E-05
 -2.62781533E-05 -4.82001297E-05  2.32063496E-05 -1.50099573E-10 -1.76567204E-11
 -5.37440708E-05 -2.26178422E-04 -5.29401072E-05  5.59175771E-05 -4.69655246E-10
  1.01922346E-03  1.47932316E-05 -3.71902672E-04  1.30029827E-09 -1.53367177E-04
 -1.02499412E-04 -2.33086737E-04 -2.19313359E-06  4.41761050E-10 -1.08767537E-10
 -9.38343780E-03 -1.51457660E-04 -6.52419081E-06 -5.47298670E-06 -9.91283180E-11
  3.81059922E-03  1.82003597E-03  5.81511262E-04  5.42187403E-09 -4.82971821E-04
 -1.73400392E-04 -7.91708164E-05 -1.41239916E-04 -9.96023331E-10 -5.10804692E-10
  9.95699520E-01  2.84894317E-02 -2.69173430E-04 -8.63868228E-05 -3.08034989E-10
 -1.52046634E-02  9.57918551E-04  1.61825839E-04  5.60521613E-10 -1.86169735E-03
 -1.80955267E-03 -1.81552489E-03 -3.28940880E-05 -2.35318679E-10 -1.04493042E-10
  1.25882430E-05 -1.89099306E-04 -1.35228822E-04 -5.78414281E-05 -2.67859151E-10
 -5.52070651E-04  4.50527590E-04 -2.57902556E-04 -6.51758130E-10  5.10230005E-05
 -5.28300619E-06 -6.62830733E-05 -2.02375693E-05  4.49949279E-10  1.10664540E-11
 -1.41746437E-04 -6.56505689E-06 -1.41746409E-04 -6.56371352E-06  1.77916236E-04
  2.56096850E-03  1.77915858E-04  2.56096970E-03  1.23137404E-04  2.40109345E-03
 -2.86732735E-01  1.03059089E+00  3.40314544E-03  1.07255115E-03 -6.52741338E-09
  2.63027833E-02  1.15063154E-03  2.73377760E-04 -1.62232052E-09 -6.58448453E-03
 -1.11745248E-03 -3.85669876E-04  1.14845827E-09 -1.31214989E-03 -1.73511028E-03
 -1.68993113E-03  1.38802024E-04 -7.52049892E-10 -2.27494292E-10  3.07142634E-05
  1.03783709E-04  9.36645971E-05 -4.04917688E-06 -2.77339447E-10 -1.34787527E-03
 -1.23650917E-04  2.70270463E-04  1.13597440E-09  1.19895167E-04  9.55986405E-05
 -1.38438915E-05  1.39838091E-05 -2.49835638E-10  6.55507346E-11 -2.40659935E-06
 -1.68299467E-04  1.86649385E-04  4.73680948E-06 -1.84482560E-10  3.62614172E-04
 -2.03517440E-03  5.96012867E-05  2.87660977E-10  4.33631338E-05 -1.77596523E-05
  4.86824459E-06 -9.50662983E-05 -6.31436144E-10 -4.28517680E-10 -1.91987975E-05
 -9.73489228E-05 -7.84769142E-05  8.53677943E-06  1.26749001E-10  1.35295680E-03
 -3.36460255E-04 -5.52438978E-04 -3.91404816E-09  5.85280281E-06  2.08606692E-05
 -4.49182277E-05  3.70116184E-05  2.11389130E-10  4.62598072E-10 -2.10785604E-04
  4.42291661E-04  2.25756000E-05 -4.76748764E-05 -2.72252207E-10  7.96557457E-04
 -2.41617487E-04  1.71223772E-03  9.25997849E-10 -6.12700593E-04 -1.75997595E-04
 -3.89470017E-05 -1.29643719E-04  1.01869972E-09  2.99017260E-10 -1.80147996E-04
  2.06620455E-04 -1.80146486E-04  2.06619715E-04 -1.18187729E-06 -9.19476170E-06
 -1.18162662E-06 -9.19446982E-06 -8.90200723E-05 -1.68672329E-04  1.21219104E-03
 -4.53664232E-03  9.33648900E-01  3.37541046E-01 -1.48777204E-06  2.25877972E-03
  2.16785651E-02  7.79175928E-03 -3.47422097E-08  1.18275152E-03 -4.32941529E-03
 -1.49919347E-03  7.49019166E-09  3.51548138E-04 -7.18337539E-04 -8.00544591E-04
  4.73444224E-04 -1.78477463E-09 -6.12690245E-10  2.83456571E-05  6.53201492E-05
  1.51719331E-04 -3.11477737E-05 -6.31916470E-10 -1.42321372E-03 -9.82945075E-04
  2.56661249E-04  3.50266003E-09  1.87296083E-04  1.15959240E-04 -3.12082470E-05
  1.60805123E-04 -1.50602526E-10 -2.45178913E-10 -1.31306997E-05 -2.26623671E-04
  8.53215824E-05 -2.37883755E-05 -1.46809740E-09  3.49483744E-04 -1.82916494E-03
 -3.28313539E-04  1.23099217E-08  2.52545011E-04 -1.03447238E-04  3.81287995E-05
 -6.27494632E-05 -6.57304780E-10 -4.81879929E-10  2.86520137E-05  1.38287150E-04
 -1.45800980E-04  7.09808748E-05  3.62541819E-10  5.01466345E-04  3.48426611E-04
 -9.32110564E-04 -8.46585924E-09 -1.33274533E-05  9.85808067E-05  3.25944684E-05
  2.05681248E-05  2.18528967E-10  8.52495514E-10 -5.49634253E-05  1.03396528E-03
  8.01075409E-05 -3.80983431E-05 -4.97177185E-10 -5.10057057E-04  2.94139231E-03
  2.30284822E-03 -5.71522276E-09 -1.20483799E-03 -2.26842927E-04  1.48781698E-04
 -3.87954729E-04  2.08718559E-09  6.82902636E-10 -1.19390974E-04  5.73056397E-05
 -1.19389276E-04  5.73198958E-05  8.03839793E-05  1.14997433E-04  8.03840199E-05
  1.15001280E-04 -1.04850001E-04 -4.81836907E-04 -2.81087207E-10  1.07904567E-09
  1.71639401E-06 -3.67923297E-07  9.93523695E-01 -4.28066070E-10  3.51137908E-08
 -7.76389816E-09  2.04900931E-02 -2.67960136E-10 -8.16460384E-09  1.98844023E-09
 -4.76492499E-03  1.08854280E-09  2.14104659E-10 -4.55673832E-10  6.18598439E-11
  2.31489405E-04  6.13849245E-05 -9.27178340E-11 -4.17636690E-10 -4.14360337E-11
  6.79653837E-11 -2.23697351E-05  2.03949965E-09 -2.19347220E-10 -4.34816064E-10
 -6.02242470E-06 -3.79075083E-10 -3.49850850E-10 -6.05501907E-11  2.07299442E-10
 -5.81740300E-05  2.85314684E-05 -1.06914463E-10 -6.45607306E-10 -3.53762596E-10
 -7.26919315E-10  2.96060725E-05  3.47689890E-09  3.88048722E-09  6.03626914E-09
 -3.77345896E-04  3.28882411E-10 -9.15600389E-11 -3.81291342E-10  7.96813606E-11
 -1.97934452E-05 -2.33064281E-05  2.41426664E-10  1.12089877E-09 -4.81597449E-11
  6.20263858E-11  3.41059158E-05 -7.99470518E-09  3.47584942E-09 -3.79568920E-10
 -6.55363094E-05  6.85384719E-11  6.80155604E-10  1.52540190E-10 -4.27547076E-11
 -1.10271603E-05 -1.33683767E-05 -4.12724961E-11  1.28944718E-10 -3.00840495E-10
  7.79364587E-11 -1.14814981E-04 -2.00558769E-09 -1.16313650E-10 -9.42095125E-10
  5.51675835E-04 -3.25289568E-11 -1.06305609E-10 -4.57124314E-10  4.56391577E-11
  1.91635640E-04  7.89904591E-05 -8.06725768E-05  5.24406753E-04  8.06728458E-05