opt=Tight                                                               
Freq      RMP2-FC                                                     6-31G(d)            
Number of atoms                            I               28
Info1-9                                    I   N=           9
          38          37        1002           0           0         100
           6           2           1
Charge                                     I                0
Multiplicity                               I                1
Number of electrons                        I               98
Number of alpha electrons                  I               49
Number of beta electrons                   I               49
Number of basis functions                  I              238
Number of independent functions            I              238
Number of point charges in /Mol/           I                0
Number of translation vectors              I                0
Atomic numbers                             I   N=          28
           6           6           6           6           6           6
           6           6           6           6           6           6
           6           6           1           1           1           1
           1           1           1           1           1           1
           1           1           1           1
Nuclear charges                            R   N=          28
  6.00000000E+00  6.00000000E+00  6.00000000E+00  6.00000000E+00  6.00000000E+00
  6.00000000E+00  6.00000000E+00  6.00000000E+00  6.00000000E+00  6.00000000E+00
  6.00000000E+00  6.00000000E+00  6.00000000E+00  6.00000000E+00  1.00000000E+00
  1.00000000E+00  1.00000000E+00  1.00000000E+00  1.00000000E+00  1.00000000E+00
  1.00000000E+00  1.00000000E+00  1.00000000E+00  1.00000000E+00  1.00000000E+00
  1.00000000E+00  1.00000000E+00  1.00000000E+00
Current cartesian coordinates              R   N=          84
  5.64952525E-02  2.29631961E+00 -9.92675027E-01 -2.36708607E+00  8.28913250E-01
 -5.58279902E-01  2.34086801E+00  6.80087869E-01 -3.65662007E-01  1.96265066E-01
  4.81465180E+00  4.26764411E-01 -2.94192375E+00 -1.17158485E+00 -2.20257785E+00
  4.43644390E+00  6.28129849E-01 -1.97983961E+00 -4.01994448E+00  1.32090723E+00
  1.44783446E+00  2.44250504E+00 -6.93055170E-01  1.89785951E+00 -5.11310381E+00
 -2.62338774E+00 -1.87127674E+00  6.58410253E+00 -7.77147982E-01 -1.36314261E+00
 -6.20079615E+00 -1.33410886E-01  1.78811178E+00  4.58663367E+00 -2.09355766E+00
  2.52196992E+00 -6.75295334E+00 -2.11040079E+00  1.35945008E-01  6.66757930E+00
 -2.13590076E+00  8.96094904E-01  1.44526255E-01  2.72341094E+00 -3.02488273E+00
  2.65400697E-01  4.51122225E+00  2.47035394E+00 -1.43027513E+00  6.01534221E+00
 -1.24400671E-02  1.92100299E+00  5.81911872E+00 -1.11750845E-01 -1.65843121E+00
 -1.58836962E+00 -3.75736704E+00  4.37840663E+00  1.68478155E+00 -3.74584538E+00
 -3.63959174E+00  2.86387240E+00  2.74840824E+00  8.12019099E-01 -6.98391756E-01
  3.15212744E+00 -5.52634534E+00 -4.15850676E+00 -3.17422779E+00  8.19033006E+00
 -8.07755877E-01 -2.64550887E+00 -7.46583552E+00  2.83009165E-01  3.35403334E+00
  4.63416406E+00 -3.15755851E+00  4.28018056E+00 -8.45037339E+00 -3.23776038E+00
  4.00334702E-01  8.33449538E+00 -3.23579129E+00  1.37982889E+00
Force Field                                I                0
Int Atom Types                             I   N=          28
           0           0           0           0           0           0
           0           0           0           0           0           0
           0           0           0           0           0           0
           0           0           0           0           0           0
           0           0           0           0
MM charges                                 R   N=          28
  0.00000000E+00  0.00000000E+00  0.00000000E+00  0.00000000E+00  0.00000000E+00
  0.00000000E+00  0.00000000E+00  0.00000000E+00  0.00000000E+00  0.00000000E+00
  0.00000000E+00  0.00000000E+00  0.00000000E+00  0.00000000E+00  0.00000000E+00
  0.00000000E+00  0.00000000E+00  0.00000000E+00  0.00000000E+00  0.00000000E+00
  0.00000000E+00  0.00000000E+00  0.00000000E+00  0.00000000E+00  0.00000000E+00
  0.00000000E+00  0.00000000E+00  0.00000000E+00
Integer atomic weights                     I   N=          28
          12          12          12          12          12          12
          12          12          12          12          12          12
          12          12           1           1           1           1
           1           1           1           1           1           1
           1           1           1           1
Real atomic weights                        R   N=          28
  1.20000000E+01  1.20000000E+01  1.20000000E+01  1.20000000E+01  1.20000000E+01
  1.20000000E+01  1.20000000E+01  1.20000000E+01  1.20000000E+01  1.20000000E+01
  1.20000000E+01  1.20000000E+01  1.20000000E+01  1.20000000E+01  1.00782504E+00
  1.00782504E+00  1.00782504E+00  1.00782504E+00  1.00782504E+00  1.00782504E+00
  1.00782504E+00  1.00782504E+00  1.00782504E+00  1.00782504E+00  1.00782504E+00
  1.00782504E+00  1.00782504E+00  1.00782504E+00
Atom fragment info                         I   N=          28
           0           0           0           0           0           0
           0           0           0           0           0           0
           0           0           0           0           0           0
           0           0           0           0           0           0
           0           0           0           0
Atom residue num                           I   N=          28
           0           0           0           0           0           0
           0           0           0           0           0           0
           0           0           0           0           0           0
           0           0           0           0           0           0
           0           0           0           0
Nuclear spins                              I   N=          28
           0           0           0           0           0           0
           0           0           0           0           0           0
           0           0           1           1           1           1
           1           1           1           1           1           1
           1           1           1           1
Nuclear ZEff                               R   N=          28
 -3.60000000E+00 -3.60000000E+00 -3.60000000E+00 -3.60000000E+00 -3.60000000E+00
 -3.60000000E+00 -3.60000000E+00 -3.60000000E+00 -3.60000000E+00 -3.60000000E+00
 -3.60000000E+00 -3.60000000E+00 -3.60000000E+00 -3.60000000E+00 -1.00000000E+00
 -1.00000000E+00 -1.00000000E+00 -1.00000000E+00 -1.00000000E+00 -1.00000000E+00
 -1.00000000E+00 -1.00000000E+00 -1.00000000E+00 -1.00000000E+00 -1.00000000E+00
 -1.00000000E+00 -1.00000000E+00 -1.00000000E+00
Nuclear QMom                               R   N=          28
  0.00000000E+00  0.00000000E+00  0.00000000E+00  0.00000000E+00  0.00000000E+00
  0.00000000E+00  0.00000000E+00  0.00000000E+00  0.00000000E+00  0.00000000E+00
  0.00000000E+00  0.00000000E+00  0.00000000E+00  0.00000000E+00  0.00000000E+00
  0.00000000E+00  0.00000000E+00  0.00000000E+00  0.00000000E+00  0.00000000E+00
  0.00000000E+00  0.00000000E+00  0.00000000E+00  0.00000000E+00  0.00000000E+00
  0.00000000E+00  0.00000000E+00  0.00000000E+00
Nuclear GFac                               R   N=          28
  0.00000000E+00  0.00000000E+00  0.00000000E+00  0.00000000E+00  0.00000000E+00
  0.00000000E+00  0.00000000E+00  0.00000000E+00  0.00000000E+00  0.00000000E+00
  0.00000000E+00  0.00000000E+00  0.00000000E+00  0.00000000E+00  2.79284600E+00
  2.79284600E+00  2.79284600E+00  2.79284600E+00  2.79284600E+00  2.79284600E+00
  2.79284600E+00  2.79284600E+00  2.79284600E+00  2.79284600E+00  2.79284600E+00
  2.79284600E+00  2.79284600E+00  2.79284600E+00
MicOpt                                     I   N=          28
          -1          -1          -1          -1          -1          -1
          -1          -1          -1          -1          -1          -1
          -1          -1          -1          -1          -1          -1
          -1          -1          -1          -1          -1          -1
          -1          -1          -1          -1
Number of contracted shells                I               84
Number of primitive shells                 I              210
Pure/Cartesian d shells                    I                1
Pure/Cartesian f shells                    I                0
Highest angular momentum                   I                2
Largest degree of contraction              I                6
Shell types                                I   N=          84
           0          -1          -1           2           0          -1
          -1           2           0          -1          -1           2
           0          -1          -1           2           0          -1
          -1           2           0          -1          -1           2
           0          -1          -1           2           0          -1
          -1           2           0          -1          -1           2
           0          -1          -1           2           0          -1
          -1           2           0          -1          -1           2
           0          -1          -1           2           0          -1
          -1           2           0           0           0           0
           0           0           0           0           0           0
           0           0           0           0           0           0
           0           0           0           0           0           0
           0           0           0           0           0           0
Number of primitives per shell             I   N=          84
           6           3           1           1           6           3
           1           1           6           3           1           1
           6           3           1           1           6           3
           1           1           6           3           1           1
           6           3           1           1           6           3
           1           1           6           3           1           1
           6           3           1           1           6           3
           1           1           6           3           1           1
           6           3           1           1           6           3
           1           1           3           1           3           1
           3           1           3           1           3           1
           3           1           3           1           3           1
           3           1           3           1           3           1
           3           1           3           1           3           1
Shell to atom map                          I   N=          84
           1           1           1           1           2           2
           2           2           3           3           3           3
           4           4           4           4           5           5
           5           5           6           6           6           6
           7           7           7           7           8           8
           8           8           9           9           9           9
          10          10          10          10          11          11
          11          11          12          12          12          12
          13          13          13          13          14          14
          14          14          15          15          16          16
          17          17          18          18          19          19
          20          20          21          21          22          22
          23          23          24          24          25          25
          26          26          27          27          28          28
Primitive exponents                        R   N=         210
  3.04752488E+03  4.57369518E+02  1.03948685E+02  2.92101553E+01  9.28666296E+00
  3.16392696E+00  7.86827235E+00  1.88128854E+00  5.44249258E-01  1.68714478E-01
  8.00000000E-01  3.04752488E+03  4.57369518E+02  1.03948685E+02  2.92101553E+01
  9.28666296E+00  3.16392696E+00  7.86827235E+00  1.88128854E+00  5.44249258E-01
  1.68714478E-01  8.00000000E-01  3.04752488E+03  4.57369518E+02  1.03948685E+02
  2.92101553E+01  9.28666296E+00  3.16392696E+00  7.86827235E+00  1.88128854E+00
  5.44249258E-01  1.68714478E-01  8.00000000E-01  3.04752488E+03  4.57369518E+02
  1.03948685E+02  2.92101553E+01  9.28666296E+00  3.16392696E+00  7.86827235E+00
  1.88128854E+00  5.44249258E-01  1.68714478E-01  8.00000000E-01  3.04752488E+03
  4.57369518E+02  1.03948685E+02  2.92101553E+01  9.28666296E+00  3.16392696E+00
  7.86827235E+00  1.88128854E+00  5.44249258E-01  1.68714478E-01  8.00000000E-01
  3.04752488E+03  4.57369518E+02  1.03948685E+02  2.92101553E+01  9.28666296E+00
  3.16392696E+00  7.86827235E+00  1.88128854E+00  5.44249258E-01  1.68714478E-01
  8.00000000E-01  3.04752488E+03  4.57369518E+02  1.03948685E+02  2.92101553E+01
  9.28666296E+00  3.16392696E+00  7.86827235E+00  1.88128854E+00  5.44249258E-01
  1.68714478E-01  8.00000000E-01  3.04752488E+03  4.57369518E+02  1.03948685E+02
  2.92101553E+01  9.28666296E+00  3.16392696E+00  7.86827235E+00  1.88128854E+00
  5.44249258E-01  1.68714478E-01  8.00000000E-01  3.04752488E+03  4.57369518E+02
  1.03948685E+02  2.92101553E+01  9.28666296E+00  3.16392696E+00  7.86827235E+00
  1.88128854E+00  5.44249258E-01  1.68714478E-01  8.00000000E-01  3.04752488E+03
  4.57369518E+02  1.03948685E+02  2.92101553E+01  9.28666296E+00  3.16392696E+00
  7.86827235E+00  1.88128854E+00  5.44249258E-01  1.68714478E-01  8.00000000E-01
  3.04752488E+03  4.57369518E+02  1.03948685E+02  2.92101553E+01  9.28666296E+00
  3.16392696E+00  7.86827235E+00  1.88128854E+00  5.44249258E-01  1.68714478E-01
  8.00000000E-01  3.04752488E+03  4.57369518E+02  1.03948685E+02  2.92101553E+01
  9.28666296E+00  3.16392696E+00  7.86827235E+00  1.88128854E+00  5.44249258E-01
  1.68714478E-01  8.00000000E-01  3.04752488E+03  4.57369518E+02  1.03948685E+02
  2.92101553E+01  9.28666296E+00  3.16392696E+00  7.86827235E+00  1.88128854E+00
  5.44249258E-01  1.68714478E-01  8.00000000E-01  3.04752488E+03  4.57369518E+02
  1.03948685E+02  2.92101553E+01  9.28666296E+00  3.16392696E+00  7.86827235E+00
  1.88128854E+00  5.44249258E-01  1.68714478E-01  8.00000000E-01  1.87311370E+01
  2.82539436E+00  6.40121692E-01  1.61277759E-01  1.87311370E+01  2.82539436E+00
  6.40121692E-01  1.61277759E-01  1.87311370E+01  2.82539436E+00  6.40121692E-01
  1.61277759E-01  1.87311370E+01  2.82539436E+00  6.40121692E-01  1.61277759E-01
  1.87311370E+01  2.82539436E+00  6.40121692E-01  1.61277759E-01  1.87311370E+01
  2.82539436E+00  6.40121692E-01  1.61277759E-01  1.87311370E+01  2.82539436E+00
  6.40121692E-01  1.61277759E-01  1.87311370E+01  2.82539436E+00  6.40121692E-01
  1.61277759E-01  1.87311370E+01  2.82539436E+00  6.40121692E-01  1.61277759E-01
  1.87311370E+01  2.82539436E+00  6.40121692E-01  1.61277759E-01  1.87311370E+01
  2.82539436E+00  6.40121692E-01  1.61277759E-01  1.87311370E+01  2.82539436E+00
  6.40121692E-01  1.61277759E-01  1.87311370E+01  2.82539436E+00  6.40121692E-01
  1.61277759E-01  1.87311370E+01  2.82539436E+00  6.40121692E-01  1.61277759E-01
Contraction coefficients                   R   N=         210
  1.83473713E-03  1.40373228E-02  6.88426223E-02  2.32184443E-01  4.67941348E-01
  3.62311985E-01 -1.19332420E-01 -1.60854152E-01  1.14345644E+00  1.00000000E+00
  1.00000000E+00  1.83473713E-03  1.40373228E-02  6.88426223E-02  2.32184443E-01
  4.67941348E-01  3.62311985E-01 -1.19332420E-01 -1.60854152E-01  1.14345644E+00
  1.00000000E+00  1.00000000E+00  1.83473713E-03  1.40373228E-02  6.88426223E-02
  2.32184443E-01  4.67941348E-01  3.62311985E-01 -1.19332420E-01 -1.60854152E-01
  1.14345644E+00  1.00000000E+00  1.00000000E+00  1.83473713E-03  1.40373228E-02
  6.88426223E-02  2.32184443E-01  4.67941348E-01  3.62311985E-01 -1.19332420E-01
 -1.60854152E-01  1.14345644E+00  1.00000000E+00  1.00000000E+00  1.83473713E-03
  1.40373228E-02  6.88426223E-02  2.32184443E-01  4.67941348E-01  3.62311985E-01
 -1.19332420E-01 -1.60854152E-01  1.14345644E+00  1.00000000E+00  1.00000000E+00
  1.83473713E-03  1.40373228E-02  6.88426223E-02  2.32184443E-01  4.67941348E-01
  3.62311985E-01 -1.19332420E-01 -1.60854152E-01  1.14345644E+00  1.00000000E+00
  1.00000000E+00  1.83473713E-03  1.40373228E-02  6.88426223E-02  2.32184443E-01
  4.67941348E-01  3.62311985E-01 -1.19332420E-01 -1.60854152E-01  1.14345644E+00
  1.00000000E+00  1.00000000E+00  1.83473713E-03  1.40373228E-02  6.88426223E-02
  2.32184443E-01  4.67941348E-01  3.62311985E-01 -1.19332420E-01 -1.60854152E-01
  1.14345644E+00  1.00000000E+00  1.00000000E+00  1.83473713E-03  1.40373228E-02
  6.88426223E-02  2.32184443E-01  4.67941348E-01  3.62311985E-01 -1.19332420E-01
 -1.60854152E-01  1.14345644E+00  1.00000000E+00  1.00000000E+00  1.83473713E-03
  1.40373228E-02  6.88426223E-02  2.32184443E-01  4.67941348E-01  3.62311985E-01
 -1.19332420E-01 -1.60854152E-01  1.14345644E+00  1.00000000E+00  1.00000000E+00
  1.83473713E-03  1.40373228E-02  6.88426223E-02  2.32184443E-01  4.67941348E-01
  3.62311985E-01 -1.19332420E-01 -1.60854152E-01  1.14345644E+00  1.00000000E+00
  1.00000000E+00  1.83473713E-03  1.40373228E-02  6.88426223E-02  2.32184443E-01
  4.67941348E-01  3.62311985E-01 -1.19332420E-01 -1.60854152E-01  1.14345644E+00
  1.00000000E+00  1.00000000E+00  1.83473713E-03  1.40373228E-02  6.88426223E-02
  2.32184443E-01  4.67941348E-01  3.62311985E-01 -1.19332420E-01 -1.60854152E-01
  1.14345644E+00  1.00000000E+00  1.00000000E+00  1.83473713E-03  1.40373228E-02
  6.88426223E-02  2.32184443E-01  4.67941348E-01  3.62311985E-01 -1.19332420E-01
 -1.60854152E-01  1.14345644E+00  1.00000000E+00  1.00000000E+00  3.34946043E-02
  2.34726953E-01  8.13757326E-01  1.00000000E+00  3.34946043E-02  2.34726953E-01
  8.13757326E-01  1.00000000E+00  3.34946043E-02  2.34726953E-01  8.13757326E-01
  1.00000000E+00  3.34946043E-02  2.34726953E-01  8.13757326E-01  1.00000000E+00
  3.34946043E-02  2.34726953E-01  8.13757326E-01  1.00000000E+00  3.34946043E-02
  2.34726953E-01  8.13757326E-01  1.00000000E+00  3.34946043E-02  2.34726953E-01
  8.13757326E-01  1.00000000E+00  3.34946043E-02  2.34726953E-01  8.13757326E-01
  1.00000000E+00  3.34946043E-02  2.34726953E-01  8.13757326E-01  1.00000000E+00
  3.34946043E-02  2.34726953E-01  8.13757326E-01  1.00000000E+00  3.34946043E-02
  2.34726953E-01  8.13757326E-01  1.00000000E+00  3.34946043E-02  2.34726953E-01
  8.13757326E-01  1.00000000E+00  3.34946043E-02  2.34726953E-01  8.13757326E-01
  1.00000000E+00  3.34946043E-02  2.34726953E-01  8.13757326E-01  1.00000000E+00
P(S=P) Contraction coefficients            R   N=         210
  0.00000000E+00  0.00000000E+00  0.00000000E+00  0.00000000E+00  0.00000000E+00
  0.00000000E+00  6.89990666E-02  3.16423961E-01  7.44308291E-01  1.00000000E+00
  0.00000000E+00  0.00000000E+00  0.00000000E+00  0.00000000E+00  0.00000000E+00
  0.00000000E+00  0.00000000E+00  6.89990666E-02  3.16423961E-01  7.44308291E-01
  1.00000000E+00  0.00000000E+00  0.00000000E+00  0.00000000E+00  0.00000000E+00
  0.00000000E+00  0.00000000E+00  0.00000000E+00  6.89990666E-02  3.16423961E-01
  7.44308291E-01  1.00000000E+00  0.00000000E+00  0.00000000E+00  0.00000000E+00
  0.00000000E+00  0.00000000E+00  0.00000000E+00  0.00000000E+00  6.89990666E-02
  3.16423961E-01  7.44308291E-01  1.00000000E+00  0.00000000E+00  0.00000000E+00
  0.00000000E+00  0.00000000E+00  0.00000000E+00  0.00000000E+00  0.00000000E+00
  6.89990666E-02  3.16423961E-01  7.44308291E-01  1.00000000E+00  0.00000000E+00
  0.00000000E+00  0.00000000E+00  0.00000000E+00  0.00000000E+00  0.00000000E+00
  0.00000000E+00  6.89990666E-02  3.16423961E-01  7.44308291E-01  1.00000000E+00
  0.00000000E+00  0.00000000E+00  0.00000000E+00  0.00000000E+00  0.00000000E+00
  0.00000000E+00  0.00000000E+00  6.89990666E-02  3.16423961E-01  7.44308291E-01
  1.00000000E+00  0.00000000E+00  0.00000000E+00  0.00000000E+00  0.00000000E+00
  0.00000000E+00  0.00000000E+00  0.00000000E+00  6.89990666E-02  3.16423961E-01
  7.44308291E-01  1.00000000E+00  0.00000000E+00  0.00000000E+00  0.00000000E+00
  0.00000000E+00  0.00000000E+00  0.00000000E+00  0.00000000E+00  6.89990666E-02
  3.16423961E-01  7.44308291E-01  1.00000000E+00  0.00000000E+00  0.00000000E+00
  0.00000000E+00  0.00000000E+00  0.00000000E+00  0.00000000E+00  0.00000000E+00
  6.89990666E-02  3.16423961E-01  7.44308291E-01  1.00000000E+00  0.00000000E+00
  0.00000000E+00  0.00000000E+00  0.00000000E+00  0.00000000E+00  0.00000000E+00
  0.00000000E+00  6.89990666E-02  3.16423961E-01  7.44308291E-01  1.00000000E+00
  0.00000000E+00  0.00000000E+00  0.00000000E+00  0.00000000E+00  0.00000000E+00
  0.00000000E+00  0.00000000E+00  6.89990666E-02  3.16423961E-01  7.44308291E-01
  1.00000000E+00  0.00000000E+00  0.00000000E+00  0.00000000E+00  0.00000000E+00
  0.00000000E+00  0.00000000E+00  0.00000000E+00  6.89990666E-02  3.16423961E-01
  7.44308291E-01  1.00000000E+00  0.00000000E+00  0.00000000E+00  0.00000000E+00
  0.00000000E+00  0.00000000E+00  0.00000000E+00  0.00000000E+00  6.89990666E-02
  3.16423961E-01  7.44308291E-01  1.00000000E+00  0.00000000E+00  0.00000000E+00
  0.00000000E+00  0.00000000E+00  0.00000000E+00  0.00000000E+00  0.00000000E+00
  0.00000000E+00  0.00000000E+00  0.00000000E+00  0.00000000E+00  0.00000000E+00
  0.00000000E+00  0.00000000E+00  0.00000000E+00  0.00000000E+00  0.00000000E+00
  0.00000000E+00  0.00000000E+00  0.00000000E+00  0.00000000E+00  0.00000000E+00
  0.00000000E+00  0.00000000E+00  0.00000000E+00  0.00000000E+00  0.00000000E+00
  0.00000000E+00  0.00000000E+00  0.00000000E+00  0.00000000E+00  0.00000000E+00
  0.00000000E+00  0.00000000E+00  0.00000000E+00  0.00000000E+00  0.00000000E+00
  0.00000000E+00  0.00000000E+00  0.00000000E+00  0.00000000E+00  0.00000000E+00
  0.00000000E+00  0.00000000E+00  0.00000000E+00  0.00000000E+00  0.00000000E+00
  0.00000000E+00  0.00000000E+00  0.00000000E+00  0.00000000E+00  0.00000000E+00
  0.00000000E+00  0.00000000E+00  0.00000000E+00  0.00000000E+00  0.00000000E+00
Coordinates of each shell                  R   N=         252
  5.64953058E-02  2.29631955E+00 -9.92675047E-01  5.64953058E-02  2.29631955E+00
 -9.92675047E-01  5.64953058E-02  2.29631955E+00 -9.92675047E-01  5.64953058E-02
  2.29631955E+00 -9.92675047E-01 -2.36708608E+00  8.28913287E-01 -5.58279921E-01
 -2.36708608E+00  8.28913287E-01 -5.58279921E-01 -2.36708608E+00  8.28913287E-01
 -5.58279921E-01 -2.36708608E+00  8.28913287E-01 -5.58279921E-01  2.34086800E+00
  6.80087717E-01 -3.65662026E-01  2.34086800E+00  6.80087717E-01 -3.65662026E-01
  2.34086800E+00  6.80087717E-01 -3.65662026E-01  2.34086800E+00  6.80087717E-01
 -3.65662026E-01  1.96265220E-01  4.81465173E+00  4.26764392E-01  1.96265220E-01
  4.81465173E+00  4.26764392E-01  1.96265220E-01  4.81465173E+00  4.26764392E-01
  1.96265220E-01  4.81465173E+00  4.26764392E-01 -2.94192384E+00 -1.17158479E+00
 -2.20257787E+00 -2.94192384E+00 -1.17158479E+00 -2.20257787E+00 -2.94192384E+00
 -1.17158479E+00 -2.20257787E+00 -2.94192384E+00 -1.17158479E+00 -2.20257787E+00
  4.43644389E+00  6.28129613E-01 -1.97983963E+00  4.43644389E+00  6.28129613E-01
 -1.97983963E+00  4.43644389E+00  6.28129613E-01 -1.97983963E+00  4.43644389E+00
  6.28129613E-01 -1.97983963E+00 -4.01994447E+00  1.32090733E+00  1.44783444E+00
 -4.01994447E+00  1.32090733E+00  1.44783444E+00 -4.01994447E+00  1.32090733E+00
  1.44783444E+00 -4.01994447E+00  1.32090733E+00  1.44783444E+00  2.44250498E+00
 -6.93055325E-01  1.89785949E+00  2.44250498E+00 -6.93055325E-01  1.89785949E+00
  2.44250498E+00 -6.93055325E-01  1.89785949E+00  2.44250498E+00 -6.93055325E-01
  1.89785949E+00 -5.11310395E+00 -2.62338759E+00 -1.87127676E+00 -5.11310395E+00
 -2.62338759E+00 -1.87127676E+00 -5.11310395E+00 -2.62338759E+00 -1.87127676E+00
 -5.11310395E+00 -2.62338759E+00 -1.87127676E+00  6.58410246E+00 -7.77148304E-01
 -1.36314263E+00  6.58410246E+00 -7.77148304E-01 -1.36314263E+00  6.58410246E+00
 -7.77148304E-01 -1.36314263E+00  6.58410246E+00 -7.77148304E-01 -1.36314263E+00
 -6.20079620E+00 -1.33410695E-01  1.78811176E+00 -6.20079620E+00 -1.33410695E-01
  1.78811176E+00 -6.20079620E+00 -1.33410695E-01  1.78811176E+00 -6.20079620E+00
 -1.33410695E-01  1.78811176E+00  4.58663354E+00 -2.09355790E+00  2.52196990E+00
  4.58663354E+00 -2.09355790E+00  2.52196990E+00  4.58663354E+00 -2.09355790E+00
  2.52196990E+00  4.58663354E+00 -2.09355790E+00  2.52196990E+00 -6.75295347E+00
 -2.11040058E+00  1.35944989E-01 -6.75295347E+00 -2.11040058E+00  1.35944989E-01
 -6.75295347E+00 -2.11040058E+00  1.35944989E-01 -6.75295347E+00 -2.11040058E+00
  1.35944989E-01  6.66757917E+00 -2.13590108E+00  8.96094885E-01  6.66757917E+00
 -2.13590108E+00  8.96094885E-01  6.66757917E+00 -2.13590108E+00  8.96094885E-01
  6.66757917E+00 -2.13590108E+00  8.96094885E-01  1.44526325E-01  2.72341088E+00
 -3.02488275E+00  1.44526325E-01  2.72341088E+00 -3.02488275E+00  2.65400839E-01
  4.51122219E+00  2.47035392E+00  2.65400839E-01  4.51122219E+00  2.47035392E+00
 -1.43027493E+00  6.01534221E+00 -1.24400864E-02 -1.43027493E+00  6.01534221E+00
 -1.24400864E-02  1.92100318E+00  5.81911858E+00 -1.11750864E-01  1.92100318E+00
  5.81911858E+00 -1.11750864E-01 -1.65843132E+00 -1.58836961E+00 -3.75736706E+00
 -1.65843132E+00 -1.58836961E+00 -3.75736706E+00  4.37840666E+00  1.68478132E+00
 -3.74584540E+00  4.37840666E+00  1.68478132E+00 -3.74584540E+00 -3.63959167E+00
  2.86387248E+00  2.74840822E+00 -3.63959167E+00  2.86387248E+00  2.74840822E+00
  8.12019032E-01 -6.98391846E-01  3.15212742E+00  8.12019032E-01 -6.98391846E-01
  3.15212742E+00 -5.52634554E+00 -4.15850660E+00 -3.17422781E+00 -5.52634554E+00
 -4.15850660E+00 -3.17422781E+00  8.19032999E+00 -8.07756262E-01 -2.64550889E+00
  8.19032999E+00 -8.07756262E-01 -2.64550889E+00 -7.46583555E+00  2.83009406E-01
  3.35403332E+00 -7.46583555E+00  2.83009406E-01  3.35403332E+00  4.63416389E+00
 -3.15755876E+00  4.28018054E+00  4.63416389E+00 -3.15755876E+00  4.28018054E+00
 -8.45037355E+00 -3.23776010E+00  4.00334683E-01 -8.45037355E+00 -3.23776010E+00
  4.00334683E-01  8.33449521E+00 -3.23579168E+00  1.37982887E+00  8.33449521E+00
 -3.23579168E+00  1.37982887E+00
Constraint Structure                       R   N=          84
  5.64953058E-02  2.29631955E+00 -9.92675047E-01 -2.36708608E+00  8.28913287E-01
 -5.58279921E-01  2.34086800E+00  6.80087717E-01 -3.65662026E-01  1.96265220E-01
  4.81465173E+00  4.26764392E-01 -2.94192384E+00 -1.17158479E+00 -2.20257787E+00
  4.43644389E+00  6.28129613E-01 -1.97983963E+00 -4.01994447E+00  1.32090733E+00
  1.44783444E+00  2.44250498E+00 -6.93055325E-01  1.89785949E+00 -5.11310395E+00
 -2.62338759E+00 -1.87127676E+00  6.58410246E+00 -7.77148304E-01 -1.36314263E+00
 -6.20079620E+00 -1.33410695E-01  1.78811176E+00  4.58663354E+00 -2.09355790E+00
  2.52196990E+00 -6.75295347E+00 -2.11040058E+00  1.35944989E-01  6.66757917E+00
 -2.13590108E+00  8.96094885E-01  1.44526325E-01  2.72341088E+00 -3.02488275E+00
  2.65400839E-01  4.51122219E+00  2.47035392E+00 -1.43027493E+00  6.01534221E+00
 -1.24400864E-02  1.92100318E+00  5.81911858E+00 -1.11750864E-01 -1.65843132E+00
 -1.58836961E+00 -3.75736706E+00  4.37840666E+00  1.68478132E+00 -3.74584540E+00
 -3.63959167E+00  2.86387248E+00  2.74840822E+00  8.12019032E-01 -6.98391846E-01
  3.15212742E+00 -5.52634554E+00 -4.15850660E+00 -3.17422781E+00  8.19032999E+00
 -8.07756262E-01 -2.64550889E+00 -7.46583555E+00  2.83009406E-01  3.35403332E+00
  4.63416389E+00 -3.15755876E+00  4.28018054E+00 -8.45037355E+00 -3.23776010E+00
  4.00334683E-01  8.33449521E+00 -3.23579168E+00  1.37982887E+00
Num ILSW                                   I              100
ILSW                                       I   N=         100
           0           1           0           0           2           0
           0           0           0           0           0          -1
           0           0           0           0           0           0
           0           0           0           0           1           0
           1           0           0           0           0           0
           0           0      100000           0          -1           0
           0           0           0           0           0           0
           0           0           0           1           1           0
           0           0           1           0           0           0
           0           0           4          40           0           0
           0           0           0           0           0           0
           0           0           0           0           0           0
           0           0           0           0           0           0
           0           0           0           0           0           0
           0           0           0           0           0           0
           0           0           0           0           0           0
           0           0           0           0
Num RLSW                                   I               40
RLSW                                       R   N=          40
  1.00000000E+00  1.00000000E+00  1.00000000E+00  1.00000000E+00  1.00000000E+00
  0.00000000E+00  0.00000000E+00  1.00000000E+00  0.00000000E+00  0.00000000E+00
  0.00000000E+00  0.00000000E+00  1.00000000E+00  0.00000000E+00  0.00000000E+00
  0.00000000E+00  0.00000000E+00  1.00000000E+00  0.00000000E+00  0.00000000E+00
  0.00000000E+00  0.00000000E+00  1.00000000E+00  0.00000000E+00  0.00000000E+00
  0.00000000E+00  0.00000000E+00  1.00000000E+00  0.00000000E+00  0.00000000E+00
  0.00000000E+00  0.00000000E+00  0.00000000E+00  0.00000000E+00  0.00000000E+00