
    -----------------------------------------------------------------------
          Psi4: An Open-Source Ab Initio Electronic Structure Package
                               Psi4 1.3.2 release

                         Git: Rev {HEAD} ecbda83 


    R. M. Parrish, L. A. Burns, D. G. A. Smith, A. C. Simmonett,
    A. E. DePrince III, E. G. Hohenstein, U. Bozkaya, A. Yu. Sokolov,
    R. Di Remigio, R. M. Richard, J. F. Gonthier, A. M. James,
    H. R. McAlexander, A. Kumar, M. Saitow, X. Wang, B. P. Pritchard,
    P. Verma, H. F. Schaefer III, K. Patkowski, R. A. King, E. F. Valeev,
    F. A. Evangelista, J. M. Turney, T. D. Crawford, and C. D. Sherrill,
    J. Chem. Theory Comput. 13(7) pp 3185--3197 (2017).
    (doi: 10.1021/acs.jctc.7b00174)


                         Additional Contributions by
    P. Kraus, H. Kruse, M. H. Lechner, M. C. Schieber, R. A. Shaw,
    A. Alenaizan, R. Galvelis, Z. L. Glick, S. Lehtola, and J. P. Misiewicz

    -----------------------------------------------------------------------


    Psi4 started on: Friday, 06 November 2020 07:20PM

    Process ID: 65971
    Host:       node142.bme.utexas.edu
    PSIDATADIR: /home/xy3866/psi4conda/share/psi4
    Memory:     500.0 MiB
    Threads:    8
    
  ==> Input File <==

--------------------------------------------------------------------------
#psi4
#
memory 32 gb

molecule  {
0 1
  S       -0.0000030     0.5344770     0.0000290
  O       -0.2465190     1.2674450    -1.2581730
  O        0.2466330     1.2673540     1.2582600
  C        1.5048341    -0.6052275    -0.2962883
  C       -1.4261290    -0.5455610     0.2807710
  C        1.6587720    -1.4791420     0.9005390
  C        2.6214040     0.3695570    -0.5423650
  C       -1.6587760    -1.4791790    -0.9005120
  C       -2.6214500     0.3696170     0.5422190
  H        1.1885450    -1.1070370    -1.1904800
  H       -1.1886890    -1.1069770     1.1905200
  H        2.5840750    -2.0396740     0.7379460
  H        1.7616250    -0.8994820     1.8215340
  H        0.8496680    -2.2031720     1.0285220
  H        3.4965200    -0.2439880    -0.7733690
  H        2.8364310     0.9720400     0.3434690
  H        2.4263640     1.0371160    -1.3839510
  H       -2.5841960    -2.0395530    -0.7380340
  H       -1.7613990    -0.8995720    -1.8215670
  H       -0.8497680    -2.2033490    -1.0283050
  H       -3.4965670    -0.2439000     0.7732950
  H       -2.8364560     0.9719880    -0.3436930
  H       -2.4264190     1.0372780     1.3837270
units angstrom
no_reorient  #important for SAPT in psi4, default
symmetry c1  #important for SAPT in psi4, default
}

set PROPERTIES_ORIGIN ["COM"]
properties('MP2/aug-cc-pvtz', properties = ['dipole'])
--------------------------------------------------------------------------

  Memory set to  29.802 GiB by Python driver.
    SCF Algorithm Type (re)set to DF.

*** tstart() called on node142.bme.utexas.edu
*** at Fri Nov  6 19:20:56 2020

   => Loading Basis Set <=

    Name: AUG-CC-PVTZ
    Role: ORBITAL
    Keyword: BASIS
    atoms 1     entry S          line   902 file /home/xy3866/psi4conda/share/psi4/basis/aug-cc-pvtz.gbs 
    atoms 2-3   entry O          line   327 file /home/xy3866/psi4conda/share/psi4/basis/aug-cc-pvtz.gbs 
    atoms 4-9   entry C          line   235 file /home/xy3866/psi4conda/share/psi4/basis/aug-cc-pvtz.gbs 
    atoms 10-23 entry H          line    36 file /home/xy3866/psi4conda/share/psi4/basis/aug-cc-pvtz.gbs 


         ---------------------------------------------------------
                                   SCF
               by Justin Turney, Rob Parrish, Andy Simmonett
                          and Daniel G. A. Smith
                              RHF Reference
                        8 Threads,  30517 MiB Core
         ---------------------------------------------------------

  ==> Geometry <==

    Molecular point group: c1
    Full point group: C1

    Geometry (in Angstrom), charge = 0, multiplicity = 1:

       Center              X                  Y                   Z               Mass       
    ------------   -----------------  -----------------  -----------------  -----------------
         S           -0.006302136959     0.480139248714     0.001266449706    31.972071174400
         O           -0.252818136959     1.213107248714    -1.256935550294    15.994914619570
         O            0.240333863041     1.213016248714     1.259497449706    15.994914619570
         C            1.498534963041    -0.659565251286    -0.295050850294    12.000000000000
         C           -1.432428136959    -0.599898751286     0.282008449706    12.000000000000
         C            1.652472863041    -1.533479751286     0.901776449706    12.000000000000
         C            2.615104863041     0.315219248714    -0.541127550294    12.000000000000
         C           -1.665075136959    -1.533516751286    -0.899274550294    12.000000000000
         C           -2.627749136959     0.315279248714     0.543456449706    12.000000000000
         H            1.182245863041    -1.161374751286    -1.189242550294     1.007825032230
         H           -1.194988136959    -1.161314751286     1.191757449706     1.007825032230
         H            2.577775863041    -2.094011751286     0.739183449706     1.007825032230
         H            1.755325863041    -0.953819751286     1.822771449706     1.007825032230
         H            0.843368863041    -2.257509751286     1.029759449706     1.007825032230
         H            3.490220863041    -0.298325751286    -0.772131550294     1.007825032230
         H            2.830131863041     0.917702248714     0.344706449706     1.007825032230
         H            2.420064863041     0.982778248714    -1.382713550294     1.007825032230
         H           -2.590495136959    -2.093890751286    -0.736796550294     1.007825032230
         H           -1.767698136959    -0.953909751286    -1.820329550294     1.007825032230
         H           -0.856067136959    -2.257686751286    -1.027067550294     1.007825032230
         H           -3.502866136959    -0.298237751286     0.774532449706     1.007825032230
         H           -2.842755136959     0.917650248714    -0.342455550294     1.007825032230
         H           -2.432718136959     0.982940248714     1.384964449706     1.007825032230

  Running in c1 symmetry.

  Rotational constants: A =      0.06811  B =      0.03677  C =      0.03296 [cm^-1]
  Rotational constants: A =   2041.75366  B =   1102.29917  C =    987.98896 [MHz]
  Nuclear repulsion =  638.850993158277902

  Charge       = 0
  Multiplicity = 1
  Electrons    = 82
  Nalpha       = 41
  Nbeta        = 41

  ==> Algorithm <==

  SCF Algorithm Type is DF.
  DIIS enabled.
  MOM disabled.
  Fractional occupation disabled.
  Guess Type is SAD.
  Energy threshold   = 1.00e-10
  Density threshold  = 1.00e-10
  Integral threshold = 0.00e+00

  ==> Primary Basis <==

  Basis Set: AUG-CC-PVTZ
    Blend: AUG-CC-PVTZ
    Number of shells: 254
    Number of basis function: 740
    Number of Cartesian functions: 849
    Spherical Harmonics?: true
    Max angular momentum: 3

   => Loading Basis Set <=

    Name: (AUG-CC-PVTZ AUX)
    Role: JKFIT
    Keyword: DF_BASIS_SCF
    atoms 1     entry S          line   730 file /home/xy3866/psi4conda/share/psi4/basis/aug-cc-pvtz-jkfit.gbs 
    atoms 2-3   entry O          line   286 file /home/xy3866/psi4conda/share/psi4/basis/aug-cc-pvtz-jkfit.gbs 
    atoms 4-9   entry C          line   162 file /home/xy3866/psi4conda/share/psi4/basis/aug-cc-pvtz-jkfit.gbs 
    atoms 10-23 entry H          line    70 file /home/xy3866/psi4conda/share/psi4/basis/aug-cc-pvtz-jkfit.gbs 

  ==> Pre-Iterations <==

   -------------------------------------------------------
    Irrep   Nso     Nmo     Nalpha   Nbeta   Ndocc  Nsocc
   -------------------------------------------------------
     A        740     740       0       0       0       0
   -------------------------------------------------------
    Total     740     740      41      41      41       0
   -------------------------------------------------------

  ==> Integral Setup <==

  DFHelper Memory: AOs need 6.468 GiB; user supplied 22.352 GiB. Using in-core AOs.

  ==> MemDFJK: Density-Fitted J/K Matrices <==

    J tasked:                   Yes
    K tasked:                   Yes
    wK tasked:                   No
    OpenMP threads:               8
    Memory [MiB]:             22888
    Algorithm:                 Disk
    Schwarz Cutoff:           1E-12
    Mask sparsity (%):       4.7107
    Fitting Condition:        1E-10

   => Auxiliary Basis Set <=

  Basis Set: (AUG-CC-PVTZ AUX)
    Blend: AUG-CC-PVTZ-JKFIT
    Number of shells: 478
    Number of basis function: 1622
    Number of Cartesian functions: 1998
    Spherical Harmonics?: true
    Max angular momentum: 4

  Minimum eigenvalue in the overlap matrix is 2.4825399879E-06.
  Using Symmetric Orthogonalization.

  SCF Guess: Superposition of Atomic Densities via on-the-fly atomic UHF.

  ==> Iterations <==

                           Total Energy        Delta E     RMS |[F,P]|

   @DF-RHF iter SAD:  -782.65743940455741   -7.82657e+02   0.00000e+00 
   @DF-RHF iter   1:  -782.30305359688805    3.54386e-01   1.23262e-03 DIIS
   @DF-RHF iter   2:  -782.61670612596754   -3.13653e-01   7.20846e-04 DIIS
   @DF-RHF iter   3:  -782.72198015601202   -1.05274e-01   1.38859e-04 DIIS
   @DF-RHF iter   4:  -782.72776038066729   -5.78022e-03   5.21788e-05 DIIS
   @DF-RHF iter   5:  -782.72874431992830   -9.83939e-04   9.98203e-06 DIIS
   @DF-RHF iter   6:  -782.72878452367809   -4.02037e-05   2.80756e-06 DIIS
   @DF-RHF iter   7:  -782.72878886175249   -4.33807e-06   8.33944e-07 DIIS
   @DF-RHF iter   8:  -782.72878926757164   -4.05819e-07   2.42324e-07 DIIS
   @DF-RHF iter   9:  -782.72878932031790   -5.27463e-08   8.50528e-08 DIIS
   @DF-RHF iter  10:  -782.72878932529693   -4.97903e-09   2.75752e-08 DIIS
   @DF-RHF iter  11:  -782.72878932585240   -5.55474e-10   9.08670e-09 DIIS
   @DF-RHF iter  12:  -782.72878932591152   -5.91172e-11   3.09059e-09 DIIS
   @DF-RHF iter  13:  -782.72878932591357   -2.04636e-12   1.16372e-09 DIIS
   @DF-RHF iter  14:  -782.72878932591482   -1.25056e-12   4.87186e-10 DIIS
   @DF-RHF iter  15:  -782.72878932591334    1.47793e-12   1.58274e-10 DIIS
   @DF-RHF iter  16:  -782.72878932591311    2.27374e-13   5.53244e-11 DIIS
  Energy and wave function converged.


  ==> Post-Iterations <==

    Orbital Energies [Eh]
    ---------------------

    Doubly Occupied:                                                      

       1A    -92.156398     2A    -20.531030     3A    -20.530948  
       4A    -11.284808     5A    -11.278923     6A    -11.242470  
       7A    -11.242370     8A    -11.231985     9A    -11.231334  
      10A     -9.127852    11A     -6.811870    12A     -6.811466  
      13A     -6.811444    14A     -1.417574    15A     -1.310805  
      16A     -1.117698    17A     -1.098340    18A     -0.963659  
      19A     -0.955999    20A     -0.914402    21A     -0.833835  
      22A     -0.763360    23A     -0.699755    24A     -0.658104  
      25A     -0.655501    26A     -0.642998    27A     -0.608672  
      28A     -0.590729    29A     -0.579522    30A     -0.575002  
      31A     -0.565244    32A     -0.555121    33A     -0.538039  
      34A     -0.524523    35A     -0.520709    36A     -0.509646  
      37A     -0.506402    38A     -0.479209    39A     -0.460838  
      40A     -0.453578    41A     -0.396206  

    Virtual:                                                              

      42A      0.021885    43A      0.029136    44A      0.034477  
      45A      0.037875    46A      0.048498    47A      0.048617  
      48A      0.051936    49A      0.057231    50A      0.060270  
      51A      0.069464    52A      0.074691    53A      0.074778  
      54A      0.079693    55A      0.084103    56A      0.109332  
      57A      0.110739    58A      0.114694    59A      0.116755  
      60A      0.118974    61A      0.120358    62A      0.128057  
      63A      0.128774    64A      0.138702    65A      0.139436  
      66A      0.142498    67A      0.143543    68A      0.148291  
      69A      0.150582    70A      0.154842    71A      0.158800  
      72A      0.162867    73A      0.171726    74A      0.175123  
      75A      0.185433    76A      0.186256    77A      0.193187  
      78A      0.198317    79A      0.201187    80A      0.210382  
      81A      0.216799    82A      0.223941    83A      0.227397  
      84A      0.234409    85A      0.242067    86A      0.244949  
      87A      0.250194    88A      0.254546    89A      0.260874  
      90A      0.262907    91A      0.269677    92A      0.271295  
      93A      0.275714    94A      0.284141    95A      0.288545  
      96A      0.293431    97A      0.295271    98A      0.307763  
      99A      0.309691   100A      0.315367   101A      0.321188  
     102A      0.325181   103A      0.328933   104A      0.331692  
     105A      0.335175   106A      0.341780   107A      0.348412  
     108A      0.349604   109A      0.352560   110A      0.356295  
     111A      0.361713   112A      0.369353   113A      0.374991  
     114A      0.377718   115A      0.379599   116A      0.381655  
     117A      0.384004   118A      0.385011   119A      0.389670  
     120A      0.392571   121A      0.402482   122A      0.404519  
     123A      0.412203   124A      0.415971   125A      0.419816  
     126A      0.422853   127A      0.426564   128A      0.430375  
     129A      0.431387   130A      0.441629   131A      0.447903  
     132A      0.449015   133A      0.450740   134A      0.455385  
     135A      0.458270   136A      0.459955   137A      0.467204  
     138A      0.474324   139A      0.477613   140A      0.480126  
     141A      0.484591   142A      0.489821   143A      0.501864  
     144A      0.507387   145A      0.510763   146A      0.514084  
     147A      0.516980   148A      0.523454   149A      0.526705  
     150A      0.530426   151A      0.531570   152A      0.535102  
     153A      0.539260   154A      0.540635   155A      0.545071  
     156A      0.548474   157A      0.555707   158A      0.562610  
     159A      0.563250   160A      0.575540   161A      0.579206  
     162A      0.581104   163A      0.589240   164A      0.590752  
     165A      0.597428   166A      0.603492   167A      0.606569  
     168A      0.609272   169A      0.616285   170A      0.624730  
     171A      0.628889   172A      0.631575   173A      0.637693  
     174A      0.646257   175A      0.651798   176A      0.659726  
     177A      0.668084   178A      0.670948   179A      0.680059  
     180A      0.683383   181A      0.685156   182A      0.697947  
     183A      0.701413   184A      0.714876   185A      0.723897  
     186A      0.728776   187A      0.729795   188A      0.743917  
     189A      0.752071   190A      0.759223   191A      0.760920  
     192A      0.769049   193A      0.780280   194A      0.791801  
     195A      0.797864   196A      0.816066   197A      0.819738  
     198A      0.820975   199A      0.822557   200A      0.828202  
     201A      0.836136   202A      0.841586   203A      0.846562  
     204A      0.847923   205A      0.850538   206A      0.855757  
     207A      0.864735   208A      0.874497   209A      0.875726  
     210A      0.885871   211A      0.892794   212A      0.897215  
     213A      0.906409   214A      0.917046   215A      0.921300  
     216A      0.923300   217A      0.932827   218A      0.938742  
     219A      0.943497   220A      0.946562   221A      0.950125  
     222A      0.951382   223A      0.961513   224A      0.964910  
     225A      0.967207   226A      0.970618   227A      0.976999  
     228A      0.984070   229A      0.986964   230A      0.993821  
     231A      0.997346   232A      1.001878   233A      1.007457  
     234A      1.010091   235A      1.017625   236A      1.020929  
     237A      1.027809   238A      1.034951   239A      1.039532  
     240A      1.052848   241A      1.062972   242A      1.063737  
     243A      1.067522   244A      1.069431   245A      1.078837  
     246A      1.083666   247A      1.094688   248A      1.098248  
     249A      1.102030   250A      1.114900   251A      1.118414  
     252A      1.125373   253A      1.130312   254A      1.138584  
     255A      1.143065   256A      1.145753   257A      1.150721  
     258A      1.156780   259A      1.157894   260A      1.162394  
     261A      1.170805   262A      1.172006   263A      1.190362  
     264A      1.193497   265A      1.198611   266A      1.200829  
     267A      1.202150   268A      1.216203   269A      1.220323  
     270A      1.226340   271A      1.227703   272A      1.233887  
     273A      1.241285   274A      1.242675   275A      1.257253  
     276A      1.267659   277A      1.271348   278A      1.273875  
     279A      1.288739   280A      1.296832   281A      1.304295  
     282A      1.307594   283A      1.315547   284A      1.317217  
     285A      1.330011   286A      1.333361   287A      1.347147  
     288A      1.352071   289A      1.355943   290A      1.358195  
     291A      1.361787   292A      1.377509   293A      1.390854  
     294A      1.393138   295A      1.396691   296A      1.411177  
     297A      1.413972   298A      1.419819   299A      1.427962  
     300A      1.433744   301A      1.440067   302A      1.453367  
     303A      1.454019   304A      1.459276   305A      1.463270  
     306A      1.470185   307A      1.471582   308A      1.480922  
     309A      1.486854   310A      1.494922   311A      1.506784  
     312A      1.521061   313A      1.526951   314A      1.541141  
     315A      1.544826   316A      1.553888   317A      1.557743  
     318A      1.559708   319A      1.576642   320A      1.579277  
     321A      1.592818   322A      1.615104   323A      1.615600  
     324A      1.622358   325A      1.623854   326A      1.624547  
     327A      1.635649   328A      1.643346   329A      1.652818  
     330A      1.657659   331A      1.670689   332A      1.676665  
     333A      1.679916   334A      1.683506   335A      1.690532  
     336A      1.693240   337A      1.699532   338A      1.703683  
     339A      1.707893   340A      1.713212   341A      1.720103  
     342A      1.728792   343A      1.741364   344A      1.743543  
     345A      1.751211   346A      1.754598   347A      1.757314  
     348A      1.762628   349A      1.766134   350A      1.770482  
     351A      1.773621   352A      1.780640   353A      1.800839  
     354A      1.811213   355A      1.824981   356A      1.829326  
     357A      1.834688   358A      1.844180   359A      1.852125  
     360A      1.864301   361A      1.870183   362A      1.873432  
     363A      1.885992   364A      1.890275   365A      1.893736  
     366A      1.896369   367A      1.902997   368A      1.910739  
     369A      1.919454   370A      1.923272   371A      1.939160  
     372A      1.947835   373A      1.951458   374A      1.956376  
     375A      1.960348   376A      1.967303   377A      1.975271  
     378A      1.989644   379A      1.991430   380A      2.002118  
     381A      2.011900   382A      2.014663   383A      2.025874  
     384A      2.033110   385A      2.038561   386A      2.045486  
     387A      2.062818   388A      2.068733   389A      2.077575  
     390A      2.080550   391A      2.089638   392A      2.107897  
     393A      2.114799   394A      2.123080   395A      2.129004  
     396A      2.141835   397A      2.147958   398A      2.159631  
     399A      2.171934   400A      2.205517   401A      2.206006  
     402A      2.221643   403A      2.225025   404A      2.228364  
     405A      2.241128   406A      2.258965   407A      2.260378  
     408A      2.266041   409A      2.273608   410A      2.286324  
     411A      2.291200   412A      2.297516   413A      2.323584  
     414A      2.325510   415A      2.329729   416A      2.335179  
     417A      2.350936   418A      2.360057   419A      2.363240  
     420A      2.371289   421A      2.378099   422A      2.392982  
     423A      2.403861   424A      2.420509   425A      2.421243  
     426A      2.426023   427A      2.430750   428A      2.451976  
     429A      2.459544   430A      2.478899   431A      2.488282  
     432A      2.503188   433A      2.511859   434A      2.523109  
     435A      2.528841   436A      2.543886   437A      2.550077  
     438A      2.587456   439A      2.591360   440A      2.608175  
     441A      2.622246   442A      2.629048   443A      2.646594  
     444A      2.658736   445A      2.679073   446A      2.683541  
     447A      2.702186   448A      2.720734   449A      2.735599  
     450A      2.746933   451A      2.757617   452A      2.785851  
     453A      2.806751   454A      2.812576   455A      2.822715  
     456A      2.838685   457A      2.852587   458A      2.862120  
     459A      2.892036   460A      2.899732   461A      2.914561  
     462A      2.935239   463A      2.958532   464A      2.962764  
     465A      2.979563   466A      2.997794   467A      3.011988  
     468A      3.048316   469A      3.058973   470A      3.097065  
     471A      3.119431   472A      3.125308   473A      3.154881  
     474A      3.172966   475A      3.183737   476A      3.204572  
     477A      3.320561   478A      3.335656   479A      3.356639  
     480A      3.369936   481A      3.413540   482A      3.444538  
     483A      3.451099   484A      3.464341   485A      3.474363  
     486A      3.491801   487A      3.503595   488A      3.507969  
     489A      3.528027   490A      3.551204   491A      3.558874  
     492A      3.564467   493A      3.572204   494A      3.600939  
     495A      3.608867   496A      3.621076   497A      3.636922  
     498A      3.649752   499A      3.656813   500A      3.680421  
     501A      3.686807   502A      3.698007   503A      3.702478  
     504A      3.712758   505A      3.716950   506A      3.723838  
     507A      3.732047   508A      3.742060   509A      3.746043  
     510A      3.754237   511A      3.761608   512A      3.765205  
     513A      3.781999   514A      3.795158   515A      3.800079  
     516A      3.805106   517A      3.809715   518A      3.816881  
     519A      3.829782   520A      3.837119   521A      3.843000  
     522A      3.853849   523A      3.858717   524A      3.874880  
     525A      3.882720   526A      3.894049   527A      3.903865  
     528A      3.916848   529A      3.920673   530A      3.929306  
     531A      3.948950   532A      3.959099   533A      3.974335  
     534A      3.985927   535A      4.000134   536A      4.003595  
     537A      4.004733   538A      4.015297   539A      4.016708  
     540A      4.026172   541A      4.041291   542A      4.056653  
     543A      4.065821   544A      4.075257   545A      4.083991  
     546A      4.092021   547A      4.096759   548A      4.104536  
     549A      4.112594   550A      4.122275   551A      4.150416  
     552A      4.166189   553A      4.178384   554A      4.195639  
     555A      4.205783   556A      4.212709   557A      4.220085  
     558A      4.235919   559A      4.245239   560A      4.250328  
     561A      4.253835   562A      4.267643   563A      4.283996  
     564A      4.290677   565A      4.299665   566A      4.302818  
     567A      4.321385   568A      4.326448   569A      4.336211  
     570A      4.344244   571A      4.352784   572A      4.359415  
     573A      4.377765   574A      4.397603   575A      4.404792  
     576A      4.406073   577A      4.433495   578A      4.449103  
     579A      4.467230   580A      4.483937   581A      4.489134  
     582A      4.509149   583A      4.523759   584A      4.534244  
     585A      4.563762   586A      4.570015   587A      4.604464  
     588A      4.634737   589A      4.637485   590A      4.649886  
     591A      4.661160   592A      4.675763   593A      4.687733  
     594A      4.717344   595A      4.731499   596A      4.736563  
     597A      4.756275   598A      4.765598   599A      4.778752  
     600A      4.786648   601A      4.803082   602A      4.810410  
     603A      4.848492   604A      4.858806   605A      4.875621  
     606A      4.877702   607A      4.894913   608A      4.897322  
     609A      4.905618   610A      4.908727   611A      4.923055  
     612A      4.939942   613A      4.946203   614A      4.959460  
     615A      4.972503   616A      4.979504   617A      4.987811  
     618A      5.004881   619A      5.010320   620A      5.042723  
     621A      5.056131   622A      5.077103   623A      5.085177  
     624A      5.097074   625A      5.122655   626A      5.130985  
     627A      5.140431   628A      5.153279   629A      5.162400  
     630A      5.191186   631A      5.205768   632A      5.228920  
     633A      5.237243   634A      5.241852   635A      5.246826  
     636A      5.254106   637A      5.280208   638A      5.297765  
     639A      5.308340   640A      5.318390   641A      5.335041  
     642A      5.341800   643A      5.355465   644A      5.366764  
     645A      5.384646   646A      5.396907   647A      5.404788  
     648A      5.405717   649A      5.430082   650A      5.439021  
     651A      5.448692   652A      5.455300   653A      5.457195  
     654A      5.496682   655A      5.508674   656A      5.528880  
     657A      5.536482   658A      5.543716   659A      5.568010  
     660A      5.585009   661A      5.600799   662A      5.622103  
     663A      5.639679   664A      5.652239   665A      5.677284  
     666A      5.694575   667A      5.719454   668A      5.745457  
     669A      5.763709   670A      5.768713   671A      5.785321  
     672A      5.795606   673A      5.800258   674A      5.841247  
     675A      5.870123   676A      5.879652   677A      5.941240  
     678A      5.958444   679A      5.994019   680A      6.020630  
     681A      6.031354   682A      6.100095   683A      6.105666  
     684A      6.124277   685A      6.138487   686A      6.176848  
     687A      6.199198   688A      6.213374   689A      6.218439  
     690A      6.237713   691A      6.264121   692A      6.279867  
     693A      6.294397   694A      6.324185   695A      6.356285  
     696A      6.382757   697A      6.414725   698A      6.696961  
     699A      6.736666   700A      6.774639   701A      6.833303  
     702A      6.835429   703A      6.843943   704A      6.854476  
     705A      6.866221   706A      6.885061   707A      6.894592  
     708A      6.903899   709A      6.916887   710A      6.950832  
     711A      6.967489   712A      6.978898   713A      7.018655  
     714A      7.044937   715A      7.057464   716A      7.100395  
     717A      7.103273   718A      7.115665   719A      7.144013  
     720A      7.178538   721A      7.244306   722A      7.403263  
     723A      7.443571   724A      7.486517   725A      7.512263  
     726A      7.735783   727A      7.755662   728A      7.774054  
     729A      7.825104   730A      7.869473   731A      7.917592  
     732A     13.435805   733A     14.059443   734A     14.334173  
     735A     17.587345   736A     18.180268   737A     18.339266  
     738A     18.428536   739A     19.298121   740A     19.757892  

    Final Occupation by Irrep:
              A 
    DOCC [    41 ]

  @DF-RHF Final Energy:  -782.72878932591311

   => Energetics <=

    Nuclear Repulsion Energy =            638.8509931582779018
    One-Electron Energy =               -2342.7828330496058697
    Two-Electron Energy =                 921.2030505654147419
    Total Energy =                       -782.7287893259131124

Computation Completed

*** tstop() called on node142.bme.utexas.edu at Fri Nov  6 19:23:23 2020
Module time:
	user time   =     704.39 seconds =      11.74 minutes
	system time =      69.14 seconds =       1.15 minutes
	total time  =        147 seconds =       2.45 minutes
Total time:
	user time   =     704.39 seconds =      11.74 minutes
	system time =      69.14 seconds =       1.15 minutes
	total time  =        147 seconds =       2.45 minutes
   => Loading Basis Set <=

    Name: (AUG-CC-PVTZ AUX)
    Role: RIFIT
    Keyword: DF_BASIS_MP2
    atoms 1     entry S          line   666 file /home/xy3866/psi4conda/share/psi4/basis/aug-cc-pvtz-ri.gbs 
    atoms 2-3   entry O          line   264 file /home/xy3866/psi4conda/share/psi4/basis/aug-cc-pvtz-ri.gbs 
    atoms 4-9   entry C          line   148 file /home/xy3866/psi4conda/share/psi4/basis/aug-cc-pvtz-ri.gbs 
    atoms 10-23 entry H          line    30 file /home/xy3866/psi4conda/share/psi4/basis/aug-cc-pvtz-ri.gbs 


*** tstart() called on node142.bme.utexas.edu
*** at Fri Nov  6 19:23:23 2020


  //>>>>>>>>>>>>>>>>>>>>>>>>>>>>>>>>>>>//
  //               DFMP2               //
  //<<<<<<<<<<<<<<<<<<<<<<<<<<<<<<<<<<<//

	 --------------------------------------------------------
	                          DF-MP2                         
	      2nd-Order Density-Fitted Moller-Plesset Theory     
	              RMP2 Wavefunction,   8 Threads             
	                                                         
	        Rob Parrish, Justin Turney, Andy Simmonett,      
	           Ed Hohenstein, and C. David Sherrill          
	 --------------------------------------------------------

   => Auxiliary Basis Set <=

  Basis Set: (AUG-CC-PVTZ AUX)
    Blend: AUG-CC-PVTZ-RI
    Number of shells: 457
    Number of basis function: 1639
    Number of Cartesian functions: 2049
    Spherical Harmonics?: true
    Max angular momentum: 4

	 --------------------------------------------------------
	                 NBF =   740, NAUX =  1639
	 --------------------------------------------------------
	   CLASS    FOCC     OCC    AOCC    AVIR     VIR    FVIR
	   PAIRS       0      41      41     699     699       0
	 --------------------------------------------------------

  DFHelper Memory: AOs need 6.468 GiB; user supplied 22.352 GiB. Using in-core AOs.


         ------------------------------------------------------------
                                     CPHF                           
                                  Rob Parrish                       
         ------------------------------------------------------------

  ==> Geometry <==

    Molecular point group: c1
    Full point group: C1

    Geometry (in Angstrom), charge = 0, multiplicity = 1:

       Center              X                  Y                   Z               Mass       
    ------------   -----------------  -----------------  -----------------  -----------------
         S           -0.006302136959     0.480139248714     0.001266449706    31.972071174400
         O           -0.252818136959     1.213107248714    -1.256935550294    15.994914619570
         O            0.240333863041     1.213016248714     1.259497449706    15.994914619570
         C            1.498534963041    -0.659565251286    -0.295050850294    12.000000000000
         C           -1.432428136959    -0.599898751286     0.282008449706    12.000000000000
         C            1.652472863041    -1.533479751286     0.901776449706    12.000000000000
         C            2.615104863041     0.315219248714    -0.541127550294    12.000000000000
         C           -1.665075136959    -1.533516751286    -0.899274550294    12.000000000000
         C           -2.627749136959     0.315279248714     0.543456449706    12.000000000000
         H            1.182245863041    -1.161374751286    -1.189242550294     1.007825032230
         H           -1.194988136959    -1.161314751286     1.191757449706     1.007825032230
         H            2.577775863041    -2.094011751286     0.739183449706     1.007825032230
         H            1.755325863041    -0.953819751286     1.822771449706     1.007825032230
         H            0.843368863041    -2.257509751286     1.029759449706     1.007825032230
         H            3.490220863041    -0.298325751286    -0.772131550294     1.007825032230
         H            2.830131863041     0.917702248714     0.344706449706     1.007825032230
         H            2.420064863041     0.982778248714    -1.382713550294     1.007825032230
         H           -2.590495136959    -2.093890751286    -0.736796550294     1.007825032230
         H           -1.767698136959    -0.953909751286    -1.820329550294     1.007825032230
         H           -0.856067136959    -2.257686751286    -1.027067550294     1.007825032230
         H           -3.502866136959    -0.298237751286     0.774532449706     1.007825032230
         H           -2.842755136959     0.917650248714    -0.342455550294     1.007825032230
         H           -2.432718136959     0.982940248714     1.384964449706     1.007825032230

  Nuclear repulsion =  638.850993158277902
  Reference energy  = -782.728789325913112

  ==> Basis Set <==

  Basis Set: AUG-CC-PVTZ
    Blend: AUG-CC-PVTZ
    Number of shells: 254
    Number of basis function: 740
    Number of Cartesian functions: 849
    Spherical Harmonics?: true
    Max angular momentum: 3

  ==> CGRSolver (by Rob Parrish) <==

   Number of roots    =         1
   Preconditioning    =    JACOBI
   Convergence cutoff =     1E-06
   Maximum iterations =       100

  ==> CPHFRHamiltonian (by Rob Parrish) <== 

  ==> MemDFJK: Density-Fitted J/K Matrices <==

    J tasked:                   Yes
    K tasked:                   Yes
    wK tasked:                   No
    OpenMP threads:               8
    Memory [MiB]:             22888
    Algorithm:                 Disk
    Schwarz Cutoff:           1E-12
    Mask sparsity (%):       4.7107
    Fitting Condition:        1E-10

   => Auxiliary Basis Set <=

  Basis Set: (AUG-CC-PVTZ AUX)
    Blend: AUG-CC-PVTZ-JKFIT
    Number of shells: 478
    Number of basis function: 1622
    Number of Cartesian functions: 1998
    Spherical Harmonics?: true
    Max angular momentum: 4

  ==> CPHF Iterations <==

  => Iterations <=

             Iter  Converged  Remaining    Residual
  CGR           1          0          1   1.195E-01
  CGR           2          0          1   3.000E-02
  CGR           3          0          1   1.248E-02
  CGR           4          0          1   3.490E-03
  CGR           5          0          1   9.712E-04
  CGR           6          0          1   3.423E-04
  CGR           7          0          1   9.569E-05
  CGR           8          0          1   3.536E-05
  CGR           9          0          1   1.189E-05
  CGR          10          0          1   3.759E-06
  CGR          11          0          1   1.255E-06
  CGR          12          1          0   3.953E-07

    CGRSolver converged.

	-----------------------------------------------------------
	 ==================> DF-MP2 Energies <==================== 
	-----------------------------------------------------------
	 Reference Energy          =    -782.7287893259131124 [Eh]
	 Singles Energy            =      -0.0000000000000000 [Eh]
	 Same-Spin Energy          =      -0.4621960455496785 [Eh]
	 Opposite-Spin Energy      =      -1.4997418364926078 [Eh]
	 Correlation Energy        =      -1.9619378820422864 [Eh]
	 Total Energy              =    -784.6907272079554332 [Eh]
	-----------------------------------------------------------
	 ================> DF-SCS-MP2 Energies <================== 
	-----------------------------------------------------------
	 SCS Same-Spin Scale       =       0.3333333333333333 [-]
	 SCS Opposite-Spin Scale   =       1.2000000000000000 [-]
	 SCS Same-Spin Energy      =      -0.1540653485165595 [Eh]
	 SCS Opposite-Spin Energy  =      -1.7996902037911293 [Eh]
	 SCS Correlation Energy    =      -1.9537555523076888 [Eh]
	 SCS Total Energy          =    -784.6825448782208241 [Eh]
	-----------------------------------------------------------



Properties will be evaluated at   0.000000,  -0.000000,   0.000000 [a0]

Properties computed using the MP2 density matrix

  Nuclear Dipole Moment: [e a0]
     X:    -0.0831      Y:    -9.0963      Z:     0.0159

  Electronic Dipole Moment: [e a0]
     X:     0.0878      Y:     7.3256      Z:    -0.0091

  Dipole Moment: [e a0]
     X:     0.0047      Y:    -1.7708      Z:     0.0068     Total:     1.7708

  Dipole Moment: [D]
     X:     0.0119      Y:    -4.5008      Z:     0.0173     Total:     4.5009


*** tstop() called on node142.bme.utexas.edu at Fri Nov  6 19:30:15 2020
Module time:
	user time   =    2654.06 seconds =      44.23 minutes
	system time =      79.48 seconds =       1.32 minutes
	total time  =        412 seconds =       6.87 minutes
Total time:
	user time   =    3359.63 seconds =      55.99 minutes
	system time =     148.70 seconds =       2.48 minutes
	total time  =        559 seconds =       9.32 minutes

    Psi4 stopped on: Friday, 06 November 2020 07:30PM
    Psi4 wall time for execution: 0:09:19.43

*** Psi4 exiting successfully. Buy a developer a beer!
