opt=Tight                                                               
Freq      RMP2-FC                                                     6-31G(d)            
Number of atoms                            I               15
Info1-9                                    I   N=           9
          24          24        1002           0           0         100
           6           2           1
Charge                                     I               -1
Multiplicity                               I                1
Number of electrons                        I               82
Number of alpha electrons                  I               41
Number of beta electrons                   I               41
Number of basis functions                  I              164
Number of independent functions            I              164
Number of point charges in /Mol/           I                0
Number of translation vectors              I                0
Atomic numbers                             I   N=          15
          16           8           8           8           6           6
           6           6           6           6           1           1
           1           1           1
Nuclear charges                            R   N=          15
  1.60000000E+01  8.00000000E+00  8.00000000E+00  8.00000000E+00  6.00000000E+00
  6.00000000E+00  6.00000000E+00  6.00000000E+00  6.00000000E+00  6.00000000E+00
  1.00000000E+00  1.00000000E+00  1.00000000E+00  1.00000000E+00  1.00000000E+00
Current cartesian coordinates              R   N=          45
 -2.88323522E+00  1.02107071E-03  9.36837106E-03 -3.54411784E+00 -1.74082798E-01
  2.74257742E+00 -3.66065854E+00  2.43448162E+00 -1.17215591E+00 -3.65135494E+00
 -2.26790542E+00 -1.46905310E+00  4.95303771E-01  6.80547102E-03 -8.61760349E-02
  1.80544982E+00 -2.28791379E+00 -5.38447646E-02  1.81324767E+00  2.29549540E+00
 -5.26091740E-02  4.44310457E+00 -2.28720964E+00  4.38058359E-03  4.45204672E+00
  2.28438100E+00  2.85906143E-03  5.77112032E+00 -3.46216515E-03  4.28512540E-02
  7.59786776E-01 -4.05402833E+00 -1.15836959E-01  7.70954948E-01  4.06317729E+00
 -1.10465747E-01  5.46379481E+00 -4.07082216E+00  1.94941714E-02  5.47932370E+00
  4.06424087E+00  1.59133427E-02  7.82531654E+00 -7.42965146E-03  8.52883524E-02
Force Field                                I                0
Int Atom Types                             I   N=          15
           0           0           0           0           0           0
           0           0           0           0           0           0
           0           0           0
MM charges                                 R   N=          15
  0.00000000E+00  0.00000000E+00  0.00000000E+00  0.00000000E+00  0.00000000E+00
  0.00000000E+00  0.00000000E+00  0.00000000E+00  0.00000000E+00  0.00000000E+00
  0.00000000E+00  0.00000000E+00  0.00000000E+00  0.00000000E+00  0.00000000E+00
Integer atomic weights                     I   N=          15
          32          16          16          16          12          12
          12          12          12          12           1           1
           1           1           1
Real atomic weights                        R   N=          15
  3.19720718E+01  1.59949146E+01  1.59949146E+01  1.59949146E+01  1.20000000E+01
  1.20000000E+01  1.20000000E+01  1.20000000E+01  1.20000000E+01  1.20000000E+01
  1.00782504E+00  1.00782504E+00  1.00782504E+00  1.00782504E+00  1.00782504E+00
Atom fragment info                         I   N=          15
           0           0           0           0           0           0
           0           0           0           0           0           0
           0           0           0
Atom residue num                           I   N=          15
           0           0           0           0           0           0
           0           0           0           0           0           0
           0           0           0
Nuclear spins                              I   N=          15
           0           0           0           0           0           0
           0           0           0           0           1           1
           1           1           1
Nuclear ZEff                               R   N=          15
 -1.36000000E+01 -5.60000000E+00 -5.60000000E+00 -5.60000000E+00 -3.60000000E+00
 -3.60000000E+00 -3.60000000E+00 -3.60000000E+00 -3.60000000E+00 -3.60000000E+00
 -1.00000000E+00 -1.00000000E+00 -1.00000000E+00 -1.00000000E+00 -1.00000000E+00
Nuclear QMom                               R   N=          15
  0.00000000E+00  0.00000000E+00  0.00000000E+00  0.00000000E+00  0.00000000E+00
  0.00000000E+00  0.00000000E+00  0.00000000E+00  0.00000000E+00  0.00000000E+00
  0.00000000E+00  0.00000000E+00  0.00000000E+00  0.00000000E+00  0.00000000E+00
Nuclear GFac                               R   N=          15
  0.00000000E+00  0.00000000E+00  0.00000000E+00  0.00000000E+00  0.00000000E+00
  0.00000000E+00  0.00000000E+00  0.00000000E+00  0.00000000E+00  0.00000000E+00
  2.79284600E+00  2.79284600E+00  2.79284600E+00  2.79284600E+00  2.79284600E+00
MicOpt                                     I   N=          15
          -1          -1          -1          -1          -1          -1
          -1          -1          -1          -1          -1          -1
          -1          -1          -1
Number of contracted shells                I               51
Number of primitive shells                 I              136
Pure/Cartesian d shells                    I                1
Pure/Cartesian f shells                    I                0
Highest angular momentum                   I                2
Largest degree of contraction              I                6
Shell types                                I   N=          51
           0          -1          -1          -1           2           0
          -1          -1           2           0          -1          -1
           2           0          -1          -1           2           0
          -1          -1           2           0          -1          -1
           2           0          -1          -1           2           0
          -1          -1           2           0          -1          -1
           2           0          -1          -1           2           0
           0           0           0           0           0           0
           0           0           0
Number of primitives per shell             I   N=          51
           6           6           3           1           1           6
           3           1           1           6           3           1
           1           6           3           1           1           6
           3           1           1           6           3           1
           1           6           3           1           1           6
           3           1           1           6           3           1
           1           6           3           1           1           3
           1           3           1           3           1           3
           1           3           1
Shell to atom map                          I   N=          51
           1           1           1           1           1           2
           2           2           2           3           3           3
           3           4           4           4           4           5
           5           5           5           6           6           6
           6           7           7           7           7           8
           8           8           8           9           9           9
           9          10          10          10          10          11
          11          12          12          13          13          14
          14          15          15
Primitive exponents                        R   N=         136
  2.19171000E+04  3.30149000E+03  7.54146000E+02  2.12711000E+02  6.79896000E+01
  2.30515000E+01  4.23735000E+02  1.00710000E+02  3.21599000E+01  1.18079000E+01
  4.63110000E+00  1.87025000E+00  2.61584000E+00  9.22167000E-01  3.41287000E-01
  1.17167000E-01  6.50000000E-01  5.48467166E+03  8.25234946E+02  1.88046958E+02
  5.29645000E+01  1.68975704E+01  5.79963534E+00  1.55396162E+01  3.59993359E+00
  1.01376175E+00  2.70005823E-01  8.00000000E-01  5.48467166E+03  8.25234946E+02
  1.88046958E+02  5.29645000E+01  1.68975704E+01  5.79963534E+00  1.55396162E+01
  3.59993359E+00  1.01376175E+00  2.70005823E-01  8.00000000E-01  5.48467166E+03
  8.25234946E+02  1.88046958E+02  5.29645000E+01  1.68975704E+01  5.79963534E+00
  1.55396162E+01  3.59993359E+00  1.01376175E+00  2.70005823E-01  8.00000000E-01
  3.04752488E+03  4.57369518E+02  1.03948685E+02  2.92101553E+01  9.28666296E+00
  3.16392696E+00  7.86827235E+00  1.88128854E+00  5.44249258E-01  1.68714478E-01
  8.00000000E-01  3.04752488E+03  4.57369518E+02  1.03948685E+02  2.92101553E+01
  9.28666296E+00  3.16392696E+00  7.86827235E+00  1.88128854E+00  5.44249258E-01
  1.68714478E-01  8.00000000E-01  3.04752488E+03  4.57369518E+02  1.03948685E+02
  2.92101553E+01  9.28666296E+00  3.16392696E+00  7.86827235E+00  1.88128854E+00
  5.44249258E-01  1.68714478E-01  8.00000000E-01  3.04752488E+03  4.57369518E+02
  1.03948685E+02  2.92101553E+01  9.28666296E+00  3.16392696E+00  7.86827235E+00
  1.88128854E+00  5.44249258E-01  1.68714478E-01  8.00000000E-01  3.04752488E+03
  4.57369518E+02  1.03948685E+02  2.92101553E+01  9.28666296E+00  3.16392696E+00
  7.86827235E+00  1.88128854E+00  5.44249258E-01  1.68714478E-01  8.00000000E-01
  3.04752488E+03  4.57369518E+02  1.03948685E+02  2.92101553E+01  9.28666296E+00
  3.16392696E+00  7.86827235E+00  1.88128854E+00  5.44249258E-01  1.68714478E-01
  8.00000000E-01  1.87311370E+01  2.82539436E+00  6.40121692E-01  1.61277759E-01
  1.87311370E+01  2.82539436E+00  6.40121692E-01  1.61277759E-01  1.87311370E+01
  2.82539436E+00  6.40121692E-01  1.61277759E-01  1.87311370E+01  2.82539436E+00
  6.40121692E-01  1.61277759E-01  1.87311370E+01  2.82539436E+00  6.40121692E-01
  1.61277759E-01
Contraction coefficients                   R   N=         136
  1.86924085E-03  1.42303065E-02  6.96962317E-02  2.38487108E-01  4.83307220E-01
  3.38074154E-01 -2.37677050E-03 -3.16930067E-02 -1.13317024E-01  5.60900118E-02
  5.92255124E-01  4.55006095E-01 -2.50373114E-01  6.69567631E-02  1.05450627E+00
  1.00000000E+00  1.00000000E+00  1.83107443E-03  1.39501722E-02  6.84450781E-02
  2.32714336E-01  4.70192898E-01  3.58520853E-01 -1.10777550E-01 -1.48026263E-01
  1.13076702E+00  1.00000000E+00  1.00000000E+00  1.83107443E-03  1.39501722E-02
  6.84450781E-02  2.32714336E-01  4.70192898E-01  3.58520853E-01 -1.10777550E-01
 -1.48026263E-01  1.13076702E+00  1.00000000E+00  1.00000000E+00  1.83107443E-03
  1.39501722E-02  6.84450781E-02  2.32714336E-01  4.70192898E-01  3.58520853E-01
 -1.10777550E-01 -1.48026263E-01  1.13076702E+00  1.00000000E+00  1.00000000E+00
  1.83473713E-03  1.40373228E-02  6.88426223E-02  2.32184443E-01  4.67941348E-01
  3.62311985E-01 -1.19332420E-01 -1.60854152E-01  1.14345644E+00  1.00000000E+00
  1.00000000E+00  1.83473713E-03  1.40373228E-02  6.88426223E-02  2.32184443E-01
  4.67941348E-01  3.62311985E-01 -1.19332420E-01 -1.60854152E-01  1.14345644E+00
  1.00000000E+00  1.00000000E+00  1.83473713E-03  1.40373228E-02  6.88426223E-02
  2.32184443E-01  4.67941348E-01  3.62311985E-01 -1.19332420E-01 -1.60854152E-01
  1.14345644E+00  1.00000000E+00  1.00000000E+00  1.83473713E-03  1.40373228E-02
  6.88426223E-02  2.32184443E-01  4.67941348E-01  3.62311985E-01 -1.19332420E-01
 -1.60854152E-01  1.14345644E+00  1.00000000E+00  1.00000000E+00  1.83473713E-03
  1.40373228E-02  6.88426223E-02  2.32184443E-01  4.67941348E-01  3.62311985E-01
 -1.19332420E-01 -1.60854152E-01  1.14345644E+00  1.00000000E+00  1.00000000E+00
  1.83473713E-03  1.40373228E-02  6.88426223E-02  2.32184443E-01  4.67941348E-01
  3.62311985E-01 -1.19332420E-01 -1.60854152E-01  1.14345644E+00  1.00000000E+00
  1.00000000E+00  3.34946043E-02  2.34726953E-01  8.13757326E-01  1.00000000E+00
  3.34946043E-02  2.34726953E-01  8.13757326E-01  1.00000000E+00  3.34946043E-02
  2.34726953E-01  8.13757326E-01  1.00000000E+00  3.34946043E-02  2.34726953E-01
  8.13757326E-01  1.00000000E+00  3.34946043E-02  2.34726953E-01  8.13757326E-01
  1.00000000E+00
P(S=P) Contraction coefficients            R   N=         136
  0.00000000E+00  0.00000000E+00  0.00000000E+00  0.00000000E+00  0.00000000E+00
  0.00000000E+00  4.06100998E-03  3.06812999E-02  1.30451999E-01  3.27204999E-01
  4.52850998E-01  2.56041999E-01 -1.45104895E-02  3.10262776E-01  7.54482456E-01
  1.00000000E+00  0.00000000E+00  0.00000000E+00  0.00000000E+00  0.00000000E+00
  0.00000000E+00  0.00000000E+00  0.00000000E+00  7.08742682E-02  3.39752839E-01
  7.27158577E-01  1.00000000E+00  0.00000000E+00  0.00000000E+00  0.00000000E+00
  0.00000000E+00  0.00000000E+00  0.00000000E+00  0.00000000E+00  7.08742682E-02
  3.39752839E-01  7.27158577E-01  1.00000000E+00  0.00000000E+00  0.00000000E+00
  0.00000000E+00  0.00000000E+00  0.00000000E+00  0.00000000E+00  0.00000000E+00
  7.08742682E-02  3.39752839E-01  7.27158577E-01  1.00000000E+00  0.00000000E+00
  0.00000000E+00  0.00000000E+00  0.00000000E+00  0.00000000E+00  0.00000000E+00
  0.00000000E+00  6.89990666E-02  3.16423961E-01  7.44308291E-01  1.00000000E+00
  0.00000000E+00  0.00000000E+00  0.00000000E+00  0.00000000E+00  0.00000000E+00
  0.00000000E+00  0.00000000E+00  6.89990666E-02  3.16423961E-01  7.44308291E-01
  1.00000000E+00  0.00000000E+00  0.00000000E+00  0.00000000E+00  0.00000000E+00
  0.00000000E+00  0.00000000E+00  0.00000000E+00  6.89990666E-02  3.16423961E-01
  7.44308291E-01  1.00000000E+00  0.00000000E+00  0.00000000E+00  0.00000000E+00
  0.00000000E+00  0.00000000E+00  0.00000000E+00  0.00000000E+00  6.89990666E-02
  3.16423961E-01  7.44308291E-01  1.00000000E+00  0.00000000E+00  0.00000000E+00
  0.00000000E+00  0.00000000E+00  0.00000000E+00  0.00000000E+00  0.00000000E+00
  6.89990666E-02  3.16423961E-01  7.44308291E-01  1.00000000E+00  0.00000000E+00
  0.00000000E+00  0.00000000E+00  0.00000000E+00  0.00000000E+00  0.00000000E+00
  0.00000000E+00  6.89990666E-02  3.16423961E-01  7.44308291E-01  1.00000000E+00
  0.00000000E+00  0.00000000E+00  0.00000000E+00  0.00000000E+00  0.00000000E+00
  0.00000000E+00  0.00000000E+00  0.00000000E+00  0.00000000E+00  0.00000000E+00
  0.00000000E+00  0.00000000E+00  0.00000000E+00  0.00000000E+00  0.00000000E+00
  0.00000000E+00  0.00000000E+00  0.00000000E+00  0.00000000E+00  0.00000000E+00
  0.00000000E+00
Coordinates of each shell                  R   N=         153
 -2.88323522E+00  1.02107071E-03  9.36837106E-03 -2.88323522E+00  1.02107071E-03
  9.36837106E-03 -2.88323522E+00  1.02107071E-03  9.36837106E-03 -2.88323522E+00
  1.02107071E-03  9.36837106E-03 -2.88323522E+00  1.02107071E-03  9.36837106E-03
 -3.54411784E+00 -1.74082798E-01  2.74257742E+00 -3.54411784E+00 -1.74082798E-01
  2.74257742E+00 -3.54411784E+00 -1.74082798E-01  2.74257742E+00 -3.54411784E+00
 -1.74082798E-01  2.74257742E+00 -3.66065854E+00  2.43448162E+00 -1.17215591E+00
 -3.66065854E+00  2.43448162E+00 -1.17215591E+00 -3.66065854E+00  2.43448162E+00
 -1.17215591E+00 -3.66065854E+00  2.43448162E+00 -1.17215591E+00 -3.65135494E+00
 -2.26790542E+00 -1.46905310E+00 -3.65135494E+00 -2.26790542E+00 -1.46905310E+00
 -3.65135494E+00 -2.26790542E+00 -1.46905310E+00 -3.65135494E+00 -2.26790542E+00
 -1.46905310E+00  4.95303771E-01  6.80547102E-03 -8.61760349E-02  4.95303771E-01
  6.80547102E-03 -8.61760349E-02  4.95303771E-01  6.80547102E-03 -8.61760349E-02
  4.95303771E-01  6.80547102E-03 -8.61760349E-02  1.80544982E+00 -2.28791379E+00
 -5.38447646E-02  1.80544982E+00 -2.28791379E+00 -5.38447646E-02  1.80544982E+00
 -2.28791379E+00 -5.38447646E-02  1.80544982E+00 -2.28791379E+00 -5.38447646E-02
  1.81324767E+00  2.29549540E+00 -5.26091740E-02  1.81324767E+00  2.29549540E+00
 -5.26091740E-02  1.81324767E+00  2.29549540E+00 -5.26091740E-02  1.81324767E+00
  2.29549540E+00 -5.26091740E-02  4.44310457E+00 -2.28720964E+00  4.38058359E-03
  4.44310457E+00 -2.28720964E+00  4.38058359E-03  4.44310457E+00 -2.28720964E+00
  4.38058359E-03  4.44310457E+00 -2.28720964E+00  4.38058359E-03  4.45204672E+00
  2.28438100E+00  2.85906143E-03  4.45204672E+00  2.28438100E+00  2.85906143E-03
  4.45204672E+00  2.28438100E+00  2.85906143E-03  4.45204672E+00  2.28438100E+00
  2.85906143E-03  5.77112032E+00 -3.46216515E-03  4.28512540E-02  5.77112032E+00
 -3.46216515E-03  4.28512540E-02  5.77112032E+00 -3.46216515E-03  4.28512540E-02
  5.77112032E+00 -3.46216515E-03  4.28512540E-02  7.59786776E-01 -4.05402833E+00
 -1.15836959E-01  7.59786776E-01 -4.05402833E+00 -1.15836959E-01  7.70954948E-01
  4.06317729E+00 -1.10465747E-01  7.70954948E-01  4.06317729E+00 -1.10465747E-01
  5.46379481E+00 -4.07082216E+00  1.94941714E-02  5.46379481E+00 -4.07082216E+00
  1.94941714E-02  5.47932370E+00  4.06424087E+00  1.59133427E-02  5.47932370E+00
  4.06424087E+00  1.59133427E-02  7.82531654E+00 -7.42965146E-03  8.52883524E-02
  7.82531654E+00 -7.42965146E-03  8.52883524E-02
Constraint Structure                       R   N=          45
 -2.88323522E+00  1.02107071E-03  9.36837106E-03 -3.54411784E+00 -1.74082798E-01
  2.74257742E+00 -3.66065854E+00  2.43448162E+00 -1.17215591E+00 -3.65135494E+00
 -2.26790542E+00 -1.46905310E+00  4.95303771E-01  6.80547102E-03 -8.61760349E-02
  1.80544982E+00 -2.28791379E+00 -5.38447646E-02  1.81324767E+00  2.29549540E+00
 -5.26091740E-02  4.44310457E+00 -2.28720964E+00  4.38058359E-03  4.45204672E+00
  2.28438100E+00  2.85906143E-03  5.77112032E+00 -3.46216515E-03  4.28512540E-02
  7.59786776E-01 -4.05402833E+00 -1.15836959E-01  7.70954948E-01  4.06317729E+00
 -1.10465747E-01  5.46379481E+00 -4.07082216E+00  1.94941714E-02  5.47932370E+00
  4.06424087E+00  1.59133427E-02  7.82531654E+00 -7.42965146E-03  8.52883524E-02
Num ILSW                                   I              100
ILSW                                       I   N=         100
           0           1           0           0           2           0
           0           0           0           0           0          -1
           0           0           0           0           0           0
           0           0           0           0           1           0
           1           0           0           0           0           0
           0           0      100000           0          -1           0
           0           0           0           0           0           0
           0           0           0           1           1           0
           0           0           1           0           0           0
           0           0           4          40           0           0
           0           0           0           0           0           0
           0           0           0           0           0           0
           0           0           0           0           0           0
           0           0           0           0           0           0
           0           0           0           0           0           0
           0           0           0           0           0           0
           0           0           0           0
Num RLSW                                   I               40
RLSW                                       R   N=          40
  1.00000000E+00  1.00000000E+00  1.00000000E+00  1.00000000E+00  1.00000000E+00
  0.00000000E+00  0.00000000E+00  1.00000000E+00  0.00000000E+00  0.00000000E+00
  0.00000000E+00  0.00000000E+00  1.00000000E+00  0.00000000E+00  0.00000000E+00
  0.00000000E+00  0.00000000E+00  1.00000000E+00  0.00000000E+00  0.00000000E+00
  0.00000000E+00  0.00000000E+00  1.00000000E+00  0.00000000E+00  0.00000000E+00
  0.00000000E+00  0.00000000E+00  1.00000000E+00  0.00000000E+00  0.00000000E+00
  0.00000000E+00  0.00000000E+00  0.00000000E+00  0.00000000E+00  0.00000000E+00
  0.00000000E+00  0.00000000E+00  0.00000000E+00  1.00000000E+00  1.00000000E+00
MxBond                                     I                4
NBond                                      I   N=          15
           4           1           1           1           3           3
           3           3           3           3           1           1
           1           1           1
IBond                                      I   N=          60
           2           3           4           5           1           0
           0           0           1           0           0           0
           1           0           0           0           1           6
           7           0           5           8          11           0
           5           9          12           0           6          10
          13           0           7          10          14           0
           8           9          15           0           6           0
           0           0           7           0           0           0
           8           0           0           0           9           0
           0           0          10           0           0           0
RBond                                      R   N=          60
  2.00000000E+00  2.00000000E+00  2.00000000E+00  1.00000000E+00  2.00000000E+00
  0.00000000E+00  0.00000000E+00  0.00000000E+00  2.00000000E+00  0.00000000E+00
  0.00000000E+00  0.00000000E+00  2.00000000E+00  0.00000000E+00  0.00000000E+00
  0.00000000E+00  1.00000000E+00  1.50000000E+00  1.50000000E+00  0.00000000E+00
  1.50000000E+00  1.50000000E+00  1.00000000E+00  0.00000000E+00  1.50000000E+00
  1.50000000E+00  1.00000000E+00  0.00000000E+00  1.50000000E+00  1.50000000E+00
  1.00000000E+00  0.00000000E+00  1.50000000E+00  1.50000000E+00  1.00000000E+00
  0.00000000E+00  1.50000000E+00  1.50000000E+00  1.00000000E+00  0.00000000E+00
  1.00000000E+00  0.00000000E+00  0.00000000E+00  0.00000000E+00  1.00000000E+00
  0.00000000E+00  0.00000000E+00  0.00000000E+00  1.00000000E+00  0.00000000E+00
  0.00000000E+00  0.00000000E+00  1.00000000E+00  0.00000000E+00  0.00000000E+00
  0.00000000E+00  1.00000000E+00  0.00000000E+00  0.00000000E+00  0.00000000E+00
Virial Ratio                               R      2.002196268046596E+00
SCF Energy                                 R     -8.522990359526393E+02
MP2 Energy                                 R     -8.537418318805334E+02
Total Energy                               R     -8.537418318805334E+02
Post-SCF wavefunction norm                 R      1.724435608398240E+00
RMS Force                                  R      5.858888764991441E-06
RMS Density                                R      1.259392784825477E-09
External E-field                           R   N=          35
  0.00000000E+00  0.00000000E+00  0.00000000E+00  0.00000000E+00  0.00000000E+00
  0.00000000E+00  0.00000000E+00  0.00000000E+00  0.00000000E+00  0.00000000E+00
  0.00000000E+00  0.00000000E+00  0.00000000E+00  0.00000000E+00  0.00000000E+00
  0.00000000E+00  0.00000000E+00  0.00000000E+00  0.00000000E+00  0.00000000E+00
  0.00000000E+00  0.00000000E+00  0.00000000E+00  0.00000000E+00  0.00000000E+00
  0.00000000E+00  0.00000000E+00  0.00000000E+00  0.00000000E+00  0.00000000E+00
  0.00000000E+00  0.00000000E+00  0.00000000E+00  0.00000000E+00  0.00000000E+00
IOpCl                                      I                0
IROHF                                      I                0
Alpha Orbital Energies                     R   N=         164
 -9.21810727E+01 -2.05175626E+01 -2.05170586E+01 -2.05157932E+01 -1.12563359E+01
 -1.12469954E+01 -1.12466514E+01 -1.12446924E+01 -1.12417152E+01 -1.12414599E+01
 -9.14726594E+00 -6.83352733E+00 -6.83345143E+00 -6.83300818E+00 -1.43153659E+00
 -1.28501461E+00 -1.28277187E+00 -1.15634738E+00 -1.02953870E+00 -1.01866129E+00
 -8.67929633E-01 -8.30127733E-01 -7.76401238E-01 -7.08576955E-01 -6.57267380E-01
 -6.39303346E-01 -6.25620159E-01 -6.16241464E-01 -6.09216632E-01 -5.90166358E-01
 -5.26837195E-01 -5.13686586E-01 -4.99332978E-01 -4.88755028E-01 -4.88111363E-01
 -4.48282331E-01 -4.44412857E-01 -4.23612477E-01 -4.03722566E-01 -3.40239539E-01
 -3.39389313E-01  1.22778153E-01  1.36078822E-01  2.38798661E-01  2.96551852E-01
  3.01000225E-01  3.18368132E-01  3.19307424E-01  3.31126712E-01  3.41775447E-01
  3.70941668E-01  3.73885723E-01  3.93856376E-01  4.56501689E-01  4.72628909E-01
  4.88441014E-01  4.95348859E-01  5.42117403E-01  5.56027472E-01  6.12779201E-01
  6.23460959E-01  7.12097920E-01  7.29986903E-01  7.53739337E-01  7.85132227E-01
  8.00649265E-01  8.04859255E-01  8.20325455E-01  8.32917190E-01  8.37617452E-01
  8.55449948E-01  8.57506298E-01  8.99910489E-01  9.04941210E-01  9.63160919E-01
  1.01014186E+00  1.04930119E+00  1.05406383E+00  1.06191689E+00  1.07456085E+00
  1.09090561E+00  1.10998915E+00  1.11306094E+00  1.15033807E+00  1.15276274E+00
  1.16350401E+00  1.19372965E+00  1.20855106E+00  1.24557168E+00  1.27514402E+00
  1.30898922E+00  1.31146919E+00  1.34145644E+00  1.34459699E+00  1.36570871E+00
  1.37170718E+00  1.39503004E+00  1.43184580E+00  1.43829948E+00  1.49693106E+00
  1.53086009E+00  1.54021912E+00  1.56519463E+00  1.59592382E+00  1.65038314E+00
  1.69189656E+00  1.69431942E+00  1.74557007E+00  1.75787557E+00  1.77406643E+00
  1.78512855E+00  1.79151810E+00  1.86608078E+00  1.91887772E+00  2.06276884E+00
  2.07313116E+00  2.09600307E+00  2.11044197E+00  2.13385187E+00  2.14852437E+00
  2.15628002E+00  2.16368321E+00  2.18251165E+00  2.20423358E+00  2.25142569E+00
  2.29012742E+00  2.29509189E+00  2.30552480E+00  2.32220169E+00  2.40959818E+00
  2.43554790E+00  2.45016952E+00  2.45548757E+00  2.47033342E+00  2.48754991E+00
  2.50834090E+00  2.61639744E+00  2.62400044E+00  2.62978345E+00  2.66591634E+00
  2.68421281E+00  2.86654010E+00  2.91291525E+00  2.98364881E+00  2.99259055E+00
  3.04982087E+00  3.07219703E+00  3.09310195E+00  3.09948734E+00  3.11127534E+00
  3.20097730E+00  3.20865147E+00  3.40521212E+00  3.75036863E+00  4.21957384E+00
  4.25260116E+00  4.37576520E+00  4.49379958E+00  4.51060785E+00  4.53308022E+00
  4.58189424E+00  4.74612248E+00  4.77678377E+00  5.09344063E+00
Alpha MO coefficients                      R   N=       26896
  9.96272023E-01  1.42085553E-02  1.19039625E-05  7.43531029E-07 -3.23583096E-06
 -1.99004090E-02 -1.01869812E-04 -5.38503263E-06  2.66308384E-05  1.05636658E-03
 -7.27692091E-05 -1.53397389E-05  9.32319826E-05  6.86382070E-03  6.90045824E-03
  6.91235536E-03 -4.42213436E-07  1.49692508E-06 -8.85493649E-08  1.21729078E-05
  7.67757714E-06 -8.59932473E-06 -4.86083511E-06  7.70884456E-05  3.24845599E-04
  2.78920346E-05  1.97005889E-05 -2.90513714E-04  1.77221546E-05  3.93095320E-05
 -1.21119131E-04 -3.62204518E-06  5.30726107E-05  1.16364416E-05 -1.91062150E-06
 -4.51374094E-05 -2.25831496E-05  7.43588300E-05 -3.58572923E-05  5.79789344E-04
  8.55634066E-05 -3.10098949E-04  1.39002477E-04 -2.86233118E-05 -1.25631997E-04
 -3.95875981E-05  4.86638236E-05 -2.13496426E-05  6.70847618E-05 -1.25298564E-07
 -3.84849940E-05 -2.06227090E-05 -6.88101292E-05 -4.45592174E-05  5.48201953E-04
  7.76294491E-05  2.86116900E-04  1.72429921E-04 -2.32584638E-05 -1.04451968E-04
 -4.96113181E-05 -4.60146017E-05 -2.73860557E-05 -7.86091501E-05  3.59990186E-06
  6.58435174E-05  2.04622574E-06 -1.03269411E-06  2.29323172E-06 -1.03310183E-04
 -1.05559372E-03  1.95964315E-05 -9.32355988E-06 -3.42304577E-05  3.03020716E-05
 -1.65514365E-05  1.72960182E-08 -4.73121317E-07  1.26960367E-08 -5.34402559E-06
 -1.44643782E-05 -8.26207534E-07  7.65241883E-08 -1.00929754E-06  5.29561016E-04
  3.97528501E-04  3.24782731E-04  4.16156514E-06 -3.21178641E-05  1.27646512E-05
 -2.05710808E-05  2.85952276E-05 -8.43345070E-07 -1.83456022E-06 -5.51649853E-06
 -1.45481199E-05 -2.23431445E-06  1.33375561E-06 -1.04890611E-06  5.28399535E-04
  4.30597096E-04 -3.25994021E-04  4.69808695E-06 -3.24323183E-05  1.19434486E-05
 -2.07551933E-05 -2.92175116E-05 -8.88331016E-07  1.85977026E-06 -9.09863741E-07
  2.39182475E-06  1.67996736E-05 -1.02351562E-05  1.44636839E-06 -4.34506244E-04
  1.29129154E-04 -7.10516862E-05  1.66921189E-06 -2.90721742E-07 -4.13500061E-06
 -8.60723200E-06  4.09675712E-06 -1.69815083E-07 -2.48561072E-07 -5.89854953E-07
  3.97340913E-06  1.70623507E-05  1.00040404E-05  1.42426256E-06 -4.55407580E-04
  1.49957213E-04  6.97293520E-05  1.79887668E-06 -8.17309356E-07 -3.55630593E-06
 -7.82469606E-06 -4.63316240E-06 -1.67168183E-07  2.73357894E-07 -3.73055032E-06
 -1.47075704E-05  9.56942954E-06  3.75628999E-07  5.35966953E-07  1.83758702E-04
 -1.49755383E-04 -5.34755383E-06 -3.60954988E-06 -5.73109495E-06 -6.60875739E-07
 -9.72869745E-06  8.63089735E-08  2.02900170E-07  1.71229105E-08  2.66956022E-05
  1.10199652E-04  2.88761183E-05  1.19410089E-04  4.88851197E-06  2.21070005E-06
  5.08478702E-06 -6.23413111E-07  7.09189861E-06  4.20294475E-05  1.57530297E-05
 -6.82893689E-05  1.53788613E-05 -2.81268100E-05  1.26522242E-05  5.48474459E-04
 -1.44940801E-04  3.35608391E-04 -1.49686083E-04 -1.28132701E-04  1.28650049E-04
 -3.28429778E-04  1.89349416E-04 -1.28156076E-04 -6.46472728E-05 -1.07103125E-04
 -3.46821599E-05  1.38835609E-05 -3.77921088E-05 -6.14095881E-03 -8.68210820E-05
  8.20739590E-06 -2.28344312E-05  1.56514024E-05 -1.96574766E-04 -3.02778020E-05
  2.54326982E-05  4.31081430E-05  5.24926723E-05  3.55194623E-05  2.67217496E-05
 -1.34641289E-06 -4.11480383E-06  2.92919003E-05  9.94436568E-01  2.09587888E-02
  3.42678879E-04 -1.08114461E-03  5.28391257E-04  4.06642529E-03 -1.24389486E-04
  4.21302138E-04 -2.03279995E-04 -3.94879824E-03 -4.06776549E-03 -3.96382183E-03
  4.82664091E-05 -2.24448341E-05  7.94897450E-05 -2.13646106E-02 -4.32555665E-04
 -2.65987897E-06 -4.39904155E-05 -2.99255288E-06 -1.43294891E-04 -4.88130076E-06
  1.10235659E-05 -3.33650173E-05  9.50891647E-05  4.94226849E-05  9.39377838E-05
  5.58938528E-06  6.20295474E-06  6.94988598E-06  1.86067355E-07  1.54143844E-05
  2.85763644E-05 -1.33110108E-05  7.72261362E-06  7.28236114E-05 -7.09195474E-06