10975657                                                                
Freq      RMP2-FC                                                     6-31G(d)            
Number of atoms                            I               20
Info1-9                                    I   N=           9
          32          30        1002           0           0         100
           6           2           1
Charge                                     I                0
Multiplicity                               I                1
Number of electrons                        I               80
Number of alpha electrons                  I               40
Number of beta electrons                   I               40
Number of basis functions                  I              170
Number of independent functions            I              170
Number of point charges in /Mol/           I                0
Number of translation vectors              I                0
Atomic numbers                             I   N=          20
           8           8           8           8           8           6
           6           6           6           6           1           1
           1           1           1           1           1           1
           1           1
Nuclear charges                            R   N=          20
  8.00000000E+00  8.00000000E+00  8.00000000E+00  8.00000000E+00  8.00000000E+00
  6.00000000E+00  6.00000000E+00  6.00000000E+00  6.00000000E+00  6.00000000E+00
  1.00000000E+00  1.00000000E+00  1.00000000E+00  1.00000000E+00  1.00000000E+00
  1.00000000E+00  1.00000000E+00  1.00000000E+00  1.00000000E+00  1.00000000E+00
Current cartesian coordinates              R   N=          60
 -4.42923596E-01  3.39742500E+00 -7.83330623E-01  9.05442300E-01 -2.62682510E+00
  1.86161852E+00 -3.57206408E+00 -2.79655268E+00 -7.70935188E-01  5.19471536E+00
 -5.65153607E-01  1.59427112E-01 -3.16836480E+00  1.29427885E+00  2.04034566E+00
  8.99307209E-01 -1.86542710E+00 -7.25553194E-01 -1.72968744E+00 -9.75159860E-01
 -1.53307718E+00  2.86265953E+00  2.27809563E-01 -9.09186186E-01 -2.41774963E+00
  1.64504185E+00 -5.15054550E-01  1.87365066E+00  2.58761603E+00  4.01470494E-01
  1.46121611E+00 -3.46768180E+00 -1.92741895E+00 -1.77025950E+00 -8.57877785E-01
 -3.60230287E+00  3.22415255E+00  6.70982097E-01 -2.89939332E+00 -3.98273683E+00
  2.44636505E+00 -1.61428657E+00  1.57484686E+00  2.21873733E+00  2.41448710E+00
  3.19527320E+00  4.15415538E+00  1.76350144E-01 -5.07270944E-01 -3.79794820E+00
  2.02977833E+00 -4.32887265E+00 -2.08782002E+00  7.58057432E-01  4.72468960E+00
 -1.52104953E+00  1.66668257E+00 -3.85456178E+00  2.89747487E+00  2.62944602E+00
Force Field                                I                0
Int Atom Types                             I   N=          20
           0           0           0           0           0           0
           0           0           0           0           0           0
           0           0           0           0           0           0
           0           0
MM charges                                 R   N=          20
  0.00000000E+00  0.00000000E+00  0.00000000E+00  0.00000000E+00  0.00000000E+00
  0.00000000E+00  0.00000000E+00  0.00000000E+00  0.00000000E+00  0.00000000E+00
  0.00000000E+00  0.00000000E+00  0.00000000E+00  0.00000000E+00  0.00000000E+00
  0.00000000E+00  0.00000000E+00  0.00000000E+00  0.00000000E+00  0.00000000E+00
Integer atomic weights                     I   N=          20
          16          16          16          16          16          12
          12          12          12          12           1           1
           1           1           1           1           1           1
           1           1
Real atomic weights                        R   N=          20
  1.59949146E+01  1.59949146E+01  1.59949146E+01  1.59949146E+01  1.59949146E+01
  1.20000000E+01  1.20000000E+01  1.20000000E+01  1.20000000E+01  1.20000000E+01
  1.00782504E+00  1.00782504E+00  1.00782504E+00  1.00782504E+00  1.00782504E+00
  1.00782504E+00  1.00782504E+00  1.00782504E+00  1.00782504E+00  1.00782504E+00
Atom fragment info                         I   N=          20
           0           0           0           0           0           0
           0           0           0           0           0           0
           0           0           0           0           0           0
           0           0
Atom residue num                           I   N=          20
           0           0           0           0           0           0
           0           0           0           0           0           0
           0           0           0           0           0           0
           0           0
Nuclear spins                              I   N=          20
           0           0           0           0           0           0
           0           0           0           0           1           1
           1           1           1           1           1           1
           1           1
Nuclear ZEff                               R   N=          20
 -5.60000000E+00 -5.60000000E+00 -5.60000000E+00 -5.60000000E+00 -5.60000000E+00
 -3.60000000E+00 -3.60000000E+00 -3.60000000E+00 -3.60000000E+00 -3.60000000E+00
 -1.00000000E+00 -1.00000000E+00 -1.00000000E+00 -1.00000000E+00 -1.00000000E+00
 -1.00000000E+00 -1.00000000E+00 -1.00000000E+00 -1.00000000E+00 -1.00000000E+00
Nuclear QMom                               R   N=          20
  0.00000000E+00  0.00000000E+00  0.00000000E+00  0.00000000E+00  0.00000000E+00
  0.00000000E+00  0.00000000E+00  0.00000000E+00  0.00000000E+00  0.00000000E+00
  0.00000000E+00  0.00000000E+00  0.00000000E+00  0.00000000E+00  0.00000000E+00
  0.00000000E+00  0.00000000E+00  0.00000000E+00  0.00000000E+00  0.00000000E+00
Nuclear GFac                               R   N=          20
  0.00000000E+00  0.00000000E+00  0.00000000E+00  0.00000000E+00  0.00000000E+00
  0.00000000E+00  0.00000000E+00  0.00000000E+00  0.00000000E+00  0.00000000E+00
  2.79284600E+00  2.79284600E+00  2.79284600E+00  2.79284600E+00  2.79284600E+00
  2.79284600E+00  2.79284600E+00  2.79284600E+00  2.79284600E+00  2.79284600E+00
MicOpt                                     I   N=          20
          -1          -1          -1          -1          -1          -1
          -1          -1          -1          -1          -1          -1
          -1          -1          -1          -1          -1          -1
          -1          -1
Number of contracted shells                I               60
Number of primitive shells                 I              150
Pure/Cartesian d shells                    I                1
Pure/Cartesian f shells                    I                0
Highest angular momentum                   I                2
Largest degree of contraction              I                6
Shell types                                I   N=          60
           0          -1          -1           2           0          -1
          -1           2           0          -1          -1           2
           0          -1          -1           2           0          -1
          -1           2           0          -1          -1           2
           0          -1          -1           2           0          -1
          -1           2           0          -1          -1           2
           0          -1          -1           2           0           0
           0           0           0           0           0           0
           0           0           0           0           0           0
           0           0           0           0           0           0
Number of primitives per shell             I   N=          60
           6           3           1           1           6           3
           1           1           6           3           1           1
           6           3           1           1           6           3
           1           1           6           3           1           1
           6           3           1           1           6           3
           1           1           6           3           1           1
           6           3           1           1           3           1
           3           1           3           1           3           1
           3           1           3           1           3           1
           3           1           3           1           3           1
Shell to atom map                          I   N=          60
           1           1           1           1           2           2
           2           2           3           3           3           3
           4           4           4           4           5           5
           5           5           6           6           6           6
           7           7           7           7           8           8
           8           8           9           9           9           9
          10          10          10          10          11          11
          12          12          13          13          14          14
          15          15          16          16          17          17
          18          18          19          19          20          20
Primitive exponents                        R   N=         150
  5.48467166E+03  8.25234946E+02  1.88046958E+02  5.29645000E+01  1.68975704E+01
  5.79963534E+00  1.55396162E+01  3.59993359E+00  1.01376175E+00  2.70005823E-01
  8.00000000E-01  5.48467166E+03  8.25234946E+02  1.88046958E+02  5.29645000E+01
  1.68975704E+01  5.79963534E+00  1.55396162E+01  3.59993359E+00  1.01376175E+00
  2.70005823E-01  8.00000000E-01  5.48467166E+03  8.25234946E+02  1.88046958E+02
  5.29645000E+01  1.68975704E+01  5.79963534E+00  1.55396162E+01  3.59993359E+00
  1.01376175E+00  2.70005823E-01  8.00000000E-01  5.48467166E+03  8.25234946E+02
  1.88046958E+02  5.29645000E+01  1.68975704E+01  5.79963534E+00  1.55396162E+01
  3.59993359E+00  1.01376175E+00  2.70005823E-01  8.00000000E-01  5.48467166E+03
  8.25234946E+02  1.88046958E+02  5.29645000E+01  1.68975704E+01  5.79963534E+00
  1.55396162E+01  3.59993359E+00  1.01376175E+00  2.70005823E-01  8.00000000E-01
  3.04752488E+03  4.57369518E+02  1.03948685E+02  2.92101553E+01  9.28666296E+00
  3.16392696E+00  7.86827235E+00  1.88128854E+00  5.44249258E-01  1.68714478E-01
  8.00000000E-01  3.04752488E+03  4.57369518E+02  1.03948685E+02  2.92101553E+01
  9.28666296E+00  3.16392696E+00  7.86827235E+00  1.88128854E+00  5.44249258E-01
  1.68714478E-01  8.00000000E-01  3.04752488E+03  4.57369518E+02  1.03948685E+02
  2.92101553E+01  9.28666296E+00  3.16392696E+00  7.86827235E+00  1.88128854E+00
  5.44249258E-01  1.68714478E-01  8.00000000E-01  3.04752488E+03  4.57369518E+02
  1.03948685E+02  2.92101553E+01  9.28666296E+00  3.16392696E+00  7.86827235E+00
  1.88128854E+00  5.44249258E-01  1.68714478E-01  8.00000000E-01  3.04752488E+03
  4.57369518E+02  1.03948685E+02  2.92101553E+01  9.28666296E+00  3.16392696E+00
  7.86827235E+00  1.88128854E+00  5.44249258E-01  1.68714478E-01  8.00000000E-01
  1.87311370E+01  2.82539436E+00  6.40121692E-01  1.61277759E-01  1.87311370E+01
  2.82539436E+00  6.40121692E-01  1.61277759E-01  1.87311370E+01  2.82539436E+00
  6.40121692E-01  1.61277759E-01  1.87311370E+01  2.82539436E+00  6.40121692E-01
  1.61277759E-01  1.87311370E+01  2.82539436E+00  6.40121692E-01  1.61277759E-01
  1.87311370E+01  2.82539436E+00  6.40121692E-01  1.61277759E-01  1.87311370E+01
  2.82539436E+00  6.40121692E-01  1.61277759E-01  1.87311370E+01  2.82539436E+00
  6.40121692E-01  1.61277759E-01  1.87311370E+01  2.82539436E+00  6.40121692E-01
  1.61277759E-01  1.87311370E+01  2.82539436E+00  6.40121692E-01  1.61277759E-01
Contraction coefficients                   R   N=         150
  1.83107443E-03  1.39501722E-02  6.84450781E-02  2.32714336E-01  4.70192898E-01
  3.58520853E-01 -1.10777550E-01 -1.48026263E-01  1.13076702E+00  1.00000000E+00
  1.00000000E+00  1.83107443E-03  1.39501722E-02  6.84450781E-02  2.32714336E-01
  4.70192898E-01  3.58520853E-01 -1.10777550E-01 -1.48026263E-01  1.13076702E+00
  1.00000000E+00  1.00000000E+00  1.83107443E-03  1.39501722E-02  6.84450781E-02
  2.32714336E-01  4.70192898E-01  3.58520853E-01 -1.10777550E-01 -1.48026263E-01
  1.13076702E+00  1.00000000E+00  1.00000000E+00  1.83107443E-03  1.39501722E-02
  6.84450781E-02  2.32714336E-01  4.70192898E-01  3.58520853E-01 -1.10777550E-01
 -1.48026263E-01  1.13076702E+00  1.00000000E+00  1.00000000E+00  1.83107443E-03
  1.39501722E-02  6.84450781E-02  2.32714336E-01  4.70192898E-01  3.58520853E-01
 -1.10777550E-01 -1.48026263E-01  1.13076702E+00  1.00000000E+00  1.00000000E+00
  1.83473713E-03  1.40373228E-02  6.88426223E-02  2.32184443E-01  4.67941348E-01
  3.62311985E-01 -1.19332420E-01 -1.60854152E-01  1.14345644E+00  1.00000000E+00
  1.00000000E+00  1.83473713E-03  1.40373228E-02  6.88426223E-02  2.32184443E-01
  4.67941348E-01  3.62311985E-01 -1.19332420E-01 -1.60854152E-01  1.14345644E+00
  1.00000000E+00  1.00000000E+00  1.83473713E-03  1.40373228E-02  6.88426223E-02
  2.32184443E-01  4.67941348E-01  3.62311985E-01 -1.19332420E-01 -1.60854152E-01
  1.14345644E+00  1.00000000E+00  1.00000000E+00  1.83473713E-03  1.40373228E-02
  6.88426223E-02  2.32184443E-01  4.67941348E-01  3.62311985E-01 -1.19332420E-01
 -1.60854152E-01  1.14345644E+00  1.00000000E+00  1.00000000E+00  1.83473713E-03
  1.40373228E-02  6.88426223E-02  2.32184443E-01  4.67941348E-01  3.62311985E-01
 -1.19332420E-01 -1.60854152E-01  1.14345644E+00  1.00000000E+00  1.00000000E+00
  3.34946043E-02  2.34726953E-01  8.13757326E-01  1.00000000E+00  3.34946043E-02
  2.34726953E-01  8.13757326E-01  1.00000000E+00  3.34946043E-02  2.34726953E-01
  8.13757326E-01  1.00000000E+00  3.34946043E-02  2.34726953E-01  8.13757326E-01
  1.00000000E+00  3.34946043E-02  2.34726953E-01  8.13757326E-01  1.00000000E+00
  3.34946043E-02  2.34726953E-01  8.13757326E-01  1.00000000E+00  3.34946043E-02
  2.34726953E-01  8.13757326E-01  1.00000000E+00  3.34946043E-02  2.34726953E-01
  8.13757326E-01  1.00000000E+00  3.34946043E-02  2.34726953E-01  8.13757326E-01
  1.00000000E+00  3.34946043E-02  2.34726953E-01  8.13757326E-01  1.00000000E+00
P(S=P) Contraction coefficients            R   N=         150
  0.00000000E+00  0.00000000E+00  0.00000000E+00  0.00000000E+00  0.00000000E+00
  0.00000000E+00  7.08742682E-02  3.39752839E-01  7.27158577E-01  1.00000000E+00
  0.00000000E+00  0.00000000E+00  0.00000000E+00  0.00000000E+00  0.00000000E+00
  0.00000000E+00  0.00000000E+00  7.08742682E-02  3.39752839E-01  7.27158577E-01
  1.00000000E+00  0.00000000E+00  0.00000000E+00  0.00000000E+00  0.00000000E+00
  0.00000000E+00  0.00000000E+00  0.00000000E+00  7.08742682E-02  3.39752839E-01
  7.27158577E-01  1.00000000E+00  0.00000000E+00  0.00000000E+00  0.00000000E+00
  0.00000000E+00  0.00000000E+00  0.00000000E+00  0.00000000E+00  7.08742682E-02
  3.39752839E-01  7.27158577E-01  1.00000000E+00  0.00000000E+00  0.00000000E+00
  0.00000000E+00  0.00000000E+00  0.00000000E+00  0.00000000E+00  0.00000000E+00
  7.08742682E-02  3.39752839E-01  7.27158577E-01  1.00000000E+00  0.00000000E+00
  0.00000000E+00  0.00000000E+00  0.00000000E+00  0.00000000E+00  0.00000000E+00
  0.00000000E+00  6.89990666E-02  3.16423961E-01  7.44308291E-01  1.00000000E+00
  0.00000000E+00  0.00000000E+00  0.00000000E+00  0.00000000E+00  0.00000000E+00
  0.00000000E+00  0.00000000E+00  6.89990666E-02  3.16423961E-01  7.44308291E-01
  1.00000000E+00  0.00000000E+00  0.00000000E+00  0.00000000E+00  0.00000000E+00
  0.00000000E+00  0.00000000E+00  0.00000000E+00  6.89990666E-02  3.16423961E-01
  7.44308291E-01  1.00000000E+00  0.00000000E+00  0.00000000E+00  0.00000000E+00
  0.00000000E+00  0.00000000E+00  0.00000000E+00  0.00000000E+00  6.89990666E-02
  3.16423961E-01  7.44308291E-01  1.00000000E+00  0.00000000E+00  0.00000000E+00
  0.00000000E+00  0.00000000E+00  0.00000000E+00  0.00000000E+00  0.00000000E+00
  6.89990666E-02  3.16423961E-01  7.44308291E-01  1.00000000E+00  0.00000000E+00
  0.00000000E+00  0.00000000E+00  0.00000000E+00  0.00000000E+00  0.00000000E+00
  0.00000000E+00  0.00000000E+00  0.00000000E+00  0.00000000E+00  0.00000000E+00
  0.00000000E+00  0.00000000E+00  0.00000000E+00  0.00000000E+00  0.00000000E+00
  0.00000000E+00  0.00000000E+00  0.00000000E+00  0.00000000E+00  0.00000000E+00
  0.00000000E+00  0.00000000E+00  0.00000000E+00  0.00000000E+00  0.00000000E+00
  0.00000000E+00  0.00000000E+00  0.00000000E+00  0.00000000E+00  0.00000000E+00
  0.00000000E+00  0.00000000E+00  0.00000000E+00  0.00000000E+00  0.00000000E+00
  0.00000000E+00  0.00000000E+00  0.00000000E+00  0.00000000E+00  0.00000000E+00
Coordinates of each shell                  R   N=         180
 -4.42923596E-01  3.39742500E+00 -7.83330623E-01 -4.42923596E-01  3.39742500E+00
 -7.83330623E-01 -4.42923596E-01  3.39742500E+00 -7.83330623E-01 -4.42923596E-01
  3.39742500E+00 -7.83330623E-01  9.05442300E-01 -2.62682510E+00  1.86161852E+00
  9.05442300E-01 -2.62682510E+00  1.86161852E+00  9.05442300E-01 -2.62682510E+00
  1.86161852E+00  9.05442300E-01 -2.62682510E+00  1.86161852E+00 -3.57206408E+00
 -2.79655268E+00 -7.70935188E-01 -3.57206408E+00 -2.79655268E+00 -7.70935188E-01
 -3.57206408E+00 -2.79655268E+00 -7.70935188E-01 -3.57206408E+00 -2.79655268E+00
 -7.70935188E-01  5.19471536E+00 -5.65153607E-01  1.59427112E-01  5.19471536E+00
 -5.65153607E-01  1.59427112E-01  5.19471536E+00 -5.65153607E-01  1.59427112E-01
  5.19471536E+00 -5.65153607E-01  1.59427112E-01 -3.16836480E+00  1.29427885E+00
  2.04034566E+00 -3.16836480E+00  1.29427885E+00  2.04034566E+00 -3.16836480E+00
  1.29427885E+00  2.04034566E+00 -3.16836480E+00  1.29427885E+00  2.04034566E+00
  8.99307209E-01 -1.86542710E+00 -7.25553194E-01  8.99307209E-01 -1.86542710E+00
 -7.25553194E-01  8.99307209E-01 -1.86542710E+00 -7.25553194E-01  8.99307209E-01
 -1.86542710E+00 -7.25553194E-01 -1.72968744E+00 -9.75159860E-01 -1.53307718E+00
 -1.72968744E+00 -9.75159860E-01 -1.53307718E+00 -1.72968744E+00 -9.75159860E-01
 -1.53307718E+00 -1.72968744E+00 -9.75159860E-01 -1.53307718E+00  2.86265953E+00
  2.27809563E-01 -9.09186186E-01  2.86265953E+00  2.27809563E-01 -9.09186186E-01
  2.86265953E+00  2.27809563E-01 -9.09186186E-01  2.86265953E+00  2.27809563E-01
 -9.09186186E-01 -2.41774963E+00  1.64504185E+00 -5.15054550E-01 -2.41774963E+00
  1.64504185E+00 -5.15054550E-01 -2.41774963E+00  1.64504185E+00 -5.15054550E-01
 -2.41774963E+00  1.64504185E+00 -5.15054550E-01  1.87365066E+00  2.58761603E+00
  4.01470494E-01  1.87365066E+00  2.58761603E+00  4.01470494E-01  1.87365066E+00
  2.58761603E+00  4.01470494E-01  1.87365066E+00  2.58761603E+00  4.01470494E-01
  1.46121611E+00 -3.46768180E+00 -1.92741895E+00  1.46121611E+00 -3.46768180E+00
 -1.92741895E+00 -1.77025950E+00 -8.57877785E-01 -3.60230287E+00 -1.77025950E+00
 -8.57877785E-01 -3.60230287E+00  3.22415255E+00  6.70982097E-01 -2.89939332E+00
  3.22415255E+00  6.70982097E-01 -2.89939332E+00 -3.98273683E+00  2.44636505E+00
 -1.61428657E+00 -3.98273683E+00  2.44636505E+00 -1.61428657E+00  1.57484686E+00
  2.21873733E+00  2.41448710E+00  1.57484686E+00  2.21873733E+00  2.41448710E+00
  3.19527320E+00  4.15415538E+00  1.76350144E-01  3.19527320E+00  4.15415538E+00
  1.76350144E-01 -5.07270944E-01 -3.79794820E+00  2.02977833E+00 -5.07270944E-01
 -3.79794820E+00  2.02977833E+00 -4.32887265E+00 -2.08782002E+00  7.58057432E-01
 -4.32887265E+00 -2.08782002E+00  7.58057432E-01  4.72468960E+00 -1.52104953E+00
  1.66668257E+00  4.72468960E+00 -1.52104953E+00  1.66668257E+00 -3.85456178E+00
  2.89747487E+00  2.62944602E+00 -3.85456178E+00  2.89747487E+00  2.62944602E+00
Constraint Structure                       R   N=          60
 -4.42923596E-01  3.39742500E+00 -7.83330623E-01  9.05442300E-01 -2.62682510E+00
  1.86161852E+00 -3.57206408E+00 -2.79655268E+00 -7.70935188E-01  5.19471536E+00
 -5.65153607E-01  1.59427112E-01 -3.16836480E+00  1.29427885E+00  2.04034566E+00
  8.99307209E-01 -1.86542710E+00 -7.25553194E-01 -1.72968744E+00 -9.75159860E-01
 -1.53307718E+00  2.86265953E+00  2.27809563E-01 -9.09186186E-01 -2.41774963E+00
  1.64504185E+00 -5.15054550E-01  1.87365066E+00  2.58761603E+00  4.01470494E-01
  1.46121611E+00 -3.46768180E+00 -1.92741895E+00 -1.77025950E+00 -8.57877785E-01
 -3.60230287E+00  3.22415255E+00  6.70982097E-01 -2.89939332E+00 -3.98273683E+00
  2.44636505E+00 -1.61428657E+00  1.57484686E+00  2.21873733E+00  2.41448710E+00
  3.19527320E+00  4.15415538E+00  1.76350144E-01 -5.07270944E-01 -3.79794820E+00
  2.02977833E+00 -4.32887265E+00 -2.08782002E+00  7.58057432E-01  4.72468960E+00
 -1.52104953E+00  1.66668257E+00 -3.85456178E+00  2.89747487E+00  2.62944602E+00
Num ILSW                                   I              100
ILSW                                       I   N=         100
           0           1           0           0           2           0
           0           0           0           0           0          -1
           0           0           0           0           0           0
           0           0           0           0           1           0
           1           0           0           0           0           0
           0           0      100000           0          -1           0
           0           0           0           0           0           0
           0           0           0           1           1           0
           0           0           1           0           0           0
           0           0           4          40           0           0
           0           0           0           0           0           0
           0           0           0           0           0           0
           0           0           0           0           0           0
           0           0           0           0           0           0
           0           0           0           0           0           0
           0           0           0           0           0           0
           0           0           0           0
Num RLSW                                   I               40
RLSW                                       R   N=          40
  1.00000000E+00  1.00000000E+00  1.00000000E+00  1.00000000E+00  1.00000000E+00
  0.00000000E+00  0.00000000E+00  1.00000000E+00  0.00000000E+00  0.00000000E+00
  0.00000000E+00  0.00000000E+00  1.00000000E+00  0.00000000E+00  0.00000000E+00
  0.00000000E+00  0.00000000E+00  1.00000000E+00  0.00000000E+00  0.00000000E+00
  0.00000000E+00  0.00000000E+00  1.00000000E+00  0.00000000E+00  0.00000000E+00
  0.00000000E+00  0.00000000E+00  1.00000000E+00  0.00000000E+00  0.00000000E+00
  0.00000000E+00  0.00000000E+00  0.00000000E+00  0.00000000E+00  0.00000000E+00
  0.00000000E+00  0.00000000E+00  0.00000000E+00  1.00000000E+00  1.00000000E+00
MxBond                                     I                4
NBond                                      I   N=          20
           2           2           2           2           2           4
           4           4           4           4           1           1
           1           1           1           1           1           1
           1           1
IBond                                      I   N=          80
           9          10           0           0           6          17
           0           0           7          18           0           0
           8          19           0           0           9          20
           0           0           2           7           8          11
           3           6           9          12           4           6
          10          13           1           5           7          14
           1           8          15          16           6           0
           0           0           7           0           0           0
           8           0           0           0           9           0
           0           0          10           0           0           0
          10           0           0           0           2           0
           0           0           3           0           0           0
           4           0           0           0           5           0
           0           0
RBond                                      R   N=          80
  1.00000000E+00  1.00000000E+00  0.00000000E+00  0.00000000E+00  1.00000000E+00
  1.00000000E+00  0.00000000E+00  0.00000000E+00  1.00000000E+00  1.00000000E+00
  0.00000000E+00  0.00000000E+00  1.00000000E+00  1.00000000E+00  0.00000000E+00
  0.00000000E+00  1.00000000E+00  1.00000000E+00  0.00000000E+00  0.00000000E+00
  1.00000000E+00  1.00000000E+00  1.00000000E+00  1.00000000E+00  1.00000000E+00
  1.00000000E+00  1.00000000E+00  1.00000000E+00  1.00000000E+00  1.00000000E+00
  1.00000000E+00  1.00000000E+00  1.00000000E+00  1.00000000E+00  1.00000000E+00
  1.00000000E+00  1.00000000E+00  1.00000000E+00  1.00000000E+00  1.00000000E+00
  1.00000000E+00  0.00000000E+00  0.00000000E+00  0.00000000E+00  1.00000000E+00
  0.00000000E+00  0.00000000E+00  0.00000000E+00  1.00000000E+00  0.00000000E+00
  0.00000000E+00  0.00000000E+00  1.00000000E+00  0.00000000E+00  0.00000000E+00
  0.00000000E+00  1.00000000E+00  0.00000000E+00  0.00000000E+00  0.00000000E+00
  1.00000000E+00  0.00000000E+00  0.00000000E+00  0.00000000E+00  1.00000000E+00
  0.00000000E+00  0.00000000E+00  0.00000000E+00  1.00000000E+00  0.00000000E+00
  0.00000000E+00  0.00000000E+00  1.00000000E+00  0.00000000E+00  0.00000000E+00
  0.00000000E+00  1.00000000E+00  0.00000000E+00  0.00000000E+00  0.00000000E+00
Virial Ratio                               R      2.002607190668362E+00
SCF Energy                                 R     -5.694335417928576E+02
MP2 Energy                                 R     -5.709794038189908E+02
Total Energy                               R     -5.709794038189908E+02
Post-SCF wavefunction norm                 R      1.702627068759139E+00
RMS Force                                  R      8.365941530566528E-07
RMS Density                                R      1.458277565218148E-09
External E-field                           R   N=          35
  0.00000000E+00  0.00000000E+00  0.00000000E+00  0.00000000E+00  0.00000000E+00
  0.00000000E+00  0.00000000E+00  0.00000000E+00  0.00000000E+00  0.00000000E+00
  0.00000000E+00  0.00000000E+00  0.00000000E+00  0.00000000E+00  0.00000000E+00
  0.00000000E+00  0.00000000E+00  0.00000000E+00  0.00000000E+00  0.00000000E+00
  0.00000000E+00  0.00000000E+00  0.00000000E+00  0.00000000E+00  0.00000000E+00
  0.00000000E+00  0.00000000E+00  0.00000000E+00  0.00000000E+00  0.00000000E+00
  0.00000000E+00  0.00000000E+00  0.00000000E+00  0.00000000E+00  0.00000000E+00
IOpCl                                      I                0
IROHF                                      I                0
Alpha Orbital Energies                     R   N=         170
 -2.05978524E+01 -2.05851455E+01 -2.05787374E+01 -2.05744119E+01 -2.05596805E+01
 -1.13547831E+01 -1.12975435E+01 -1.12888465E+01 -1.12836653E+01 -1.12770130E+01
 -1.43548231E+00 -1.38678471E+00 -1.37133664E+00 -1.35035983E+00 -1.34213591E+00
 -1.05561889E+00 -1.02073065E+00 -8.96143622E-01 -8.67506073E-01 -7.94755505E-01
 -7.49552945E-01 -7.23812270E-01 -7.08868036E-01 -6.91964797E-01 -6.63650046E-01
 -6.43446092E-01 -6.16364385E-01 -6.09745142E-01 -5.97405859E-01 -5.80341593E-01
 -5.67767404E-01 -5.51748421E-01 -5.37396197E-01 -5.10750614E-01 -4.97829319E-01
 -4.85102061E-01 -4.81735357E-01 -4.66090556E-01 -4.34998500E-01 -4.10681992E-01
  1.95044055E-01  2.30600324E-01  2.36020865E-01  2.74646718E-01  2.83454094E-01
  2.92257734E-01  2.98863226E-01  3.13409619E-01  3.17814356E-01  3.37418080E-01
  3.47658743E-01  3.58918879E-01  3.80631754E-01  4.14005731E-01  4.30341934E-01
  4.50243490E-01  4.56485089E-01  5.07597479E-01  5.14060765E-01  5.48123835E-01
  7.49401714E-01  7.57419128E-01  7.72434815E-01  7.88740294E-01  8.05062258E-01
  8.30491979E-01  8.36961251E-01  8.62121016E-01  8.78722713E-01  8.85026569E-01
  9.31855787E-01  9.41326238E-01  9.60856279E-01  1.01157729E+00  1.03771388E+00
  1.05865020E+00  1.07622986E+00  1.09107358E+00  1.10027452E+00  1.11906237E+00
  1.12843549E+00  1.13296669E+00  1.14687287E+00  1.16569129E+00  1.18374631E+00
  1.19391830E+00  1.19786165E+00  1.21936948E+00  1.26090069E+00  1.28684510E+00
  1.31024617E+00  1.31753367E+00  1.34679656E+00  1.37627935E+00  1.40789578E+00
  1.42511309E+00  1.43037395E+00  1.47676974E+00  1.50830153E+00  1.52356904E+00
  1.54513098E+00  1.59298015E+00  1.60804460E+00  1.63561210E+00  1.68652593E+00
  1.70356220E+00  1.79613587E+00  1.79967966E+00  1.81403394E+00  1.84413864E+00
  1.88567390E+00  1.90853925E+00  1.95480793E+00  1.97647886E+00  1.98270861E+00
  1.99357128E+00  2.02937900E+00  2.04054095E+00  2.05566333E+00  2.09537074E+00
  2.11745207E+00  2.13288733E+00  2.16742679E+00  2.21380184E+00  2.25298232E+00
  2.29237900E+00  2.30544378E+00  2.32146148E+00  2.36138760E+00  2.40321373E+00
  2.44018301E+00  2.44543993E+00  2.46900211E+00  2.47982679E+00  2.49823614E+00
  2.52095684E+00  2.57423888E+00  2.58737983E+00  2.62759225E+00  2.69609091E+00
  2.72786319E+00  2.74735166E+00  2.77964031E+00  2.80542155E+00  2.82069869E+00
  2.85810580E+00  2.90034737E+00  2.91500762E+00  2.93134841E+00  2.97074926E+00
  3.02355387E+00  3.05192942E+00  3.11190539E+00  3.13592598E+00  3.20006761E+00
  3.26491479E+00  3.29410260E+00  3.30483355E+00  3.33199816E+00  3.38582163E+00
  4.16060149E+00  4.19233238E+00  4.28554957E+00  4.30384680E+00  4.48975532E+00
  4.71715445E+00  4.73743630E+00  4.97550513E+00  5.11125284E+00  5.18206162E+00
Alpha MO coefficients                      R   N=       28900
 -7.16195147E-04 -1.81589134E-06  2.63432789E-06  1.42147441E-05 -1.92926912E-05
 -7.36436239E-05  2.25628827E-04  9.08048737E-06 -4.16710570E-05 -2.50904200E-05
 -7.73634978E-06 -2.38208601E-05 -2.75180959E-05  4.23123463E-05  2.29159665E-05