2331                                                                    
Freq      RMP2-FC                                                     6-31G(d)            
Number of atoms                            I               16
Info1-9                                    I   N=           9
          28          26        1002           0           0         100
           6           2           1
Charge                                     I                0
Multiplicity                               I                1
Number of electrons                        I               64
Number of alpha electrons                  I               32
Number of beta electrons                   I               32
Number of basis functions                  I              149
Number of independent functions            I              149
Number of point charges in /Mol/           I                0
Number of translation vectors              I                0
Atomic numbers                             I   N=          16
           8           7           6           6           6           6
           6           6           6           1           1           1
           1           1           1           1
Nuclear charges                            R   N=          16
  8.00000000E+00  7.00000000E+00  6.00000000E+00  6.00000000E+00  6.00000000E+00
  6.00000000E+00  6.00000000E+00  6.00000000E+00  6.00000000E+00  1.00000000E+00
  1.00000000E+00  1.00000000E+00  1.00000000E+00  1.00000000E+00  1.00000000E+00
  1.00000000E+00
Current cartesian coordinates              R   N=          48
  4.33938390E+00 -2.20094405E+00 -7.10057394E-01  4.52084558E+00  1.92080870E+00
  5.65816980E-01  4.17120322E-01 -5.09321524E-02 -4.00006700E-02 -8.54766402E-01
  2.25016915E+00 -3.55964274E-01 -9.61902907E-01 -2.28527407E+00  2.84635425E-01
 -3.49133063E+00  2.31015538E+00 -3.13761567E-01 -3.59344661E+00 -2.21188042E+00
  3.41509950E-01 -4.86392949E+00  8.59836965E-02  5.08820292E-02  3.23799180E+00
 -2.49295873E-01 -8.32656107E-02  2.02714345E-01  3.97534855E+00 -7.15305602E-01
  6.28741856E-02 -4.05414016E+00  4.77147675E-01 -4.47577479E+00  4.09395824E+00
 -5.80851729E-01 -4.65917881E+00 -3.94812608E+00  6.09183864E-01 -6.91771772E+00
  1.39627527E-01  8.78895065E-02  3.67987305E+00  3.17251813E+00  1.73896374E+00
  6.40780292E+00  1.68915110E+00  7.98501136E-01
Force Field                                I                0
Int Atom Types                             I   N=          16
           0           0           0           0           0           0
           0           0           0           0           0           0
           0           0           0           0
MM charges                                 R   N=          16
  0.00000000E+00  0.00000000E+00  0.00000000E+00  0.00000000E+00  0.00000000E+00
  0.00000000E+00  0.00000000E+00  0.00000000E+00  0.00000000E+00  0.00000000E+00
  0.00000000E+00  0.00000000E+00  0.00000000E+00  0.00000000E+00  0.00000000E+00
  0.00000000E+00
Integer atomic weights                     I   N=          16
          16          14          12          12          12          12
          12          12          12           1           1           1
           1           1           1           1
Real atomic weights                        R   N=          16
  1.59949146E+01  1.40030740E+01  1.20000000E+01  1.20000000E+01  1.20000000E+01
  1.20000000E+01  1.20000000E+01  1.20000000E+01  1.20000000E+01  1.00782504E+00
  1.00782504E+00  1.00782504E+00  1.00782504E+00  1.00782504E+00  1.00782504E+00
  1.00782504E+00
Atom fragment info                         I   N=          16
           0           0           0           0           0           0
           0           0           0           0           0           0
           0           0           0           0
Atom residue num                           I   N=          16
           0           0           0           0           0           0
           0           0           0           0           0           0
           0           0           0           0
Nuclear spins                              I   N=          16
           0           2           0           0           0           0
           0           0           0           1           1           1
           1           1           1           1
Nuclear ZEff                               R   N=          16
 -5.60000000E+00 -4.55000000E+00 -3.60000000E+00 -3.60000000E+00 -3.60000000E+00
 -3.60000000E+00 -3.60000000E+00 -3.60000000E+00 -3.60000000E+00 -1.00000000E+00
 -1.00000000E+00 -1.00000000E+00 -1.00000000E+00 -1.00000000E+00 -1.00000000E+00
 -1.00000000E+00
Nuclear QMom                               R   N=          16
  0.00000000E+00  2.04400000E+00  0.00000000E+00  0.00000000E+00  0.00000000E+00
  0.00000000E+00  0.00000000E+00  0.00000000E+00  0.00000000E+00  0.00000000E+00
  0.00000000E+00  0.00000000E+00  0.00000000E+00  0.00000000E+00  0.00000000E+00
  0.00000000E+00
Nuclear GFac                               R   N=          16
  0.00000000E+00  4.03761000E-01  0.00000000E+00  0.00000000E+00  0.00000000E+00
  0.00000000E+00  0.00000000E+00  0.00000000E+00  0.00000000E+00  2.79284600E+00
  2.79284600E+00  2.79284600E+00  2.79284600E+00  2.79284600E+00  2.79284600E+00
  2.79284600E+00
MicOpt                                     I   N=          16
          -1          -1          -1          -1          -1          -1
          -1          -1          -1          -1          -1          -1
          -1          -1          -1          -1
Number of contracted shells                I               50
Number of primitive shells                 I              127
Pure/Cartesian d shells                    I                1
Pure/Cartesian f shells                    I                0
Highest angular momentum                   I                2
Largest degree of contraction              I                6
Shell types                                I   N=          50
           0          -1          -1           2           0          -1
          -1           2           0          -1          -1           2
           0          -1          -1           2           0          -1
          -1           2           0          -1          -1           2
           0          -1          -1           2           0          -1
          -1           2           0          -1          -1           2
           0           0           0           0           0           0
           0           0           0           0           0           0
           0           0
Number of primitives per shell             I   N=          50
           6           3           1           1           6           3
           1           1           6           3           1           1
           6           3           1           1           6           3
           1           1           6           3           1           1
           6           3           1           1           6           3
           1           1           6           3           1           1
           3           1           3           1           3           1
           3           1           3           1           3           1
           3           1
Shell to atom map                          I   N=          50
           1           1           1           1           2           2
           2           2           3           3           3           3
           4           4           4           4           5           5
           5           5           6           6           6           6
           7           7           7           7           8           8
           8           8           9           9           9           9
          10          10          11          11          12          12
          13          13          14          14          15          15
          16          16
Primitive exponents                        R   N=         127
  5.48467166E+03  8.25234946E+02  1.88046958E+02  5.29645000E+01  1.68975704E+01
  5.79963534E+00  1.55396162E+01  3.59993359E+00  1.01376175E+00  2.70005823E-01
  8.00000000E-01  4.17351146E+03  6.27457911E+02  1.42902093E+02  4.02343293E+01
  1.28202129E+01  4.39043701E+00  1.16263619E+01  2.71627981E+00  7.72218397E-01
  2.12031498E-01  8.00000000E-01  3.04752488E+03  4.57369518E+02  1.03948685E+02
  2.92101553E+01  9.28666296E+00  3.16392696E+00  7.86827235E+00  1.88128854E+00
  5.44249258E-01  1.68714478E-01  8.00000000E-01  3.04752488E+03  4.57369518E+02
  1.03948685E+02  2.92101553E+01  9.28666296E+00  3.16392696E+00  7.86827235E+00
  1.88128854E+00  5.44249258E-01  1.68714478E-01  8.00000000E-01  3.04752488E+03
  4.57369518E+02  1.03948685E+02  2.92101553E+01  9.28666296E+00  3.16392696E+00
  7.86827235E+00  1.88128854E+00  5.44249258E-01  1.68714478E-01  8.00000000E-01
  3.04752488E+03  4.57369518E+02  1.03948685E+02  2.92101553E+01  9.28666296E+00
  3.16392696E+00  7.86827235E+00  1.88128854E+00  5.44249258E-01  1.68714478E-01
  8.00000000E-01  3.04752488E+03  4.57369518E+02  1.03948685E+02  2.92101553E+01
  9.28666296E+00  3.16392696E+00  7.86827235E+00  1.88128854E+00  5.44249258E-01
  1.68714478E-01  8.00000000E-01  3.04752488E+03  4.57369518E+02  1.03948685E+02
  2.92101553E+01  9.28666296E+00  3.16392696E+00  7.86827235E+00  1.88128854E+00
  5.44249258E-01  1.68714478E-01  8.00000000E-01  3.04752488E+03  4.57369518E+02
  1.03948685E+02  2.92101553E+01  9.28666296E+00  3.16392696E+00  7.86827235E+00
  1.88128854E+00  5.44249258E-01  1.68714478E-01  8.00000000E-01  1.87311370E+01
  2.82539436E+00  6.40121692E-01  1.61277759E-01  1.87311370E+01  2.82539436E+00
  6.40121692E-01  1.61277759E-01  1.87311370E+01  2.82539436E+00  6.40121692E-01
  1.61277759E-01  1.87311370E+01  2.82539436E+00  6.40121692E-01  1.61277759E-01
  1.87311370E+01  2.82539436E+00  6.40121692E-01  1.61277759E-01  1.87311370E+01
  2.82539436E+00  6.40121692E-01  1.61277759E-01  1.87311370E+01  2.82539436E+00
  6.40121692E-01  1.61277759E-01
Contraction coefficients                   R   N=         127
  1.83107443E-03  1.39501722E-02  6.84450781E-02  2.32714336E-01  4.70192898E-01
  3.58520853E-01 -1.10777550E-01 -1.48026263E-01  1.13076702E+00  1.00000000E+00
  1.00000000E+00  1.83477216E-03  1.39946270E-02  6.85865518E-02  2.32240873E-01
  4.69069948E-01  3.60455199E-01 -1.14961182E-01 -1.69117479E-01  1.14585195E+00
  1.00000000E+00  1.00000000E+00  1.83473713E-03  1.40373228E-02  6.88426223E-02
  2.32184443E-01  4.67941348E-01  3.62311985E-01 -1.19332420E-01 -1.60854152E-01
  1.14345644E+00  1.00000000E+00  1.00000000E+00  1.83473713E-03  1.40373228E-02
  6.88426223E-02  2.32184443E-01  4.67941348E-01  3.62311985E-01 -1.19332420E-01
 -1.60854152E-01  1.14345644E+00  1.00000000E+00  1.00000000E+00  1.83473713E-03
  1.40373228E-02  6.88426223E-02  2.32184443E-01  4.67941348E-01  3.62311985E-01
 -1.19332420E-01 -1.60854152E-01  1.14345644E+00  1.00000000E+00  1.00000000E+00
  1.83473713E-03  1.40373228E-02  6.88426223E-02  2.32184443E-01  4.67941348E-01
  3.62311985E-01 -1.19332420E-01 -1.60854152E-01  1.14345644E+00  1.00000000E+00
  1.00000000E+00  1.83473713E-03  1.40373228E-02  6.88426223E-02  2.32184443E-01
  4.67941348E-01  3.62311985E-01 -1.19332420E-01 -1.60854152E-01  1.14345644E+00
  1.00000000E+00  1.00000000E+00  1.83473713E-03  1.40373228E-02  6.88426223E-02
  2.32184443E-01  4.67941348E-01  3.62311985E-01 -1.19332420E-01 -1.60854152E-01
  1.14345644E+00  1.00000000E+00  1.00000000E+00  1.83473713E-03  1.40373228E-02
  6.88426223E-02  2.32184443E-01  4.67941348E-01  3.62311985E-01 -1.19332420E-01
 -1.60854152E-01  1.14345644E+00  1.00000000E+00  1.00000000E+00  3.34946043E-02
  2.34726953E-01  8.13757326E-01  1.00000000E+00  3.34946043E-02  2.34726953E-01
  8.13757326E-01  1.00000000E+00  3.34946043E-02  2.34726953E-01  8.13757326E-01
  1.00000000E+00  3.34946043E-02  2.34726953E-01  8.13757326E-01  1.00000000E+00
  3.34946043E-02  2.34726953E-01  8.13757326E-01  1.00000000E+00  3.34946043E-02
  2.34726953E-01  8.13757326E-01  1.00000000E+00  3.34946043E-02  2.34726953E-01
  8.13757326E-01  1.00000000E+00
P(S=P) Contraction coefficients            R   N=         127
  0.00000000E+00  0.00000000E+00  0.00000000E+00  0.00000000E+00  0.00000000E+00
  0.00000000E+00  7.08742682E-02  3.39752839E-01  7.27158577E-01  1.00000000E+00
  0.00000000E+00  0.00000000E+00  0.00000000E+00  0.00000000E+00  0.00000000E+00
  0.00000000E+00  0.00000000E+00  6.75797439E-02  3.23907296E-01  7.40895140E-01
  1.00000000E+00  0.00000000E+00  0.00000000E+00  0.00000000E+00  0.00000000E+00
  0.00000000E+00  0.00000000E+00  0.00000000E+00  6.89990666E-02  3.16423961E-01
  7.44308291E-01  1.00000000E+00  0.00000000E+00  0.00000000E+00  0.00000000E+00
  0.00000000E+00  0.00000000E+00  0.00000000E+00  0.00000000E+00  6.89990666E-02
  3.16423961E-01  7.44308291E-01  1.00000000E+00  0.00000000E+00  0.00000000E+00
  0.00000000E+00  0.00000000E+00  0.00000000E+00  0.00000000E+00  0.00000000E+00
  6.89990666E-02  3.16423961E-01  7.44308291E-01  1.00000000E+00  0.00000000E+00
  0.00000000E+00  0.00000000E+00  0.00000000E+00  0.00000000E+00  0.00000000E+00
  0.00000000E+00  6.89990666E-02  3.16423961E-01  7.44308291E-01  1.00000000E+00
  0.00000000E+00  0.00000000E+00  0.00000000E+00  0.00000000E+00  0.00000000E+00
  0.00000000E+00  0.00000000E+00  6.89990666E-02  3.16423961E-01  7.44308291E-01
  1.00000000E+00  0.00000000E+00  0.00000000E+00  0.00000000E+00  0.00000000E+00
  0.00000000E+00  0.00000000E+00  0.00000000E+00  6.89990666E-02  3.16423961E-01
  7.44308291E-01  1.00000000E+00  0.00000000E+00  0.00000000E+00  0.00000000E+00
  0.00000000E+00  0.00000000E+00  0.00000000E+00  0.00000000E+00  6.89990666E-02
  3.16423961E-01  7.44308291E-01  1.00000000E+00  0.00000000E+00  0.00000000E+00
  0.00000000E+00  0.00000000E+00  0.00000000E+00  0.00000000E+00  0.00000000E+00
  0.00000000E+00  0.00000000E+00  0.00000000E+00  0.00000000E+00  0.00000000E+00
  0.00000000E+00  0.00000000E+00  0.00000000E+00  0.00000000E+00  0.00000000E+00
  0.00000000E+00  0.00000000E+00  0.00000000E+00  0.00000000E+00  0.00000000E+00
  0.00000000E+00  0.00000000E+00  0.00000000E+00  0.00000000E+00  0.00000000E+00
  0.00000000E+00  0.00000000E+00
Coordinates of each shell                  R   N=         150
  4.33938390E+00 -2.20094405E+00 -7.10057394E-01  4.33938390E+00 -2.20094405E+00
 -7.10057394E-01  4.33938390E+00 -2.20094405E+00 -7.10057394E-01  4.33938390E+00
 -2.20094405E+00 -7.10057394E-01  4.52084558E+00  1.92080870E+00  5.65816980E-01
  4.52084558E+00  1.92080870E+00  5.65816980E-01  4.52084558E+00  1.92080870E+00
  5.65816980E-01  4.52084558E+00  1.92080870E+00  5.65816980E-01  4.17120322E-01
 -5.09321524E-02 -4.00006700E-02  4.17120322E-01 -5.09321524E-02 -4.00006700E-02
  4.17120322E-01 -5.09321524E-02 -4.00006700E-02  4.17120322E-01 -5.09321524E-02
 -4.00006700E-02 -8.54766402E-01  2.25016915E+00 -3.55964274E-01 -8.54766402E-01
  2.25016915E+00 -3.55964274E-01 -8.54766402E-01  2.25016915E+00 -3.55964274E-01
 -8.54766402E-01  2.25016915E+00 -3.55964274E-01 -9.61902907E-01 -2.28527407E+00
  2.84635425E-01 -9.61902907E-01 -2.28527407E+00  2.84635425E-01 -9.61902907E-01
 -2.28527407E+00  2.84635425E-01 -9.61902907E-01 -2.28527407E+00  2.84635425E-01
 -3.49133063E+00  2.31015538E+00 -3.13761567E-01 -3.49133063E+00  2.31015538E+00
 -3.13761567E-01 -3.49133063E+00  2.31015538E+00 -3.13761567E-01 -3.49133063E+00
  2.31015538E+00 -3.13761567E-01 -3.59344661E+00 -2.21188042E+00  3.41509950E-01
 -3.59344661E+00 -2.21188042E+00  3.41509950E-01 -3.59344661E+00 -2.21188042E+00
  3.41509950E-01 -3.59344661E+00 -2.21188042E+00  3.41509950E-01 -4.86392949E+00
  8.59836965E-02  5.08820292E-02 -4.86392949E+00  8.59836965E-02  5.08820292E-02
 -4.86392949E+00  8.59836965E-02  5.08820292E-02 -4.86392949E+00  8.59836965E-02
  5.08820292E-02  3.23799180E+00 -2.49295873E-01 -8.32656107E-02  3.23799180E+00
 -2.49295873E-01 -8.32656107E-02  3.23799180E+00 -2.49295873E-01 -8.32656107E-02
  3.23799180E+00 -2.49295873E-01 -8.32656107E-02  2.02714345E-01  3.97534855E+00
 -7.15305602E-01  2.02714345E-01  3.97534855E+00 -7.15305602E-01  6.28741856E-02
 -4.05414016E+00  4.77147675E-01  6.28741856E-02 -4.05414016E+00  4.77147675E-01
 -4.47577479E+00  4.09395824E+00 -5.80851729E-01 -4.47577479E+00  4.09395824E+00
 -5.80851729E-01 -4.65917881E+00 -3.94812608E+00  6.09183864E-01 -4.65917881E+00
 -3.94812608E+00  6.09183864E-01 -6.91771772E+00  1.39627527E-01  8.78895065E-02
 -6.91771772E+00  1.39627527E-01  8.78895065E-02  3.67987305E+00  3.17251813E+00
  1.73896374E+00  3.67987305E+00  3.17251813E+00  1.73896374E+00  6.40780292E+00
  1.68915110E+00  7.98501136E-01  6.40780292E+00  1.68915110E+00  7.98501136E-01
Constraint Structure                       R   N=          48
  4.33938390E+00 -2.20094405E+00 -7.10057394E-01  4.52084558E+00  1.92080870E+00
  5.65816980E-01  4.17120322E-01 -5.09321524E-02 -4.00006700E-02 -8.54766402E-01
  2.25016915E+00 -3.55964274E-01 -9.61902907E-01 -2.28527407E+00  2.84635425E-01
 -3.49133063E+00  2.31015538E+00 -3.13761567E-01 -3.59344661E+00 -2.21188042E+00
  3.41509950E-01 -4.86392949E+00  8.59836965E-02  5.08820292E-02  3.23799180E+00
 -2.49295873E-01 -8.32656107E-02  2.02714345E-01  3.97534855E+00 -7.15305602E-01
  6.28741856E-02 -4.05414016E+00  4.77147675E-01 -4.47577479E+00  4.09395824E+00
 -5.80851729E-01 -4.65917881E+00 -3.94812608E+00  6.09183864E-01 -6.91771772E+00
  1.39627527E-01  8.78895065E-02  3.67987305E+00  3.17251813E+00  1.73896374E+00
  6.40780292E+00  1.68915110E+00  7.98501136E-01
Num ILSW                                   I              100
ILSW                                       I   N=         100
           0           1           0           0           2           0
           0           0           0           0           0          -1
           0           0           0           0           0           0
           0           0           0           0           1           0
           1           0           0           0           0           0
           0           0      100000           0          -1           0
           0           0           0           0           0           0
           0           0           0           1           1           0
           0           0           1           0           0           0
           0           0           4          40           0           0
           0           0           0           0           0           0
           0           0           0           0           0           0
           0           0           0           0           0           0
           0           0           0           0           0           0
           0           0           0           0           0           0
           0           0           0           0           0           0
           0           0           0           0
Num RLSW                                   I               40
RLSW                                       R   N=          40
  1.00000000E+00  1.00000000E+00  1.00000000E+00  1.00000000E+00  1.00000000E+00
  0.00000000E+00  0.00000000E+00  1.00000000E+00  0.00000000E+00  0.00000000E+00
  0.00000000E+00  0.00000000E+00  1.00000000E+00  0.00000000E+00  0.00000000E+00
  0.00000000E+00  0.00000000E+00  1.00000000E+00  0.00000000E+00  0.00000000E+00
  0.00000000E+00  0.00000000E+00  1.00000000E+00  0.00000000E+00  0.00000000E+00
  0.00000000E+00  0.00000000E+00  1.00000000E+00  0.00000000E+00  0.00000000E+00
  0.00000000E+00  0.00000000E+00  0.00000000E+00  0.00000000E+00  0.00000000E+00
  0.00000000E+00  0.00000000E+00  0.00000000E+00  1.00000000E+00  1.00000000E+00
MxBond                                     I                3
NBond                                      I   N=          16
           1           3           3           3           3           3
           3           3           3           1           1           1
           1           1           1           1
IBond                                      I   N=          48
           9           0           0           9          15          16
           4           5           9           3           6          10
           3           7          11           4           8          12
           5           8          13           6           7          14
           1           2           3           4           0           0
           5           0           0           6           0           0
           7           0           0           8           0           0
           2           0           0           2           0           0
RBond                                      R   N=          48
  2.00000000E+00  0.00000000E+00  0.00000000E+00  1.00000000E+00  1.00000000E+00
  1.00000000E+00  1.50000000E+00  1.50000000E+00  1.00000000E+00  1.50000000E+00
  1.50000000E+00  1.00000000E+00  1.50000000E+00  1.50000000E+00  1.00000000E+00
  1.50000000E+00  1.50000000E+00  1.00000000E+00  1.50000000E+00  1.50000000E+00
  1.00000000E+00  1.50000000E+00  1.50000000E+00  1.00000000E+00  2.00000000E+00
  1.00000000E+00  1.00000000E+00  1.00000000E+00  0.00000000E+00  0.00000000E+00
  1.00000000E+00  0.00000000E+00  0.00000000E+00  1.00000000E+00  0.00000000E+00
  0.00000000E+00  1.00000000E+00  0.00000000E+00  0.00000000E+00  1.00000000E+00
  0.00000000E+00  0.00000000E+00  1.00000000E+00  0.00000000E+00  0.00000000E+00
  1.00000000E+00  0.00000000E+00  0.00000000E+00
Virial Ratio                               R      2.002605637989727E+00
SCF Energy                                 R     -3.984849628976086E+02
MP2 Energy                                 R     -3.997056204780284E+02
Total Energy                               R     -3.997056204780284E+02
Post-SCF wavefunction norm                 R      1.686558307242600E+00
RMS Force                                  R      1.484463853608047E-06
RMS Density                                R      2.679611871265286E-09
External E-field                           R   N=          35
  0.00000000E+00  0.00000000E+00  0.00000000E+00  0.00000000E+00  0.00000000E+00
  0.00000000E+00  0.00000000E+00  0.00000000E+00  0.00000000E+00  0.00000000E+00
  0.00000000E+00  0.00000000E+00  0.00000000E+00  0.00000000E+00  0.00000000E+00
  0.00000000E+00  0.00000000E+00  0.00000000E+00  0.00000000E+00  0.00000000E+00
  0.00000000E+00  0.00000000E+00  0.00000000E+00  0.00000000E+00  0.00000000E+00
  0.00000000E+00  0.00000000E+00  0.00000000E+00  0.00000000E+00  0.00000000E+00
  0.00000000E+00  0.00000000E+00  0.00000000E+00  0.00000000E+00  0.00000000E+00
IOpCl                                      I                0
IROHF                                      I                0
Alpha Orbital Energies                     R   N=         149
 -2.05273843E+01 -1.55884735E+01 -1.13587536E+01 -1.12550117E+01 -1.12516218E+01
 -1.12515770E+01 -1.12474618E+01 -1.12471098E+01 -1.12446973E+01 -1.37189414E+00
 -1.20823912E+00 -1.15853324E+00 -1.03507083E+00 -1.02307280E+00 -8.74400902E-01
 -8.35492896E-01 -7.83150919E-01 -7.37086364E-01 -6.90854646E-01 -6.66140572E-01
 -6.34000119E-01 -6.13556279E-01 -5.96581720E-01 -5.90296689E-01 -5.65425919E-01
 -5.18194008E-01 -5.01861445E-01 -5.01280115E-01 -4.27607967E-01 -4.10781476E-01
 -3.45429852E-01 -3.41587336E-01  1.00784776E-01  1.31888675E-01  2.14711998E-01
  2.33580517E-01  2.50497208E-01  2.77004230E-01  2.93979617E-01  3.05742062E-01
  3.27372775E-01  3.36658044E-01  3.67375316E-01  4.36884102E-01  4.60287439E-01
  4.64517840E-01  4.83119859E-01  4.98785706E-01  5.38658018E-01  5.95524280E-01
  6.76649809E-01  7.28092885E-01  7.38896628E-01  7.52041533E-01  7.73611381E-01
  7.89794161E-01  7.92999250E-01  8.10165941E-01  8.25193805E-01  8.29997263E-01
  8.32088616E-01  8.49167793E-01  8.73139261E-01  8.94295091E-01  9.32083255E-01
  9.42396455E-01  9.60230749E-01  9.89125224E-01  1.00352006E+00  1.02700171E+00
  1.08002007E+00  1.09689445E+00  1.10250763E+00  1.10490250E+00  1.14358637E+00
  1.16215252E+00  1.16968756E+00  1.19362238E+00  1.19710452E+00  1.23248696E+00
  1.23937868E+00  1.26284969E+00  1.29224996E+00  1.33296347E+00  1.34970213E+00
  1.39285795E+00  1.40720232E+00  1.43991195E+00  1.47446055E+00  1.48762343E+00
  1.53741720E+00  1.57782839E+00  1.65921328E+00  1.67588882E+00  1.69345517E+00
  1.72001621E+00  1.73543234E+00  1.76058201E+00  1.76197284E+00  1.78279270E+00
  1.94347789E+00  1.99877199E+00  2.04837265E+00  2.06278510E+00  2.09532300E+00
  2.13005207E+00  2.16889255E+00  2.17710581E+00  2.21077750E+00  2.22981851E+00
  2.29085965E+00  2.32034443E+00  2.35709895E+00  2.36834829E+00  2.42652625E+00
  2.44793689E+00  2.45545238E+00  2.46452743E+00  2.50428084E+00  2.57671302E+00
  2.60219837E+00  2.61781976E+00  2.62373673E+00  2.67171845E+00  2.76870988E+00
  2.83405626E+00  2.90206604E+00  2.94095905E+00  2.94639478E+00  2.97743094E+00
  2.99944451E+00  3.04572290E+00  3.09138006E+00  3.09696533E+00  3.12255475E+00
  3.23100285E+00  3.34178476E+00  3.42028940E+00  3.52568829E+00  3.79186416E+00
  4.24218983E+00  4.44047974E+00  4.50302326E+00  4.52964384E+00  4.55461641E+00
  4.73470309E+00  4.74151709E+00  4.88300782E+00  5.13066419E+00
Alpha MO coefficients                      R   N=       22201
  9.94689268E-01  2.09585336E-02 -7.08002276E-04  1.29277109E-03  4.21585011E-04
  4.54885551E-03  3.36890134E-05 -3.86359471E-05 -3.21571544E-06 -3.85357930E-03
 -3.75652204E-03 -4.07966147E-03 -1.17152061E-04 -3.07858027E-05  1.45747544E-04
 -7.84703897E-06 -2.88328682E-05 -1.30606541E-05  3.06146956E-05  9.92597518E-06
  7.34640377E-05  5.31057630E-05 -5.75200591E-05 -2.14950800E-05  4.71455036E-05
 -6.47633694E-05 -5.31646973E-05  4.52630991E-05  1.82823319E-05 -9.96081776E-06
  1.25289919E-06  1.53969753E-05 -2.16119922E-05  1.13569623E-05  1.01735648E-05
 -1.48849488E-04 -1.52907159E-04 -1.23989563E-04 -1.45248377E-05 -9.26142954E-06
 -9.49566370E-06 -1.37841695E-05  7.61055509E-05  1.50797962E-05  1.28676824E-07
  7.64526767E-07  2.72549326E-06  1.57380557E-05 -1.22488618E-05  3.14927946E-06
  1.29343094E-04 -1.18551098E-04 -5.36239271E-05  1.90405024E-05 -1.83443689E-06
  1.72795244E-05  4.89879710E-06 -4.76830787E-06 -2.67687362E-07 -4.99220510E-06
 -6.39664705E-07 -1.97339693E-06  5.93511969E-06  2.51105577E-06 -4.34571242E-06
  1.04192735E-04 -1.51023469E-04 -1.61042182E-04  5.09280808E-05  1.12150833E-05
 -2.75833834E-05  1.01751749E-06 -6.88296943E-06  3.11541159E-06  9.45041335E-06
  3.16605616E-06  1.73773420E-05  2.64620528E-07 -4.52720589E-08 -3.57785933E-07
 -2.12746645E-04 -7.86084025E-05  8.28548502E-05 -1.42846037E-05 -8.97197683E-07
 -6.85171295E-07  6.40740462E-06  1.34997859E-06 -4.79967462E-07  1.36486421E-06
  2.68042603E-06  1.54284041E-05 -2.12511414E-06 -1.55135237E-06  2.00561356E-06
 -1.96798140E-04 -1.17875442E-04  2.80447737E-05 -1.26153437E-05 -6.91645114E-06
  2.50841409E-06  6.15999806E-06  3.01262384E-06 -1.12289059E-06  6.11620317E-08
 -9.88848759E-07 -5.50170879E-06 -1.25018350E-06  1.76680260E-06 -1.18465038E-06
  6.36052710E-05  8.20028682E-05  3.24723743E-05 -1.36274219E-06 -3.10754442E-07
 -8.27780707E-08 -1.08194987E-06  1.40832374E-06  1.20832010E-07 -7.82142458E-07
 -5.73228582E-06  4.91796723E-04  4.47844934E-06  1.80627487E-05  2.12080876E-06
 -2.52852861E-04 -4.52197968E-04  4.35495597E-04  1.40393132E-04 -1.96088103E-04
 -5.60889530E-04 -1.03708365E-04  3.23436955E-04  9.84353673E-05 -1.90591895E-04
  1.12701050E-05  2.97995520E-05  2.29264222E-05 -1.45710820E-04 -2.63860208E-07
 -2.94308916E-05  4.57759504E-06  4.43129073E-06  6.12798007E-06  2.17064871E-05
  2.56157982E-05 -1.55931473E-05 -2.45166633E-05 -2.98674475E-05 -2.38393490E-05
 -1.47228270E-04  1.40141281E-05 -2.04314638E-05 -8.22176834E-06  8.44137928E-04
 -4.13887066E-04  4.53715464E-05 -1.67010108E-05 -1.54978479E-05 -1.09775101E-04
 -1.21983845E-04 -6.30431725E-05 -1.14366186E-05 -8.29213504E-07  9.94936110E-01
  2.52251651E-02 -5.72205409E-05 -4.02851970E-04  5.97169599E-04 -2.92224547E-03
  4.00251493E-04  9.13371039E-04 -1.77093395E-04 -3.52430480E-03 -3.49604106E-03
 -3.42122328E-03 -1.59296686E-05  7.08129728E-06 -5.90872978E-05 -6.05489272E-06
 -3.19133622E-05 -4.60664382E-05  8.57393282E-06  2.74017708E-06  9.32154309E-05
  3.41646485E-04 -7.09211929E-04 -1.53628513E-04 -1.32039133E-05 -7.86796136E-06
 -2.73554415E-05 -4.38503437E-05 -3.13790047E-05  1.60853101E-05 -1.03175088E-06
 -2.03391488E-06  8.38694006E-06 -6.96502407E-06 -6.94983640E-06  4.70219648E-04
  6.77661016E-06 -2.45145402E-04  1.11478132E-04 -1.41614372E-05  2.01476711E-06
 -5.23295208E-07 -1.58546007E-06 -9.80167720E-07 -1.16203670E-05 -3.80730871E-06
 -1.52750344E-05 -2.42317267E-05 -4.17996378E-07  8.90328754E-06 -3.56878966E-04
  1.49224146E-04 -3.23078033E-05  2.94486031E-05 -1.43945713E-05  1.92829914E-05
 -1.61412819E-05  1.24010622E-06 -9.35238535E-08  7.69730019E-06 -1.39099609E-06
 -4.78792559E-06 -1.10802704E-05 -1.88397125E-06 -6.01094593E-07 -5.38285106E-05
  1.13517163E-05  4.36541937E-05 -2.48179402E-05  1.05724641E-06 -2.01216063E-06
 -5.29690165E-06 -7.85762957E-07 -2.91228329E-06 -2.15524016E-06 -3.94823481E-06
 -2.38488288E-05  5.33186908E-06 -4.94646030E-06 -4.28277127E-06  2.54004513E-04
  1.45837885E-04  5.23718990E-05 -5.38659173E-06  9.44575303E-06 -2.36326200E-06
 -9.51302612E-06 -3.83677629E-07  2.21353310E-07  9.80588165E-07 -3.67704334E-07
 -1.31871837E-06 -1.22247020E-06  6.23174831E-06 -4.16721958E-06  7.36660568E-06
 -3.36637593E-05  1.09466707E-05  1.00067196E-05 -1.10413700E-06  6.99437706E-07
 -2.40603497E-06  2.31450885E-06  8.73473427E-07  6.29446529E-07  1.30272124E-05
  2.12983481E-04  7.98744963E-05  1.67856740E-04  5.89323840E-05  1.02222836E-03
  8.85867829E-04  1.68779174E-03  6.26653327E-04 -8.92369211E-05 -1.55000109E-04
 -7.87128946E-05 -2.62937751E-05  6.75794647E-06 -2.95095962E-05  5.04671059E-06