045_4-Methylimidazole Gaussian SP Calculation on node35.bme.utexas.edu  
Freq      RMP2-FC                                                     6-31G(d)            
Number of atoms                            I               12
Info1-9                                    I   N=           9
          23          22        1002           0           0         100
           6           2           1
Charge                                     I                0
Multiplicity                               I                1
Number of electrons                        I               44
Number of alpha electrons                  I               22
Number of beta electrons                   I               22
Number of basis functions                  I              102
Number of independent functions            I              102
Number of point charges in /Mol/           I                0
Number of translation vectors              I                0
Atomic numbers                             I   N=          12
           6           6           6           6           7           7
           1           1           1           1           1           1
Nuclear charges                            R   N=          12
  6.00000000E+00  6.00000000E+00  6.00000000E+00  6.00000000E+00  7.00000000E+00
  7.00000000E+00  1.00000000E+00  1.00000000E+00  1.00000000E+00  1.00000000E+00
  1.00000000E+00  1.00000000E+00
Current cartesian coordinates              R   N=          36
 -4.06485104E+00 -1.23948749E-02  8.61469433E-06 -1.24310110E+00  3.48994354E-02
 -1.05876000E-05  3.51821751E-01  2.09861167E+00  1.42566860E-05  2.54169150E+00
 -1.45591895E+00  2.32848291E-06  1.44191996E-01 -2.17480886E+00 -1.24177176E-05
  2.75963746E+00  1.11408834E+00 -8.22765298E-06 -4.78187886E+00 -1.00104419E+00
 -1.66738418E+00 -4.83113094E+00  1.90703980E+00 -3.50156913E-06 -7.48179028E-04
  4.11012080E+00 -9.26620576E-05  4.16680116E+00 -2.69729523E+00  2.33544488E-05
  4.38862987E+00  2.11604372E+00  7.49967333E-05 -4.78184592E+00 -1.00100500E+00
  1.66743884E+00
Force Field                                I                0
Int Atom Types                             I   N=          12
           0           0           0           0           0           0
           0           0           0           0           0           0
MM charges                                 R   N=          12
  0.00000000E+00  0.00000000E+00  0.00000000E+00  0.00000000E+00  0.00000000E+00
  0.00000000E+00  0.00000000E+00  0.00000000E+00  0.00000000E+00  0.00000000E+00
  0.00000000E+00  0.00000000E+00
Integer atomic weights                     I   N=          12
          12          12          12          12          14          14
           1           1           1           1           1           1
Real atomic weights                        R   N=          12
  1.20000000E+01  1.20000000E+01  1.20000000E+01  1.20000000E+01  1.40030740E+01
  1.40030740E+01  1.00782504E+00  1.00782504E+00  1.00782504E+00  1.00782504E+00
  1.00782504E+00  1.00782504E+00
Atom fragment info                         I   N=          12
           0           0           0           0           0           0
           0           0           0           0           0           0
Atom residue num                           I   N=          12
           0           0           0           0           0           0
           0           0           0           0           0           0
Nuclear spins                              I   N=          12
           0           0           0           0           2           2
           1           1           1           1           1           1
Nuclear ZEff                               R   N=          12
 -3.60000000E+00 -3.60000000E+00 -3.60000000E+00 -3.60000000E+00 -4.55000000E+00
 -4.55000000E+00 -1.00000000E+00 -1.00000000E+00 -1.00000000E+00 -1.00000000E+00
 -1.00000000E+00 -1.00000000E+00
Nuclear QMom                               R   N=          12
  0.00000000E+00  0.00000000E+00  0.00000000E+00  0.00000000E+00  2.04400000E+00
  2.04400000E+00  0.00000000E+00  0.00000000E+00  0.00000000E+00  0.00000000E+00
  0.00000000E+00  0.00000000E+00
Nuclear GFac                               R   N=          12
  0.00000000E+00  0.00000000E+00  0.00000000E+00  0.00000000E+00  4.03761000E-01
  4.03761000E-01  2.79284600E+00  2.79284600E+00  2.79284600E+00  2.79284600E+00
  2.79284600E+00  2.79284600E+00
MicOpt                                     I   N=          12
          -1          -1          -1          -1          -1          -1
          -1          -1          -1          -1          -1          -1
Number of contracted shells                I               36
Number of primitive shells                 I               90
Pure/Cartesian d shells                    I                1
Pure/Cartesian f shells                    I                0
Highest angular momentum                   I                2
Largest degree of contraction              I                6
Shell types                                I   N=          36
           0          -1          -1           2           0          -1
          -1           2           0          -1          -1           2
           0          -1          -1           2           0          -1
          -1           2           0          -1          -1           2
           0           0           0           0           0           0
           0           0           0           0           0           0
Number of primitives per shell             I   N=          36
           6           3           1           1           6           3
           1           1           6           3           1           1
           6           3           1           1           6           3
           1           1           6           3           1           1
           3           1           3           1           3           1
           3           1           3           1           3           1
Shell to atom map                          I   N=          36
           1           1           1           1           2           2
           2           2           3           3           3           3
           4           4           4           4           5           5
           5           5           6           6           6           6
           7           7           8           8           9           9
          10          10          11          11          12          12
Primitive exponents                        R   N=          90
  3.04752488E+03  4.57369518E+02  1.03948685E+02  2.92101553E+01  9.28666296E+00
  3.16392696E+00  7.86827235E+00  1.88128854E+00  5.44249258E-01  1.68714478E-01
  8.00000000E-01  3.04752488E+03  4.57369518E+02  1.03948685E+02  2.92101553E+01
  9.28666296E+00  3.16392696E+00  7.86827235E+00  1.88128854E+00  5.44249258E-01
  1.68714478E-01  8.00000000E-01  3.04752488E+03  4.57369518E+02  1.03948685E+02
  2.92101553E+01  9.28666296E+00  3.16392696E+00  7.86827235E+00  1.88128854E+00
  5.44249258E-01  1.68714478E-01  8.00000000E-01  3.04752488E+03  4.57369518E+02
  1.03948685E+02  2.92101553E+01  9.28666296E+00  3.16392696E+00  7.86827235E+00
  1.88128854E+00  5.44249258E-01  1.68714478E-01  8.00000000E-01  4.17351146E+03
  6.27457911E+02  1.42902093E+02  4.02343293E+01  1.28202129E+01  4.39043701E+00
  1.16263619E+01  2.71627981E+00  7.72218397E-01  2.12031498E-01  8.00000000E-01
  4.17351146E+03  6.27457911E+02  1.42902093E+02  4.02343293E+01  1.28202129E+01
  4.39043701E+00  1.16263619E+01  2.71627981E+00  7.72218397E-01  2.12031498E-01
  8.00000000E-01  1.87311370E+01  2.82539436E+00  6.40121692E-01  1.61277759E-01
  1.87311370E+01  2.82539436E+00  6.40121692E-01  1.61277759E-01  1.87311370E+01
  2.82539436E+00  6.40121692E-01  1.61277759E-01  1.87311370E+01  2.82539436E+00
  6.40121692E-01  1.61277759E-01  1.87311370E+01  2.82539436E+00  6.40121692E-01
  1.61277759E-01  1.87311370E+01  2.82539436E+00  6.40121692E-01  1.61277759E-01
Contraction coefficients                   R   N=          90
  1.83473713E-03  1.40373228E-02  6.88426223E-02  2.32184443E-01  4.67941348E-01
  3.62311985E-01 -1.19332420E-01 -1.60854152E-01  1.14345644E+00  1.00000000E+00
  1.00000000E+00  1.83473713E-03  1.40373228E-02  6.88426223E-02  2.32184443E-01
  4.67941348E-01  3.62311985E-01 -1.19332420E-01 -1.60854152E-01  1.14345644E+00
  1.00000000E+00  1.00000000E+00  1.83473713E-03  1.40373228E-02  6.88426223E-02
  2.32184443E-01  4.67941348E-01  3.62311985E-01 -1.19332420E-01 -1.60854152E-01
  1.14345644E+00  1.00000000E+00  1.00000000E+00  1.83473713E-03  1.40373228E-02
  6.88426223E-02  2.32184443E-01  4.67941348E-01  3.62311985E-01 -1.19332420E-01
 -1.60854152E-01  1.14345644E+00  1.00000000E+00  1.00000000E+00  1.83477216E-03
  1.39946270E-02  6.85865518E-02  2.32240873E-01  4.69069948E-01  3.60455199E-01
 -1.14961182E-01 -1.69117479E-01  1.14585195E+00  1.00000000E+00  1.00000000E+00
  1.83477216E-03  1.39946270E-02  6.85865518E-02  2.32240873E-01  4.69069948E-01
  3.60455199E-01 -1.14961182E-01 -1.69117479E-01  1.14585195E+00  1.00000000E+00
  1.00000000E+00  3.34946043E-02  2.34726953E-01  8.13757326E-01  1.00000000E+00
  3.34946043E-02  2.34726953E-01  8.13757326E-01  1.00000000E+00  3.34946043E-02
  2.34726953E-01  8.13757326E-01  1.00000000E+00  3.34946043E-02  2.34726953E-01
  8.13757326E-01  1.00000000E+00  3.34946043E-02  2.34726953E-01  8.13757326E-01
  1.00000000E+00  3.34946043E-02  2.34726953E-01  8.13757326E-01  1.00000000E+00
P(S=P) Contraction coefficients            R   N=          90
  0.00000000E+00  0.00000000E+00  0.00000000E+00  0.00000000E+00  0.00000000E+00
  0.00000000E+00  6.89990666E-02  3.16423961E-01  7.44308291E-01  1.00000000E+00
  0.00000000E+00  0.00000000E+00  0.00000000E+00  0.00000000E+00  0.00000000E+00
  0.00000000E+00  0.00000000E+00  6.89990666E-02  3.16423961E-01  7.44308291E-01
  1.00000000E+00  0.00000000E+00  0.00000000E+00  0.00000000E+00  0.00000000E+00
  0.00000000E+00  0.00000000E+00  0.00000000E+00  6.89990666E-02  3.16423961E-01
  7.44308291E-01  1.00000000E+00  0.00000000E+00  0.00000000E+00  0.00000000E+00
  0.00000000E+00  0.00000000E+00  0.00000000E+00  0.00000000E+00  6.89990666E-02
  3.16423961E-01  7.44308291E-01  1.00000000E+00  0.00000000E+00  0.00000000E+00
  0.00000000E+00  0.00000000E+00  0.00000000E+00  0.00000000E+00  0.00000000E+00
  6.75797439E-02  3.23907296E-01  7.40895140E-01  1.00000000E+00  0.00000000E+00
  0.00000000E+00  0.00000000E+00  0.00000000E+00  0.00000000E+00  0.00000000E+00
  0.00000000E+00  6.75797439E-02  3.23907296E-01  7.40895140E-01  1.00000000E+00
  0.00000000E+00  0.00000000E+00  0.00000000E+00  0.00000000E+00  0.00000000E+00
  0.00000000E+00  0.00000000E+00  0.00000000E+00  0.00000000E+00  0.00000000E+00
  0.00000000E+00  0.00000000E+00  0.00000000E+00  0.00000000E+00  0.00000000E+00
  0.00000000E+00  0.00000000E+00  0.00000000E+00  0.00000000E+00  0.00000000E+00
  0.00000000E+00  0.00000000E+00  0.00000000E+00  0.00000000E+00  0.00000000E+00
Coordinates of each shell                  R   N=         108
 -4.06485104E+00 -1.23948749E-02  8.61469433E-06 -4.06485104E+00 -1.23948749E-02
  8.61469433E-06 -4.06485104E+00 -1.23948749E-02  8.61469433E-06 -4.06485104E+00
 -1.23948749E-02  8.61469433E-06 -1.24310110E+00  3.48994354E-02 -1.05876000E-05
 -1.24310110E+00  3.48994354E-02 -1.05876000E-05 -1.24310110E+00  3.48994354E-02
 -1.05876000E-05 -1.24310110E+00  3.48994354E-02 -1.05876000E-05  3.51821751E-01
  2.09861167E+00  1.42566860E-05  3.51821751E-01  2.09861167E+00  1.42566860E-05
  3.51821751E-01  2.09861167E+00  1.42566860E-05  3.51821751E-01  2.09861167E+00
  1.42566860E-05  2.54169150E+00 -1.45591895E+00  2.32848291E-06  2.54169150E+00
 -1.45591895E+00  2.32848291E-06  2.54169150E+00 -1.45591895E+00  2.32848291E-06
  2.54169150E+00 -1.45591895E+00  2.32848291E-06  1.44191996E-01 -2.17480886E+00
 -1.24177176E-05  1.44191996E-01 -2.17480886E+00 -1.24177176E-05  1.44191996E-01
 -2.17480886E+00 -1.24177176E-05  1.44191996E-01 -2.17480886E+00 -1.24177176E-05
  2.75963746E+00  1.11408834E+00 -8.22765298E-06  2.75963746E+00  1.11408834E+00
 -8.22765298E-06  2.75963746E+00  1.11408834E+00 -8.22765298E-06  2.75963746E+00
  1.11408834E+00 -8.22765298E-06 -4.78187886E+00 -1.00104419E+00 -1.66738418E+00
 -4.78187886E+00 -1.00104419E+00 -1.66738418E+00 -4.83113094E+00  1.90703980E+00
 -3.50156913E-06 -4.83113094E+00  1.90703980E+00 -3.50156913E-06 -7.48179028E-04
  4.11012080E+00 -9.26620576E-05 -7.48179028E-04  4.11012080E+00 -9.26620576E-05
  4.16680116E+00 -2.69729523E+00  2.33544488E-05  4.16680116E+00 -2.69729523E+00
  2.33544488E-05  4.38862987E+00  2.11604372E+00  7.49967333E-05  4.38862987E+00
  2.11604372E+00  7.49967333E-05 -4.78184592E+00 -1.00100500E+00  1.66743884E+00
 -4.78184592E+00 -1.00100500E+00  1.66743884E+00
Constraint Structure                       R   N=          36
 -4.06485104E+00 -1.23948749E-02  8.61469433E-06 -1.24310110E+00  3.48994354E-02
 -1.05876000E-05  3.51821751E-01  2.09861167E+00  1.42566860E-05  2.54169150E+00
 -1.45591895E+00  2.32848291E-06  1.44191996E-01 -2.17480886E+00 -1.24177176E-05
  2.75963746E+00  1.11408834E+00 -8.22765298E-06 -4.78187886E+00 -1.00104419E+00
 -1.66738418E+00 -4.83113094E+00  1.90703980E+00 -3.50156913E-06 -7.48179028E-04
  4.11012080E+00 -9.26620576E-05  4.16680116E+00 -2.69729523E+00  2.33544488E-05
  4.38862987E+00  2.11604372E+00  7.49967333E-05 -4.78184592E+00 -1.00100500E+00
  1.66743884E+00
Num ILSW                                   I              100
ILSW                                       I   N=         100
           0           1           0           1           2           0
           0           0           0           0           0          -1
           0           0           0           0           0           0
           0           0           0           0           1           0
           1           0           0           0           0           0
           0           0      100000           0          -1           0
           0           0           0           0           0           0
           0           0           0           1           1           0
           0           0           1           0           0           0
           0           0           4          40           0           0
           0           0           0           0           0           0
           0           0           0           0           0           0
           0           0           0           0           0           0
           0           0           0           0           0           0
           0           0           0           0           0           0
           0           0           0           0           0           0
           0           0           0           0
Num RLSW                                   I               40
RLSW                                       R   N=          40
  1.00000000E+00  1.00000000E+00  1.00000000E+00  1.00000000E+00  1.00000000E+00
  0.00000000E+00  0.00000000E+00  1.00000000E+00  0.00000000E+00  0.00000000E+00
  0.00000000E+00  0.00000000E+00  1.00000000E+00  0.00000000E+00  0.00000000E+00
  0.00000000E+00  0.00000000E+00  1.00000000E+00  0.00000000E+00  0.00000000E+00
  0.00000000E+00  0.00000000E+00  1.00000000E+00  0.00000000E+00  0.00000000E+00
  0.00000000E+00  0.00000000E+00  1.00000000E+00  0.00000000E+00  0.00000000E+00
  0.00000000E+00  0.00000000E+00  0.00000000E+00  0.00000000E+00  0.00000000E+00
  0.00000000E+00  0.00000000E+00  0.00000000E+00  1.00000000E+00  1.00000000E+00
MxBond                                     I                4
NBond                                      I   N=          12
           4           3           3           3           2           3
           1           1           1           1           1           1
IBond                                      I   N=          48
           2           7           8          12           1           3
           5           0           2           6           9           0
           5           6          10           0           2           4
           0           0           3           4          11           0
           1           0           0           0           1           0
           0           0           3           0           0           0
           4           0           0           0           6           0
           0           0           1           0           0           0
RBond                                      R   N=          48
  1.00000000E+00  1.00000000E+00  1.00000000E+00  1.00000000E+00  1.00000000E+00
  2.00000000E+00  1.00000000E+00  0.00000000E+00  2.00000000E+00  1.00000000E+00
  1.00000000E+00  0.00000000E+00  1.50000000E+00  1.50000000E+00  1.00000000E+00
  0.00000000E+00  1.00000000E+00  1.50000000E+00  0.00000000E+00  0.00000000E+00
  1.00000000E+00  1.50000000E+00  1.00000000E+00  0.00000000E+00  1.00000000E+00
  0.00000000E+00  0.00000000E+00  0.00000000E+00  1.00000000E+00  0.00000000E+00
  0.00000000E+00  0.00000000E+00  1.00000000E+00  0.00000000E+00  0.00000000E+00
  0.00000000E+00  1.00000000E+00  0.00000000E+00  0.00000000E+00  0.00000000E+00
  1.00000000E+00  0.00000000E+00  0.00000000E+00  0.00000000E+00  1.00000000E+00
  0.00000000E+00  0.00000000E+00  0.00000000E+00
Virial Ratio                               R      2.002618277809782E+00
SCF Energy                                 R     -2.638520969223988E+02
MP2 Energy                                 R     -2.646920499625085E+02
Total Energy                               R     -2.646920499625085E+02
Post-SCF wavefunction norm                 R      1.604168849478636E+00
RMS Force                                  R      1.396748711439310E-06
RMS Density                                R      9.793438663722800E-10
External E-field                           R   N=          35
  0.00000000E+00  0.00000000E+00  0.00000000E+00  0.00000000E+00  0.00000000E+00
  0.00000000E+00  0.00000000E+00  0.00000000E+00  0.00000000E+00  0.00000000E+00
  0.00000000E+00  0.00000000E+00  0.00000000E+00  0.00000000E+00  0.00000000E+00
  0.00000000E+00  0.00000000E+00  0.00000000E+00  0.00000000E+00  0.00000000E+00
  0.00000000E+00  0.00000000E+00  0.00000000E+00  0.00000000E+00  0.00000000E+00
  0.00000000E+00  0.00000000E+00  0.00000000E+00  0.00000000E+00  0.00000000E+00
  0.00000000E+00  0.00000000E+00  0.00000000E+00  0.00000000E+00  0.00000000E+00
IOpCl                                      I                0
IROHF                                      I                0
Alpha Orbital Energies                     R   N=         102
 -1.56217630E+01 -1.55387205E+01 -1.12938339E+01 -1.12521746E+01 -1.12430419E+01
 -1.12136403E+01 -1.32944879E+00 -1.15822724E+00 -1.02486857E+00 -9.33197367E-01
 -8.19148178E-01 -7.63583012E-01 -7.31802600E-01 -6.12425187E-01 -5.96800200E-01
 -5.92708345E-01 -5.45149759E-01 -5.36328677E-01 -5.21060433E-01 -4.24976270E-01
 -3.82406313E-01 -3.02790772E-01  1.91585041E-01  2.19309790E-01  2.36657750E-01
  2.66270078E-01  2.89303043E-01  2.97044605E-01  3.25887601E-01  3.58917892E-01
  4.13193133E-01  4.23837776E-01  4.38788267E-01  4.92953723E-01  5.63197457E-01
  6.56409590E-01  7.19763190E-01  7.50034226E-01  7.70882566E-01  7.87368214E-01
  8.30072096E-01  8.39557350E-01  8.68311604E-01  8.81118338E-01  9.00038091E-01
  9.45153086E-01  9.66946851E-01  1.02111933E+00  1.02384707E+00  1.05797582E+00
  1.08839164E+00  1.10757551E+00  1.12871390E+00  1.15510302E+00  1.16689635E+00
  1.17074500E+00  1.20119226E+00  1.23774392E+00  1.26458461E+00  1.30640621E+00
  1.44181022E+00  1.49896923E+00  1.55617740E+00  1.59165862E+00  1.63073270E+00
  1.65354201E+00  1.67189738E+00  1.77028481E+00  1.77497083E+00  1.82078579E+00
  1.84531256E+00  2.06433160E+00  2.12578109E+00  2.19685296E+00  2.22993127E+00
  2.30837891E+00  2.36628533E+00  2.37926154E+00  2.43931455E+00  2.50364964E+00
  2.54849127E+00  2.58407113E+00  2.59770839E+00  2.62333451E+00  2.68495371E+00
  2.69472689E+00  2.76152844E+00  2.84156547E+00  2.93365002E+00  2.94424674E+00
  2.99481225E+00  3.11017725E+00  3.12461249E+00  3.37659434E+00  3.41861893E+00
  3.48782506E+00  4.31623980E+00  4.45817977E+00  4.55414730E+00  4.64039736E+00
  4.70789875E+00  4.93796954E+00
Alpha MO coefficients                      R   N=       10404
 -1.09134174E-06  1.56747969E-05 -3.22096309E-05 -7.98625816E-06 -7.33403032E-10
 -4.42081921E-04 -1.49582478E-04  9.60505986E-05  1.41062434E-08 -2.22015073E-05
 -8.75782011E-07 -1.35535865E-05  9.26945036E-06  1.28197469E-09 -1.42194377E-09
  2.07069219E-05  4.32896069E-05  1.48821473E-05 -5.47764114E-05  5.76690206E-10
 -1.36164560E-03 -1.17499709E-03 -2.88631927E-04 -2.16032073E-08  5.99129404E-05
  1.16104878E-05  2.90162399E-05 -1.38142141E-05 -2.19932301E-09 -1.11916718E-09
  1.39604431E-05  1.46675552E-04  2.42316542E-04 -6.76713268E-05 -3.30473307E-09
  2.53046466E-03  5.75614843E-04 -1.43663515E-03  1.37747192E-08 -7.59807633E-05
 -6.39175419E-05 -8.01383673E-05  2.46411248E-05  1.07015420E-09  2.58552804E-09
  2.61261313E-05  1.86097898E-04  5.99120206E-05  2.56724031E-04  1.50908706E-09
  1.72075665E-03 -6.31123435E-04  9.57683409E-04 -5.83045756E-10 -5.02075383E-05
 -9.68687211E-05 -5.75836327E-05  3.94144099E-06  2.69614621E-10  1.81089467E-09
 -2.06981125E-04 -5.83456830E-06 -4.71213974E-05 -5.49984473E-06 -5.92479030E-10
 -2.83519483E-04 -1.47207306E-04 -6.94266548E-05  6.61727415E-10  9.90443822E-06
  4.35830656E-05 -6.20995857E-06 -1.74128170E-05 -9.58102328E-10 -2.47474029E-10
  9.94970701E-01  2.52213760E-02 -6.88220316E-05 -6.08764989E-05  7.09522869E-08
 -3.52365294E-03  1.10229746E-03  5.92423213E-04 -5.21114244E-08 -3.40693515E-03
 -3.41971840E-03 -3.41118929E-03  5.34125603E-05  7.99045121E-09  7.19594410E-10
  1.43127873E-05  1.72565299E-05 -1.30437572E-05  6.84641701E-06  1.11184498E-05
  3.61111905E-04  1.31899229E-06  2.57609589E-04  1.21971233E-04  1.23801205E-04
  1.43094260E-05  1.72497284E-05 -2.32562998E-06 -1.30958512E-05  1.75469753E-06
  1.84896786E-05  5.47184157E-10  4.84630205E-04  9.77246353E-05  3.10753501E-04
 -1.15112845E-08 -1.12694700E-05  2.68058538E-05 -3.66997708E-05  7.17894454E-05
 -1.60726840E-09 -5.73200383E-10  1.55716975E-05  3.61187967E-04  6.05717596E-05
 -1.07292321E-04 -4.77269556E-10  2.98054276E-03  1.77605820E-03 -1.08075318E-03
  1.55058220E-08 -1.78237431E-04 -3.08405414E-04 -8.05298055E-05  1.95813469E-04
  1.25123906E-09  1.67567638E-10  1.12866345E-05 -2.65579311E-05  5.45306324E-05
  3.49868751E-05  3.62325535E-09 -1.14817994E-03 -4.45633392E-04  9.54685455E-04
 -1.66843079E-08  2.78186166E-05  4.33393573E-05  2.60226449E-06 -9.32563383E-06
  1.70705827E-09 -2.92447420E-09  3.67286165E-05  4.20004902E-04 -1.91513061E-05
 -2.88619038E-05 -7.36685901E-10  2.45167475E-03 -1.19620253E-03  6.71426492E-04
 -1.15186038E-08 -5.84284116E-04 -9.40158616E-05 -3.57507115E-05 -1.45261909E-04
 -4.54458078E-09 -2.31460967E-09  9.95222009E-01  2.47842324E-02  8.61580770E-04
  1.85654617E-03  6.01196360E-09 -5.48298513E-03 -5.87680669E-04 -2.53358072E-03
 -9.24958034E-09 -2.69160550E-03 -2.84114344E-03 -3.12929622E-03  9.21551699E-05
  3.94246649E-09  8.53688829E-10  2.24145245E-04 -6.73315545E-05  1.08734969E-05
  5.70848521E-05 -1.21402389E-09 -2.45928521E-04 -1.27160010E-04  4.01286531E-04
  1.13067421E-08  8.94479598E-05  5.54543389E-06 -5.03625040E-05  1.15680105E-05
  7.12720626E-11  2.72133683E-10  1.77261709E-05 -1.12519569E-05 -3.21458968E-05
 -1.01746838E-04 -5.98700187E-05 -3.01278158E-04  3.39598096E-05  2.36917856E-04
 -3.10307901E-05  3.22997366E-05  1.77275564E-05 -1.12476627E-05  8.19965871E-06
 -4.81080234E-05  4.46882062E-05 -3.75416118E-05 -1.36766107E-09  8.67886034E-04
  3.14932700E-04  5.29842457E-04  1.08678518E-08 -7.17204231E-06  2.52767976E-05
 -3.14704430E-05  3.92689710E-05  7.66579035E-10 -2.65446286E-09 -2.06089355E-04
 -6.46450239E-05  8.54808753E-06 -1.86512743E-04  2.93033482E-09 -6.25034161E-04
  1.00313359E-03 -1.44757441E-03 -3.92324819E-08  1.40214844E-04  1.32966622E-04
  8.93710734E-06 -1.77467461E-04 -2.40210244E-09 -1.85965542E-09 -4.62138212E-04
 -2.61942695E-04  2.39503977E-04 -2.28337491E-05 -9.07019841E-09  2.13570707E-03
 -1.07506524E-04 -1.95728118E-03  2.36433936E-08  1.90173263E-04  1.43407455E-04
 -5.51958000E-05 -1.28463044E-04 -3.08463590E-09  6.51245377E-09  9.95644527E-01
  2.68094824E-02 -1.74187222E-04  9.50960577E-04 -2.61832036E-09 -5.97883956E-03
 -1.33590094E-03  1.01514851E-03 -3.01711424E-08 -1.51578338E-03 -1.46766327E-03
 -2.49565785E-03 -6.99945626E-05  1.19069554E-08 -7.52513200E-09 -2.91545746E-04
  3.81841934E-04  2.63690071E-05  1.07476140E-05 -1.88847110E-10 -1.74182242E-03
  3.49646970E-05 -1.36224949E-03  8.01670973E-09 -1.16203929E-04 -2.63648996E-04
  2.43192885E-04 -1.81008504E-05 -2.54394145E-09 -9.26436668E-10 -2.32847708E-04
  5.14502404E-04 -8.26129798E-05 -2.02771538E-05 -3.23303727E-09 -1.33095638E-03
  2.23625967E-03  1.55008893E-03  1.84606271E-08 -1.79138871E-04 -6.14576660E-04
  2.45409879E-04 -6.13450626E-05  1.30070137E-08  6.81603861E-09  9.55985011E-06
  4.72735535E-05 -8.18957132E-05 -1.90652646E-04  5.83623319E-05  7.06094722E-04
 -2.25649109E-04  2.44678131E-03 -3.22825547E-04 -7.95898391E-04  9.55481081E-06
  4.72655877E-05  4.05104622E-04 -3.81207013E-05 -5.72822937E-05 -3.82461036E-05
 -5.80389986E-09 -6.22202496E-05  9.92221604E-05  3.49785063E-06  3.88905175E-08
  1.75418126E-05  1.23746870E-05 -5.50545653E-05  1.10880047E-05  3.35931892E-10
 -2.72757296E-09  7.10602002E-02  1.79831254E-03 -6.57201630E-05 -1.83154581E-04
 -1.99667181E-09  3.12598489E-03  9.22711491E-04  1.15184920E-03 -4.17522876E-08
 -4.64899218E-04 -3.28254340E-04 -2.38042661E-04 -2.85166546E-05 -1.00019629E-08
 -5.49803139E-09  9.93054539E-01  2.72525530E-02  1.11553644E-03 -4.05154729E-04
 -7.18759591E-08 -9.08105970E-03  6.69451273E-04  3.79388826E-04  1.10661406E-07
 -1.65909970E-03 -1.52765026E-03 -2.39599076E-03 -1.64451282E-04 -1.15849305E-10
 -1.89559370E-08  4.59887923E-04 -2.39731335E-04 -2.27814723E-05  1.06835765E-04
  1.19653723E-09  3.21871999E-03 -2.90323053E-03  1.62979150E-03 -2.45940374E-08
  1.38683400E-04  2.75668217E-04 -7.82611514E-05 -5.36243377E-05  2.03506723E-09
  5.95798650E-10  7.77920416E-05  2.96757179E-04 -2.61267299E-05  6.53707521E-05
  4.47582633E-10 -3.49207139E-03 -1.03741465E-03 -1.00972694E-03  3.94137769E-09
  9.24503356E-05  2.71859178E-04  2.11831978E-04 -6.63108739E-05 -2.54611669E-09
  1.28717884E-09 -2.19432619E-04  5.16230088E-04 -5.18084418E-05  4.55651031E-06
 -5.37566656E-09 -1.16176814E-03  2.12092429E-03  1.23318280E-03 -2.25355720E-09
 -6.26760822E-04 -2.61566594E-04  2.24589733E-04  1.96039971E-04  2.38522914E-08
  2.59164454E-09  2.38804183E-05  4.18065774E-05 -5.14542429E-05  1.24301614E-04
 -3.07889540E-04  1.94261116E-03  1.31259713E-04  1.20623168E-03 -2.74658670E-04
 -7.48642514E-04  2.38708773E-05  4.17760345E-05  1.12575801E-02  4.60001219E-04
 -1.91422253E-04 -4.57115778E-05  2.76025505E-09  2.60615762E-03  1.48919248E-03
  1.00024340E-03 -5.17354538E-09 -6.69465851E-04 -1.31663129E-04 -1.24104027E-04
  9.56749259E-05  6.38692049E-09 -3.77966344E-09  9.93102315E-01  2.71899860E-02
  3.33093948E-04 -3.04077030E-04  3.01849761E-08 -1.19547779E-02  3.27635300E-04
 -2.70814408E-03 -6.64507785E-08 -1.25912990E-03 -1.43119442E-03 -2.23582635E-03
 -3.87343290E-05 -1.71612074E-09  6.70086072E-11 -7.15813210E-02 -2.14406076E-03
  9.96762113E-05  1.92193676E-04  9.39106606E-09  6.42687311E-03 -1.63262165E-03
 -1.79610540E-03 -3.70245414E-08 -1.26232688E-04 -3.36213513E-04  6.83597160E-05
 -5.49157355E-05 -2.19293665E-09 -4.49525295E-09  1.86870590E-04 -1.45584561E-04
 -9.22556628E-05  7.01286429E-05 -1.56369294E-09  2.81433809E-03 -1.76681020E-03
  1.91285216E-03 -2.62520758E-08  2.02833559E-04  1.17458244E-04 -4.80820086E-05
 -7.05325038E-06  2.22661522E-09 -1.29208962E-09 -1.88144047E-04  5.34755406E-04
 -6.63986631E-05 -1.09145552E-05 -2.54362911E-09 -2.09912204E-03 -2.86627470E-04
 -1.35571571E-03  1.30810705E-08 -2.06384989E-04 -4.30815609E-04  2.95112356E-04
  1.60129533E-04 -1.89537192E-09 -5.72131803E-10  1.21676841E-04  2.85469299E-04
 -1.42826347E-04 -5.87938514E-05 -2.33313678E-09 -3.26312622E-03  1.20079994E-03
  1.41509947E-03  1.43255596E-08  3.73995135E-04  1.07457165E-04  2.22636920E-04
 -1.46928133E-05  4.78606508E-09  4.43100068E-09 -1.18560156E-04  4.81588081E-04
 -1.33078172E-04 -3.45218195E-04 -8.54844348E-05 -2.51463083E-04  9.16631335E-05
  8.73973288E-04 -1.60058209E-04 -2.65083589E-04 -1.18568097E-04  4.81599386E-04
  9.95680592E-01  2.86172680E-02  1.80962132E-04  3.45034137E-05  1.22363425E-09
 -1.62820677E-02 -1.25748108E-03 -1.44506931E-04 -3.41495623E-09 -1.83028890E-03
 -1.83610123E-03 -1.82259078E-03 -2.68923286E-05  1.78929441E-09  1.53252924E-09
 -1.15749989E-02 -1.57623578E-04  7.92149324E-05  9.39531397E-06 -1.65123868E-09
  3.65386964E-03 -3.19328109E-03  6.29542095E-04  1.53955231E-08 -5.63468457E-04
 -2.13540514E-04 -1.08486248E-04  1.99218580E-05  2.84675434E-09  1.20046646E-10
  3.98481061E-04 -6.20637870E-05  5.57086803E-05 -3.37678708E-05 -1.82965678E-09
  2.08190821E-05  1.04298124E-04 -1.74860078E-04  4.09020995E-09 -6.12943510E-05
  8.80733296E-05 -5.19835310E-05  3.73780322E-05 -2.96539514E-10  2.67613580E-09
 -3.18835635E-05 -5.92453002E-05 -4.53843450E-05 -2.69596680E-05  1.07769783E-09
  2.91168823E-04 -2.18455079E-04 -2.19666491E-04 -2.61549548E-09  3.94994311E-05
 -1.15530812E-05 -2.00893649E-05  1.17851160E-05  7.66320523E-10  2.25853549E-10
 -2.39005097E-05 -1.72448005E-04  1.02332311E-04  3.72307820E-06 -3.65393990E-10
  8.12961179E-04 -5.39250348E-04  5.01161646E-04 -7.78881190E-10 -6.69701235E-05
  5.27568730E-05 -1.32281800E-04 -6.79629082E-05 -1.60919770E-09 -5.37290532E-10