10442                                                                   
Freq      RMP2-FC                                                     6-31G(d)            
Number of atoms                            I               12
Info1-9                                    I   N=           9
          25          22        1002           0           0         100
           6           2           1
Charge                                     I                0
Multiplicity                               I                1
Number of electrons                        I               34
Number of alpha electrons                  I               17
Number of beta electrons                   I               17
Number of basis functions                  I               76
Number of independent functions            I               76
Number of point charges in /Mol/           I                0
Number of translation vectors              I                0
Atomic numbers                             I   N=          12
           8           6           6           6           1           1
           1           1           1           1           1           1
Nuclear charges                            R   N=          12
  8.00000000E+00  6.00000000E+00  6.00000000E+00  6.00000000E+00  1.00000000E+00
  1.00000000E+00  1.00000000E+00  1.00000000E+00  1.00000000E+00  1.00000000E+00
  1.00000000E+00  1.00000000E+00
Current cartesian coordinates              R   N=          36
 -3.59940730E+00  1.76021024E-01 -1.71675618E-01  9.69748002E-01  9.90539651E-01
 -8.19509992E-02 -1.15425473E+00 -9.43747137E-01  5.19968725E-02  3.57844570E+00
 -2.35328700E-01  3.05919240E-02  7.47873049E-01  2.07415562E+00 -1.83040547E+00
  7.57371091E-01  2.33313582E+00  1.48593216E+00 -1.01562305E+00 -2.26482854E+00
 -1.53108112E+00 -9.98704639E-01 -2.05545703E+00  1.80356788E+00  3.84790281E+00
 -1.54116934E+00 -1.54990676E+00  5.07645154E+00  1.18394178E+00 -6.00903341E-02
  3.82454773E+00 -1.30424894E+00  1.78393020E+00 -3.80819396E+00  1.29751956E+00
  1.26763161E+00
Force Field                                I                0
Int Atom Types                             I   N=          12
           0           0           0           0           0           0
           0           0           0           0           0           0
MM charges                                 R   N=          12
  0.00000000E+00  0.00000000E+00  0.00000000E+00  0.00000000E+00  0.00000000E+00
  0.00000000E+00  0.00000000E+00  0.00000000E+00  0.00000000E+00  0.00000000E+00
  0.00000000E+00  0.00000000E+00
Integer atomic weights                     I   N=          12
          16          12          12          12           1           1
           1           1           1           1           1           1
Real atomic weights                        R   N=          12
  1.59949146E+01  1.20000000E+01  1.20000000E+01  1.20000000E+01  1.00782504E+00
  1.00782504E+00  1.00782504E+00  1.00782504E+00  1.00782504E+00  1.00782504E+00
  1.00782504E+00  1.00782504E+00
Atom fragment info                         I   N=          12
           0           0           0           0           0           0
           0           0           0           0           0           0
Atom residue num                           I   N=          12
           0           0           0           0           0           0
           0           0           0           0           0           0
Nuclear spins                              I   N=          12
           0           0           0           0           1           1
           1           1           1           1           1           1
Nuclear ZEff                               R   N=          12
 -5.60000000E+00 -3.60000000E+00 -3.60000000E+00 -3.60000000E+00 -1.00000000E+00
 -1.00000000E+00 -1.00000000E+00 -1.00000000E+00 -1.00000000E+00 -1.00000000E+00
 -1.00000000E+00 -1.00000000E+00
Nuclear QMom                               R   N=          12
  0.00000000E+00  0.00000000E+00  0.00000000E+00  0.00000000E+00  0.00000000E+00
  0.00000000E+00  0.00000000E+00  0.00000000E+00  0.00000000E+00  0.00000000E+00
  0.00000000E+00  0.00000000E+00
Nuclear GFac                               R   N=          12
  0.00000000E+00  0.00000000E+00  0.00000000E+00  0.00000000E+00  2.79284600E+00
  2.79284600E+00  2.79284600E+00  2.79284600E+00  2.79284600E+00  2.79284600E+00
  2.79284600E+00  2.79284600E+00
MicOpt                                     I   N=          12
          -1          -1          -1          -1          -1          -1
          -1          -1          -1          -1          -1          -1
Number of contracted shells                I               32
Number of primitive shells                 I               76
Pure/Cartesian d shells                    I                1
Pure/Cartesian f shells                    I                0
Highest angular momentum                   I                2
Largest degree of contraction              I                6
Shell types                                I   N=          32
           0          -1          -1           2           0          -1
          -1           2           0          -1          -1           2
           0          -1          -1           2           0           0
           0           0           0           0           0           0
           0           0           0           0           0           0
           0           0
Number of primitives per shell             I   N=          32
           6           3           1           1           6           3
           1           1           6           3           1           1
           6           3           1           1           3           1
           3           1           3           1           3           1
           3           1           3           1           3           1
           3           1
Shell to atom map                          I   N=          32
           1           1           1           1           2           2
           2           2           3           3           3           3
           4           4           4           4           5           5
           6           6           7           7           8           8
           9           9          10          10          11          11
          12          12
Primitive exponents                        R   N=          76
  5.48467166E+03  8.25234946E+02  1.88046958E+02  5.29645000E+01  1.68975704E+01
  5.79963534E+00  1.55396162E+01  3.59993359E+00  1.01376175E+00  2.70005823E-01
  8.00000000E-01  3.04752488E+03  4.57369518E+02  1.03948685E+02  2.92101553E+01
  9.28666296E+00  3.16392696E+00  7.86827235E+00  1.88128854E+00  5.44249258E-01
  1.68714478E-01  8.00000000E-01  3.04752488E+03  4.57369518E+02  1.03948685E+02
  2.92101553E+01  9.28666296E+00  3.16392696E+00  7.86827235E+00  1.88128854E+00
  5.44249258E-01  1.68714478E-01  8.00000000E-01  3.04752488E+03  4.57369518E+02
  1.03948685E+02  2.92101553E+01  9.28666296E+00  3.16392696E+00  7.86827235E+00
  1.88128854E+00  5.44249258E-01  1.68714478E-01  8.00000000E-01  1.87311370E+01
  2.82539436E+00  6.40121692E-01  1.61277759E-01  1.87311370E+01  2.82539436E+00
  6.40121692E-01  1.61277759E-01  1.87311370E+01  2.82539436E+00  6.40121692E-01
  1.61277759E-01  1.87311370E+01  2.82539436E+00  6.40121692E-01  1.61277759E-01
  1.87311370E+01  2.82539436E+00  6.40121692E-01  1.61277759E-01  1.87311370E+01
  2.82539436E+00  6.40121692E-01  1.61277759E-01  1.87311370E+01  2.82539436E+00
  6.40121692E-01  1.61277759E-01  1.87311370E+01  2.82539436E+00  6.40121692E-01
  1.61277759E-01
Contraction coefficients                   R   N=          76
  1.83107443E-03  1.39501722E-02  6.84450781E-02  2.32714336E-01  4.70192898E-01
  3.58520853E-01 -1.10777550E-01 -1.48026263E-01  1.13076702E+00  1.00000000E+00
  1.00000000E+00  1.83473713E-03  1.40373228E-02  6.88426223E-02  2.32184443E-01
  4.67941348E-01  3.62311985E-01 -1.19332420E-01 -1.60854152E-01  1.14345644E+00
  1.00000000E+00  1.00000000E+00  1.83473713E-03  1.40373228E-02  6.88426223E-02
  2.32184443E-01  4.67941348E-01  3.62311985E-01 -1.19332420E-01 -1.60854152E-01
  1.14345644E+00  1.00000000E+00  1.00000000E+00  1.83473713E-03  1.40373228E-02
  6.88426223E-02  2.32184443E-01  4.67941348E-01  3.62311985E-01 -1.19332420E-01
 -1.60854152E-01  1.14345644E+00  1.00000000E+00  1.00000000E+00  3.34946043E-02
  2.34726953E-01  8.13757326E-01  1.00000000E+00  3.34946043E-02  2.34726953E-01
  8.13757326E-01  1.00000000E+00  3.34946043E-02  2.34726953E-01  8.13757326E-01
  1.00000000E+00  3.34946043E-02  2.34726953E-01  8.13757326E-01  1.00000000E+00
  3.34946043E-02  2.34726953E-01  8.13757326E-01  1.00000000E+00  3.34946043E-02
  2.34726953E-01  8.13757326E-01  1.00000000E+00  3.34946043E-02  2.34726953E-01
  8.13757326E-01  1.00000000E+00  3.34946043E-02  2.34726953E-01  8.13757326E-01
  1.00000000E+00
P(S=P) Contraction coefficients            R   N=          76
  0.00000000E+00  0.00000000E+00  0.00000000E+00  0.00000000E+00  0.00000000E+00
  0.00000000E+00  7.08742682E-02  3.39752839E-01  7.27158577E-01  1.00000000E+00
  0.00000000E+00  0.00000000E+00  0.00000000E+00  0.00000000E+00  0.00000000E+00
  0.00000000E+00  0.00000000E+00  6.89990666E-02  3.16423961E-01  7.44308291E-01
  1.00000000E+00  0.00000000E+00  0.00000000E+00  0.00000000E+00  0.00000000E+00
  0.00000000E+00  0.00000000E+00  0.00000000E+00  6.89990666E-02  3.16423961E-01
  7.44308291E-01  1.00000000E+00  0.00000000E+00  0.00000000E+00  0.00000000E+00
  0.00000000E+00  0.00000000E+00  0.00000000E+00  0.00000000E+00  6.89990666E-02
  3.16423961E-01  7.44308291E-01  1.00000000E+00  0.00000000E+00  0.00000000E+00
  0.00000000E+00  0.00000000E+00  0.00000000E+00  0.00000000E+00  0.00000000E+00
  0.00000000E+00  0.00000000E+00  0.00000000E+00  0.00000000E+00  0.00000000E+00
  0.00000000E+00  0.00000000E+00  0.00000000E+00  0.00000000E+00  0.00000000E+00
  0.00000000E+00  0.00000000E+00  0.00000000E+00  0.00000000E+00  0.00000000E+00
  0.00000000E+00  0.00000000E+00  0.00000000E+00  0.00000000E+00  0.00000000E+00
  0.00000000E+00  0.00000000E+00  0.00000000E+00  0.00000000E+00  0.00000000E+00
  0.00000000E+00
Coordinates of each shell                  R   N=          96
 -3.59940730E+00  1.76021024E-01 -1.71675618E-01 -3.59940730E+00  1.76021024E-01
 -1.71675618E-01 -3.59940730E+00  1.76021024E-01 -1.71675618E-01 -3.59940730E+00
  1.76021024E-01 -1.71675618E-01  9.69748002E-01  9.90539651E-01 -8.19509992E-02
  9.69748002E-01  9.90539651E-01 -8.19509992E-02  9.69748002E-01  9.90539651E-01
 -8.19509992E-02  9.69748002E-01  9.90539651E-01 -8.19509992E-02 -1.15425473E+00
 -9.43747137E-01  5.19968725E-02 -1.15425473E+00 -9.43747137E-01  5.19968725E-02
 -1.15425473E+00 -9.43747137E-01  5.19968725E-02 -1.15425473E+00 -9.43747137E-01
  5.19968725E-02  3.57844570E+00 -2.35328700E-01  3.05919240E-02  3.57844570E+00
 -2.35328700E-01  3.05919240E-02  3.57844570E+00 -2.35328700E-01  3.05919240E-02
  3.57844570E+00 -2.35328700E-01  3.05919240E-02  7.47873049E-01  2.07415562E+00
 -1.83040547E+00  7.47873049E-01  2.07415562E+00 -1.83040547E+00  7.57371091E-01
  2.33313582E+00  1.48593216E+00  7.57371091E-01  2.33313582E+00  1.48593216E+00
 -1.01562305E+00 -2.26482854E+00 -1.53108112E+00 -1.01562305E+00 -2.26482854E+00
 -1.53108112E+00 -9.98704639E-01 -2.05545703E+00  1.80356788E+00 -9.98704639E-01
 -2.05545703E+00  1.80356788E+00  3.84790281E+00 -1.54116934E+00 -1.54990676E+00
  3.84790281E+00 -1.54116934E+00 -1.54990676E+00  5.07645154E+00  1.18394178E+00
 -6.00903341E-02  5.07645154E+00  1.18394178E+00 -6.00903341E-02  3.82454773E+00
 -1.30424894E+00  1.78393020E+00  3.82454773E+00 -1.30424894E+00  1.78393020E+00
 -3.80819396E+00  1.29751956E+00  1.26763161E+00 -3.80819396E+00  1.29751956E+00
  1.26763161E+00
Constraint Structure                       R   N=          36
 -3.59940730E+00  1.76021024E-01 -1.71675618E-01  9.69748002E-01  9.90539651E-01
 -8.19509992E-02 -1.15425473E+00 -9.43747137E-01  5.19968725E-02  3.57844570E+00
 -2.35328700E-01  3.05919240E-02  7.47873049E-01  2.07415562E+00 -1.83040547E+00
  7.57371091E-01  2.33313582E+00  1.48593216E+00 -1.01562305E+00 -2.26482854E+00
 -1.53108112E+00 -9.98704639E-01 -2.05545703E+00  1.80356788E+00  3.84790281E+00
 -1.54116934E+00 -1.54990676E+00  5.07645154E+00  1.18394178E+00 -6.00903341E-02
  3.82454773E+00 -1.30424894E+00  1.78393020E+00 -3.80819396E+00  1.29751956E+00
  1.26763161E+00
Num ILSW                                   I              100
ILSW                                       I   N=         100
           0           1           0           0           2           0
           0           0           0           0           0          -1
           0           0           0           0           0           0
           0           0           0           0           1           0
           1           0           0           0           0           0
           0           0      100000           0          -1           0
           0           0           0           0           0           0
           0           0           0           1           1           0
           0           0           1           0           0           0
           0           0           4          40           0           0
           0           0           0           0           0           0
           0           0           0           0           0           0
           0           0           0           0           0           0
           0           0           0           0           0           0
           0           0           0           0           0           0
           0           0           0           0           0           0
           0           0           0           0
Num RLSW                                   I               40
RLSW                                       R   N=          40
  1.00000000E+00  1.00000000E+00  1.00000000E+00  1.00000000E+00  1.00000000E+00
  0.00000000E+00  0.00000000E+00  1.00000000E+00  0.00000000E+00  0.00000000E+00
  0.00000000E+00  0.00000000E+00  1.00000000E+00  0.00000000E+00  0.00000000E+00
  0.00000000E+00  0.00000000E+00  1.00000000E+00  0.00000000E+00  0.00000000E+00
  0.00000000E+00  0.00000000E+00  1.00000000E+00  0.00000000E+00  0.00000000E+00
  0.00000000E+00  0.00000000E+00  1.00000000E+00  0.00000000E+00  0.00000000E+00
  0.00000000E+00  0.00000000E+00  0.00000000E+00  0.00000000E+00  0.00000000E+00
  0.00000000E+00  0.00000000E+00  0.00000000E+00  1.00000000E+00  1.00000000E+00
MxBond                                     I                4
NBond                                      I   N=          12
           2           4           4           4           1           1
           1           1           1           1           1           1
IBond                                      I   N=          48
           3          12           0           0           3           4
           5           6           1           2           7           8
           2           9          10          11           2           0
           0           0           2           0           0           0
           3           0           0           0           3           0
           0           0           4           0           0           0
           4           0           0           0           4           0
           0           0           1           0           0           0
RBond                                      R   N=          48
  1.00000000E+00  1.00000000E+00  0.00000000E+00  0.00000000E+00  1.00000000E+00
  1.00000000E+00  1.00000000E+00  1.00000000E+00  1.00000000E+00  1.00000000E+00
  1.00000000E+00  1.00000000E+00  1.00000000E+00  1.00000000E+00  1.00000000E+00
  1.00000000E+00  1.00000000E+00  0.00000000E+00  0.00000000E+00  0.00000000E+00
  1.00000000E+00  0.00000000E+00  0.00000000E+00  0.00000000E+00  1.00000000E+00
  0.00000000E+00  0.00000000E+00  0.00000000E+00  1.00000000E+00  0.00000000E+00
  0.00000000E+00  0.00000000E+00  1.00000000E+00  0.00000000E+00  0.00000000E+00
  0.00000000E+00  1.00000000E+00  0.00000000E+00  0.00000000E+00  0.00000000E+00
  1.00000000E+00  0.00000000E+00  0.00000000E+00  0.00000000E+00  1.00000000E+00
  0.00000000E+00  0.00000000E+00  0.00000000E+00
Virial Ratio                               R      2.001965473907354E+00
SCF Energy                                 R     -1.931088759687985E+02
MP2 Energy                                 R     -1.936826506097216E+02
Total Energy                               R     -1.936826506097216E+02
Post-SCF wavefunction norm                 R      1.535142920073798E+00
RMS Force                                  R      2.739714280280178E-07
RMS Density                                R      1.574831813787831E-09
External E-field                           R   N=          35
  0.00000000E+00  0.00000000E+00  0.00000000E+00  0.00000000E+00  0.00000000E+00
  0.00000000E+00  0.00000000E+00  0.00000000E+00  0.00000000E+00  0.00000000E+00
  0.00000000E+00  0.00000000E+00  0.00000000E+00  0.00000000E+00  0.00000000E+00
  0.00000000E+00  0.00000000E+00  0.00000000E+00  0.00000000E+00  0.00000000E+00
  0.00000000E+00  0.00000000E+00  0.00000000E+00  0.00000000E+00  0.00000000E+00
  0.00000000E+00  0.00000000E+00  0.00000000E+00  0.00000000E+00  0.00000000E+00
  0.00000000E+00  0.00000000E+00  0.00000000E+00  0.00000000E+00  0.00000000E+00
IOpCl                                      I                0
IROHF                                      I                0
Alpha Orbital Energies                     R   N=          76
 -2.05572181E+01 -1.12723792E+01 -1.12240113E+01 -1.12212135E+01 -1.34742529E+00
 -1.05443664E+00 -9.14963365E-01 -8.14425249E-01 -6.85719203E-01 -6.29810398E-01
 -5.93293744E-01 -5.85372187E-01 -5.43211615E-01 -5.00957122E-01 -4.98584170E-01
 -4.69823710E-01 -4.32103314E-01  2.21133411E-01  2.36899430E-01  2.81014043E-01
  2.90287142E-01  3.19761856E-01  3.23592790E-01  3.38425149E-01  3.50123064E-01
  4.07011572E-01  4.18920925E-01  4.42210504E-01  7.26919624E-01  7.39935383E-01
  7.47876416E-01  7.89402179E-01  8.15350005E-01  9.19648797E-01  9.34121826E-01
  9.48712472E-01  1.00679617E+00  1.07536077E+00  1.13127109E+00  1.15604715E+00
  1.17004029E+00  1.17163293E+00  1.18717537E+00  1.20238622E+00  1.21352724E+00
  1.23904855E+00  1.30396184E+00  1.32717394E+00  1.45461948E+00  1.60694770E+00
  1.68415734E+00  1.71315636E+00  1.80252786E+00  1.86985845E+00  1.92314237E+00
  2.09464306E+00  2.12948811E+00  2.23322297E+00  2.26382301E+00  2.28630820E+00
  2.29589083E+00  2.44511821E+00  2.49209582E+00  2.59036619E+00  2.60488016E+00
  2.66609167E+00  2.74975519E+00  2.77151967E+00  2.83259660E+00  2.92936694E+00
  3.09077401E+00  3.23358432E+00  4.17644114E+00  4.58304586E+00  4.72341113E+00
  4.89887159E+00
Alpha MO coefficients                      R   N=        5776
  9.94662577E-01  2.11413183E-02  8.27261661E-04  2.46499234E-04  9.74414801E-04
  3.92816601E-03 -3.96055779E-04 -1.29289768E-04 -4.82730479E-04 -4.11060378E-03
 -3.97878901E-03 -4.00596917E-03  1.46951307E-04 -3.13766181E-05 -1.20318586E-04
  2.42777534E-06  5.62547297E-05  4.39597343E-05  3.69044318E-06  1.94853922E-05
 -2.68690021E-04  8.36272775E-06  1.34561138E-04 -2.31994748E-04 -5.94924604E-05
 -1.39740875E-05 -7.66956030E-06 -7.69233983E-06  1.08822083E-05  6.03148474E-06
 -2.51369446E-05  2.09935166E-04 -3.33125397E-04  1.44246785E-04 -6.02881291E-05
  2.22505266E-04  2.59609540E-04  1.15881942E-04  3.62659150E-04  3.93025234E-05
 -2.30092940E-05 -7.19250830E-05 -4.32272905E-05 -2.88848007E-06 -1.27013768E-05
 -8.43220296E-07 -8.34615967E-06 -1.50949913E-05 -1.35056989E-06 -4.08499099E-07
  9.49710585E-05 -2.71980197E-05  5.22738587E-05  5.75096373E-05  1.09891538E-05
  1.61003823E-06  7.92514893E-08 -1.00373152E-05 -8.01233263E-06  2.35335218E-06
 -8.52884712E-07 -1.39076812E-04  1.52647974E-05  7.27122908E-05  2.31834652E-05
  5.04423651E-05 -6.90044809E-05 -1.62318408E-04  3.05491318E-07  3.57554314E-05
 -4.52965017E-06 -3.17381037E-05 -2.34147771E-06 -1.57214227E-05  4.02769515E-04
 -2.27719102E-04 -1.49279061E-04  1.12650135E-04  1.13984034E-04 -2.74690155E-05
  4.61188819E-05  1.59256821E-03  3.10808374E-05 -6.51744116E-06 -1.44762092E-04
 -6.49809405E-04 -1.66671122E-04  3.16037352E-05  3.92432097E-04 -6.17633328E-05
  4.70592449E-07  6.25314659E-03  2.23341079E-04 -4.08477314E-05 -2.64559451E-05
  8.79858535E-06  3.50422754E-03 -1.78933758E-03 -1.14427829E-03  3.61388180E-06
 -3.21840303E-04 -2.81594504E-04 -1.18874432E-04 -1.33862598E-04  1.61247752E-05
  1.63075544E-05  9.95874048E-01  2.75376788E-02 -6.09767645E-04  3.50662526E-04
 -2.35434206E-05 -1.44611835E-02 -1.04490765E-03 -4.50125625E-04  1.66296858E-04
 -1.40942814E-03 -1.55468918E-03 -1.49422801E-03 -1.02307330E-04  2.22575020E-05
  1.67818606E-05 -1.40769141E-04 -2.75222657E-04  1.03440436E-04  6.15925509E-05
 -6.93831498E-06  9.81482183E-04 -4.81578990E-04 -2.84884384E-04  5.26272153E-05
 -2.19413164E-05 -4.68245684E-05 -1.14638191E-04  9.97482006E-06 -2.90952152E-06
 -5.98595438E-06 -1.66873277E-04  8.23275437E-05 -1.45609047E-04  9.42083890E-05
  1.94500841E-04  2.66414765E-03  1.62111410E-04  2.54882897E-03 -5.79630628E-05
 -2.78465833E-04 -2.42112868E-05  3.46808792E-04 -6.08269433E-05 -3.15065910E-04
  3.91915107E-05  3.01060172E-04 -2.15715148E-05 -1.37453674E-04 -5.60271176E-05
 -1.58609967E-05 -1.74109121E-05  2.17487368E-04 -5.54697031E-05  3.01860535E-05
  1.02694793E-04 -3.86824169E-05 -3.74480019E-05 -1.51888766E-04  3.93413430E-05
  2.68763101E-06  7.95708718E-06  9.90033742E-01  2.84454907E-02  6.12569272E-05
 -8.66126898E-05  6.37761893E-05 -1.69124971E-02  1.68134205E-04  9.36687590E-04
 -1.14214403E-04 -1.68019241E-03 -1.67380137E-03 -1.59893646E-03  8.11714086E-06
  2.63073621E-07 -5.42512176E-07 -6.52145611E-03 -1.75023566E-04  8.67888475E-05
  1.45907177E-05 -7.34107076E-06  4.49318497E-03  1.53724001E-03  1.32784818E-03
 -8.83756230E-05 -2.96699832E-04 -3.24848952E-04 -1.08982275E-04 -1.82680407E-04
  2.32150061E-05  1.73780342E-05  1.06933404E-01  3.11373536E-03 -8.22972900E-05
 -1.78362000E-05  5.00020614E-06  2.53262602E-03 -1.60679041E-03  7.94429790E-04
 -8.72957565E-05 -6.19083870E-04 -4.12648185E-04 -2.87846136E-04  1.98418129E-04
 -1.67797315E-05  1.20585491E-05  2.24850657E-04  2.62992834E-03  2.04250031E-04
  2.69271664E-03 -1.66021161E-04 -1.82931988E-05 -1.66039805E-04 -2.22599774E-05
 -1.41068614E-04  2.96523391E-04 -1.30256059E-04  1.25668994E-04 -1.40061104E-04
  3.17722413E-04 -5.28103648E-05 -1.59664172E-04 -4.01348046E-05 -1.64109507E-04
 -2.72013153E-05  9.93191465E-06  5.53950303E-06  8.80304233E-04  3.43418228E-04
 -7.74285825E-05 -1.24183285E-06 -6.99803018E-05 -1.26756057E-04 -1.20227660E-04
 -1.33535073E-05  4.37896682E-06  6.93779017E-06 -1.07230977E-01 -2.96901743E-03
  1.18791201E-05  2.57650959E-05 -7.65672304E-06  5.25489608E-03  1.60677595E-03
 -7.13742239E-04  6.58602332E-05 -2.34192432E-04 -3.55768934E-05  8.19642887E-05
  1.49695176E-04 -1.24468807E-05  1.19743133E-05  7.49601445E-04 -2.03581338E-04
 -7.97042045E-05  3.32794492E-06  3.60590063E-06 -2.94246183E-05  5.19599847E-04
 -5.41370828E-04  6.25480694E-05 -2.60918166E-05 -4.38792770E-05 -7.71100249E-05
  5.26494220E-05 -8.76677546E-06 -2.29722546E-06  9.89993374E-01  2.82581930E-02
 -1.03009209E-04 -2.62928083E-05  6.25854790E-06 -1.54100817E-02  9.48559150E-04
 -1.33126585E-04  2.57956445E-05 -1.78551368E-03 -1.77420936E-03 -1.79179781E-03
  1.06969619E-05 -5.03006886E-07 -1.30731710E-06 -1.64224123E-04 -2.23492916E-04
 -1.57763609E-04 -2.37084424E-04 -4.03949019E-05 -2.51732714E-04 -4.74037192E-05
 -2.61625015E-04  1.74380310E-04  2.60651707E-03  1.27728510E-04  2.38089686E-03
  1.69913796E-04  2.60134848E-03 -3.93593104E-05  1.09410073E-04 -2.01974783E-01
  4.54136149E-01  5.94704095E-02  1.19489870E-02  5.92292693E-02  4.34739629E-01
  3.66422234E-02  7.16269663E-03  3.55194492E-02  1.23822047E-02  8.45404979E-03
  1.41192548E-02 -6.82433118E-03  2.01502862E-03  1.20444411E-02 -1.60553912E-02
  2.91682192E-02 -1.91647144E-02 -9.81209459E-03  8.84739581E-04  2.03864231E-02
 -6.25251829E-03 -5.18998551E-03 -1.01882834E-03  3.44351470E-03  1.63584343E-03
 -1.52099572E-04  3.27654578E-03 -2.39256231E-04 -6.74916045E-05 -7.06383807E-02
  1.30755774E-01 -8.15138551E-02  4.24540437E-02 -4.66093117E-03  4.34406600E-02
  7.90745610E-04 -1.60683585E-03  4.89440030E-03  1.75272198E-02  1.66956597E-04
 -4.71422360E-03 -1.37519850E-02  1.46061372E-03 -2.65431480E-04 -2.66652803E-03
  5.84126972E-03 -3.89928713E-03  6.39882910E-04  2.19423100E-05  1.14414779E-03
  2.91613916E-03  2.12020538E-03 -3.76983213E-04  5.84589068E-04  3.16433291E-04
  9.52879614E-06 -3.83075567E-04  7.00194504E-06 -4.61904773E-07  6.95985986E-03
  1.77290169E-03  6.73056182E-03  5.10413773E-03  2.57881427E-02  6.16703549E-03
  2.46049883E-02  1.58129417E-03  1.52281341E-03 -2.19327499E-04  5.87563160E-04
 -1.49779286E-03  1.56856370E-03  1.68542148E-04  1.19190332E-01 -2.40747091E-03
  4.11375923E-02 -9.23554387E-02  4.26811111E-02 -2.29475642E-02 -1.98744606E-02
 -1.14736208E-01  1.82733056E-02 -1.30180350E-02 -1.21021157E-02  5.32502628E-03
 -2.29563034E-03 -4.75545794E-03 -9.80183518E-04  1.99826825E-03 -4.30847978E-03
 -1.46009117E-01  2.70764598E-01  1.83260711E-02 -4.22028274E-02  4.11250717E-03
  2.32255001E-01  6.22725382E-03 -6.49061476E-03  4.70550330E-04  8.98404886E-03
  6.00681800E-03  3.27463577E-03 -1.41425740E-03  1.98010540E-04 -2.18942547E-04
 -8.09828744E-02  1.56363417E-01  8.63730964E-02  2.62742552E-02 -2.87022740E-03
  1.23456771E-01  2.03759339E-02  2.32403119E-03  3.92001828E-03  8.52281180E-04
  5.16804259E-03  2.73498420E-03  1.11398063E-02 -4.37905081E-04  9.17284000E-05
 -1.17430080E-01  2.18111482E-01 -5.75737473E-02  2.04199923E-02 -1.73720652E-03
  1.81659980E-01 -6.03823546E-03  1.88926255E-03 -1.75381364E-04  1.09274896E-02
  4.12360393E-03  2.88909171E-03 -3.68441106E-03  3.21611344E-04 -1.00597557E-04
  7.97227465E-02  1.19443573E-02  8.07559830E-02  1.46433321E-02  4.85921582E-02
  9.55626177E-03  4.75282041E-02  6.43541115E-03  6.65646559E-02  1.26263152E-02
  6.33178025E-02  1.07528101E-02  6.67512718E-02  1.29048190E-02 -3.89289418E-02
 -4.93818306E-03 -4.61599665E-02  1.04442893E-01 -1.13115376E-01  8.34520855E-02
  4.11670215E-02  1.42577061E-01 -5.87938970E-02  4.52577927E-02  2.42643351E-02
 -1.25778384E-02  4.02584455E-03  8.95562678E-03  4.44707891E-03 -4.59229799E-03
  8.97991221E-03  2.35603921E-02 -4.45635610E-02  1.42572106E-01  2.47479195E-02
  4.60888491E-04 -4.91699295E-02  2.90063347E-02  6.24430675E-03  3.15068317E-03
  4.63308323E-03 -5.17148901E-03 -1.46929063E-03 -1.52116244E-02  1.14224713E-03
  2.31802558E-04  1.30145678E-01 -2.53142323E-01 -3.60580745E-02  1.90023073E-02
  7.22919148E-03 -2.41614676E-01 -2.49266077E-02  1.26267944E-02 -7.25707298E-03
  3.73867344E-03 -5.34856034E-03 -9.16613080E-03 -4.09543372E-03 -9.85501456E-04
 -6.06008679E-04 -1.33710450E-01  2.45621514E-01  4.17358709E-02 -1.98608244E-03
  6.60484267E-04  2.74230231E-01  6.23733543E-03 -5.19383969E-03  1.14595534E-04
  5.56343924E-04  7.43829404E-03  7.86286585E-03  3.86408801E-03 -2.77643935E-04
  4.21252114E-05 -1.69508606E-02 -2.36414685E-03 -1.52594686E-02 -4.60499411E-03
 -1.01006315E-01 -2.99118071E-02 -9.47542504E-02 -2.29521170E-02  9.54963771E-02
  2.63585844E-02  1.06418079E-01  3.62641186E-02  9.57964450E-02  2.71038668E-02
  7.62184614E-02  1.92732610E-02 -1.17869663E-02  2.84135348E-02 -7.74906499E-02
  1.39013798E-01  4.69422430E-02  3.29594313E-02 -4.65506086E-02  7.80325577E-02
  2.61254791E-02 -8.31467706E-03  3.32588668E-03  8.03826886E-03  7.87530049E-03
 -2.45353356E-03  9.95210125E-03 -1.17750791E-01  2.20716230E-01 -2.88710577E-02
  1.19510042E-01 -2.89152509E-03  2.74367244E-01 -1.39377107E-02  4.15598311E-02
  1.97296366E-03 -9.03956979E-03  2.32230760E-03  1.57019346E-02 -2.43334079E-03
 -4.98849751E-04  1.45469282E-03  8.07337078E-02 -1.58877015E-01  7.32494188E-02
  1.39784117E-01  9.72921815E-03 -1.72844940E-01 -4.44986405E-04  4.96377154E-02
 -1.27970038E-04  3.03360799E-03  3.43648033E-03 -1.28087568E-02  1.00036627E-02
 -2.41529227E-03 -1.58401866E-03  7.33857856E-02 -1.37893829E-01 -9.47555147E-02
  7.46704684E-02 -4.51634324E-03 -1.68706878E-01 -3.12426023E-02  2.32274832E-02
 -3.66678002E-03  6.67335849E-03 -4.83912599E-03 -1.05488813E-02 -9.42667019E-03
  8.02017951E-04 -5.51279201E-04  1.23304559E-01  4.90226396E-02  1.30107814E-01
  5.67656875E-02 -1.07455083E-01 -4.57937105E-02 -9.32567063E-02 -4.09114843E-02
 -8.54846884E-02 -3.83620370E-02 -6.54410885E-02 -2.60070358E-02 -8.42948041E-02
 -3.60778708E-02  7.83867738E-02  2.85205363E-02  3.41820695E-02 -7.78196712E-02
 -9.82087973E-02  1.65158744E-01  3.00090749E-01 -1.38767852E-01 -5.89306078E-02
  9.94612151E-02  1.84506996E-01 -1.33196688E-02  2.62868528E-03  2.35421272E-02
  5.01317347E-03  6.97177538E-03  1.54805188E-02  1.30445102E-02 -2.13875828E-02
 -2.61286057E-02 -7.93591800E-02  1.42208204E-01 -5.69951306E-02 -6.15950288E-04
 -3.10696417E-02  6.26718442E-02  4.93058054E-04  3.34742852E-03 -6.55880830E-03
  3.11445825E-03 -4.73121230E-03  4.92610829E-03 -2.39814858E-02  4.10320010E-02
  1.28391113E-01 -4.86863104E-02  2.42088716E-01  9.19085411E-02  4.29318749E-02
 -1.78684418E-03  1.09889024E-01 -1.32219076E-02  2.90948346E-03  1.00430506E-02
  6.75575858E-03 -5.34358702E-03 -9.46782869E-03  1.59960642E-03 -2.88390935E-03
 -2.05329473E-02 -4.31986105E-02  7.00697610E-02 -4.46093603E-03 -1.06439988E-02
 -2.06212889E-02  2.77166492E-02 -7.15610449E-04 -2.25595463E-03  2.89959671E-03
 -7.18825154E-04 -1.74556022E-03 -3.26877599E-03 -1.00743682E-01 -6.02772992E-02
  2.52595046E-02  2.26462154E-02 -5.63807647E-02 -3.26001202E-02  1.54164255E-01