068_Ether Gaussian SP Calculation on g2-node38.bme.utexas.edu           
Freq      RMP2-FC                                                     6-31G(d)            
Number of atoms                            I               15
Info1-9                                    I   N=           9
          26          25        1002           0           0         100
           6           2           1
Charge                                     I                0
Multiplicity                               I                1
Number of electrons                        I               42
Number of alpha electrons                  I               21
Number of beta electrons                   I               21
Number of basis functions                  I               95
Number of independent functions            I               95
Number of point charges in /Mol/           I                0
Number of translation vectors              I                0
Atomic numbers                             I   N=          15
           8           6           6           6           6           1
           1           1           1           1           1           1
           1           1           1
Nuclear charges                            R   N=          15
  8.00000000E+00  6.00000000E+00  6.00000000E+00  6.00000000E+00  6.00000000E+00
  1.00000000E+00  1.00000000E+00  1.00000000E+00  1.00000000E+00  1.00000000E+00
  1.00000000E+00  1.00000000E+00  1.00000000E+00  1.00000000E+00  1.00000000E+00
Current cartesian coordinates              R   N=          45
  2.90526269E-06 -5.08610618E-01 -3.05957225E-06  2.22709075E+00  9.92636449E-01
  9.44250954E-06 -2.22710181E+00  9.92643738E-01  1.27606158E-05  4.47187151E+00
 -7.81152523E-01 -1.38648743E-05 -4.47186807E+00 -7.81156114E-01 -5.58788735E-06
  2.25783907E+00  2.22620298E+00 -1.67648491E+00  2.25784482E+00  2.22616542E+00
  1.67653124E+00 -2.25784281E+00  2.22616631E+00  1.67653521E+00 -2.25784267E+00
  2.22620145E+00 -1.67648384E+00  6.24243251E+00  2.85391754E-01 -3.95954219E-06
  4.42284463E+00 -1.98612838E+00  1.67458323E+00  4.42283995E+00 -1.98608975E+00
 -1.67463854E+00 -6.24244164E+00  2.85368320E-01  8.09214619E-06 -4.42282716E+00
 -1.98609224E+00 -1.67463018E+00 -4.42282423E+00 -1.98613024E+00  1.67459163E+00
Force Field                                I                0
Int Atom Types                             I   N=          15
           0           0           0           0           0           0
           0           0           0           0           0           0
           0           0           0
MM charges                                 R   N=          15
  0.00000000E+00  0.00000000E+00  0.00000000E+00  0.00000000E+00  0.00000000E+00
  0.00000000E+00  0.00000000E+00  0.00000000E+00  0.00000000E+00  0.00000000E+00
  0.00000000E+00  0.00000000E+00  0.00000000E+00  0.00000000E+00  0.00000000E+00
Integer atomic weights                     I   N=          15
          16          12          12          12          12           1
           1           1           1           1           1           1
           1           1           1
Real atomic weights                        R   N=          15
  1.59949146E+01  1.20000000E+01  1.20000000E+01  1.20000000E+01  1.20000000E+01
  1.00782504E+00  1.00782504E+00  1.00782504E+00  1.00782504E+00  1.00782504E+00
  1.00782504E+00  1.00782504E+00  1.00782504E+00  1.00782504E+00  1.00782504E+00
Atom fragment info                         I   N=          15
           0           0           0           0           0           0
           0           0           0           0           0           0
           0           0           0
Atom residue num                           I   N=          15
           0           0           0           0           0           0
           0           0           0           0           0           0
           0           0           0
Nuclear spins                              I   N=          15
           0           0           0           0           0           1
           1           1           1           1           1           1
           1           1           1
Nuclear ZEff                               R   N=          15
 -5.60000000E+00 -3.60000000E+00 -3.60000000E+00 -3.60000000E+00 -3.60000000E+00
 -1.00000000E+00 -1.00000000E+00 -1.00000000E+00 -1.00000000E+00 -1.00000000E+00
 -1.00000000E+00 -1.00000000E+00 -1.00000000E+00 -1.00000000E+00 -1.00000000E+00
Nuclear QMom                               R   N=          15
  0.00000000E+00  0.00000000E+00  0.00000000E+00  0.00000000E+00  0.00000000E+00
  0.00000000E+00  0.00000000E+00  0.00000000E+00  0.00000000E+00  0.00000000E+00
  0.00000000E+00  0.00000000E+00  0.00000000E+00  0.00000000E+00  0.00000000E+00
Nuclear GFac                               R   N=          15
  0.00000000E+00  0.00000000E+00  0.00000000E+00  0.00000000E+00  0.00000000E+00
  2.79284600E+00  2.79284600E+00  2.79284600E+00  2.79284600E+00  2.79284600E+00
  2.79284600E+00  2.79284600E+00  2.79284600E+00  2.79284600E+00  2.79284600E+00
MicOpt                                     I   N=          15
          -1          -1          -1          -1          -1          -1
          -1          -1          -1          -1          -1          -1
          -1          -1          -1
Number of contracted shells                I               40
Number of primitive shells                 I               95
Pure/Cartesian d shells                    I                1
Pure/Cartesian f shells                    I                0
Highest angular momentum                   I                2
Largest degree of contraction              I                6
Shell types                                I   N=          40
           0          -1          -1           2           0          -1
          -1           2           0          -1          -1           2
           0          -1          -1           2           0          -1
          -1           2           0           0           0           0
           0           0           0           0           0           0
           0           0           0           0           0           0
           0           0           0           0
Number of primitives per shell             I   N=          40
           6           3           1           1           6           3
           1           1           6           3           1           1
           6           3           1           1           6           3
           1           1           3           1           3           1
           3           1           3           1           3           1
           3           1           3           1           3           1
           3           1           3           1
Shell to atom map                          I   N=          40
           1           1           1           1           2           2
           2           2           3           3           3           3
           4           4           4           4           5           5
           5           5           6           6           7           7
           8           8           9           9          10          10
          11          11          12          12          13          13
          14          14          15          15
Primitive exponents                        R   N=          95
  5.48467166E+03  8.25234946E+02  1.88046958E+02  5.29645000E+01  1.68975704E+01
  5.79963534E+00  1.55396162E+01  3.59993359E+00  1.01376175E+00  2.70005823E-01
  8.00000000E-01  3.04752488E+03  4.57369518E+02  1.03948685E+02  2.92101553E+01
  9.28666296E+00  3.16392696E+00  7.86827235E+00  1.88128854E+00  5.44249258E-01
  1.68714478E-01  8.00000000E-01  3.04752488E+03  4.57369518E+02  1.03948685E+02
  2.92101553E+01  9.28666296E+00  3.16392696E+00  7.86827235E+00  1.88128854E+00
  5.44249258E-01  1.68714478E-01  8.00000000E-01  3.04752488E+03  4.57369518E+02
  1.03948685E+02  2.92101553E+01  9.28666296E+00  3.16392696E+00  7.86827235E+00
  1.88128854E+00  5.44249258E-01  1.68714478E-01  8.00000000E-01  3.04752488E+03
  4.57369518E+02  1.03948685E+02  2.92101553E+01  9.28666296E+00  3.16392696E+00
  7.86827235E+00  1.88128854E+00  5.44249258E-01  1.68714478E-01  8.00000000E-01
  1.87311370E+01  2.82539436E+00  6.40121692E-01  1.61277759E-01  1.87311370E+01
  2.82539436E+00  6.40121692E-01  1.61277759E-01  1.87311370E+01  2.82539436E+00
  6.40121692E-01  1.61277759E-01  1.87311370E+01  2.82539436E+00  6.40121692E-01
  1.61277759E-01  1.87311370E+01  2.82539436E+00  6.40121692E-01  1.61277759E-01
  1.87311370E+01  2.82539436E+00  6.40121692E-01  1.61277759E-01  1.87311370E+01
  2.82539436E+00  6.40121692E-01  1.61277759E-01  1.87311370E+01  2.82539436E+00
  6.40121692E-01  1.61277759E-01  1.87311370E+01  2.82539436E+00  6.40121692E-01
  1.61277759E-01  1.87311370E+01  2.82539436E+00  6.40121692E-01  1.61277759E-01
Contraction coefficients                   R   N=          95
  1.83107443E-03  1.39501722E-02  6.84450781E-02  2.32714336E-01  4.70192898E-01
  3.58520853E-01 -1.10777550E-01 -1.48026263E-01  1.13076702E+00  1.00000000E+00
  1.00000000E+00  1.83473713E-03  1.40373228E-02  6.88426223E-02  2.32184443E-01
  4.67941348E-01  3.62311985E-01 -1.19332420E-01 -1.60854152E-01  1.14345644E+00
  1.00000000E+00  1.00000000E+00  1.83473713E-03  1.40373228E-02  6.88426223E-02
  2.32184443E-01  4.67941348E-01  3.62311985E-01 -1.19332420E-01 -1.60854152E-01
  1.14345644E+00  1.00000000E+00  1.00000000E+00  1.83473713E-03  1.40373228E-02
  6.88426223E-02  2.32184443E-01  4.67941348E-01  3.62311985E-01 -1.19332420E-01
 -1.60854152E-01  1.14345644E+00  1.00000000E+00  1.00000000E+00  1.83473713E-03
  1.40373228E-02  6.88426223E-02  2.32184443E-01  4.67941348E-01  3.62311985E-01
 -1.19332420E-01 -1.60854152E-01  1.14345644E+00  1.00000000E+00  1.00000000E+00
  3.34946043E-02  2.34726953E-01  8.13757326E-01  1.00000000E+00  3.34946043E-02
  2.34726953E-01  8.13757326E-01  1.00000000E+00  3.34946043E-02  2.34726953E-01
  8.13757326E-01  1.00000000E+00  3.34946043E-02  2.34726953E-01  8.13757326E-01
  1.00000000E+00  3.34946043E-02  2.34726953E-01  8.13757326E-01  1.00000000E+00
  3.34946043E-02  2.34726953E-01  8.13757326E-01  1.00000000E+00  3.34946043E-02
  2.34726953E-01  8.13757326E-01  1.00000000E+00  3.34946043E-02  2.34726953E-01
  8.13757326E-01  1.00000000E+00  3.34946043E-02  2.34726953E-01  8.13757326E-01
  1.00000000E+00  3.34946043E-02  2.34726953E-01  8.13757326E-01  1.00000000E+00
P(S=P) Contraction coefficients            R   N=          95
  0.00000000E+00  0.00000000E+00  0.00000000E+00  0.00000000E+00  0.00000000E+00
  0.00000000E+00  7.08742682E-02  3.39752839E-01  7.27158577E-01  1.00000000E+00
  0.00000000E+00  0.00000000E+00  0.00000000E+00  0.00000000E+00  0.00000000E+00
  0.00000000E+00  0.00000000E+00  6.89990666E-02  3.16423961E-01  7.44308291E-01
  1.00000000E+00  0.00000000E+00  0.00000000E+00  0.00000000E+00  0.00000000E+00
  0.00000000E+00  0.00000000E+00  0.00000000E+00  6.89990666E-02  3.16423961E-01
  7.44308291E-01  1.00000000E+00  0.00000000E+00  0.00000000E+00  0.00000000E+00
  0.00000000E+00  0.00000000E+00  0.00000000E+00  0.00000000E+00  6.89990666E-02
  3.16423961E-01  7.44308291E-01  1.00000000E+00  0.00000000E+00  0.00000000E+00
  0.00000000E+00  0.00000000E+00  0.00000000E+00  0.00000000E+00  0.00000000E+00
  6.89990666E-02  3.16423961E-01  7.44308291E-01  1.00000000E+00  0.00000000E+00
  0.00000000E+00  0.00000000E+00  0.00000000E+00  0.00000000E+00  0.00000000E+00
  0.00000000E+00  0.00000000E+00  0.00000000E+00  0.00000000E+00  0.00000000E+00
  0.00000000E+00  0.00000000E+00  0.00000000E+00  0.00000000E+00  0.00000000E+00
  0.00000000E+00  0.00000000E+00  0.00000000E+00  0.00000000E+00  0.00000000E+00
  0.00000000E+00  0.00000000E+00  0.00000000E+00  0.00000000E+00  0.00000000E+00
  0.00000000E+00  0.00000000E+00  0.00000000E+00  0.00000000E+00  0.00000000E+00
  0.00000000E+00  0.00000000E+00  0.00000000E+00  0.00000000E+00  0.00000000E+00
  0.00000000E+00  0.00000000E+00  0.00000000E+00  0.00000000E+00  0.00000000E+00
Coordinates of each shell                  R   N=         120
  2.90526269E-06 -5.08610618E-01 -3.05957225E-06  2.90526269E-06 -5.08610618E-01
 -3.05957225E-06  2.90526269E-06 -5.08610618E-01 -3.05957225E-06  2.90526269E-06
 -5.08610618E-01 -3.05957225E-06  2.22709075E+00  9.92636449E-01  9.44250954E-06
  2.22709075E+00  9.92636449E-01  9.44250954E-06  2.22709075E+00  9.92636449E-01
  9.44250954E-06  2.22709075E+00  9.92636449E-01  9.44250954E-06 -2.22710181E+00
  9.92643738E-01  1.27606158E-05 -2.22710181E+00  9.92643738E-01  1.27606158E-05
 -2.22710181E+00  9.92643738E-01  1.27606158E-05 -2.22710181E+00  9.92643738E-01
  1.27606158E-05  4.47187151E+00 -7.81152523E-01 -1.38648743E-05  4.47187151E+00
 -7.81152523E-01 -1.38648743E-05  4.47187151E+00 -7.81152523E-01 -1.38648743E-05
  4.47187151E+00 -7.81152523E-01 -1.38648743E-05 -4.47186807E+00 -7.81156114E-01
 -5.58788735E-06 -4.47186807E+00 -7.81156114E-01 -5.58788735E-06 -4.47186807E+00
 -7.81156114E-01 -5.58788735E-06 -4.47186807E+00 -7.81156114E-01 -5.58788735E-06
  2.25783907E+00  2.22620298E+00 -1.67648491E+00  2.25783907E+00  2.22620298E+00
 -1.67648491E+00  2.25784482E+00  2.22616542E+00  1.67653124E+00  2.25784482E+00
  2.22616542E+00  1.67653124E+00 -2.25784281E+00  2.22616631E+00  1.67653521E+00
 -2.25784281E+00  2.22616631E+00  1.67653521E+00 -2.25784267E+00  2.22620145E+00
 -1.67648384E+00 -2.25784267E+00  2.22620145E+00 -1.67648384E+00  6.24243251E+00
  2.85391754E-01 -3.95954219E-06  6.24243251E+00  2.85391754E-01 -3.95954219E-06
  4.42284463E+00 -1.98612838E+00  1.67458323E+00  4.42284463E+00 -1.98612838E+00
  1.67458323E+00  4.42283995E+00 -1.98608975E+00 -1.67463854E+00  4.42283995E+00
 -1.98608975E+00 -1.67463854E+00 -6.24244164E+00  2.85368320E-01  8.09214619E-06
 -6.24244164E+00  2.85368320E-01  8.09214619E-06 -4.42282716E+00 -1.98609224E+00
 -1.67463018E+00 -4.42282716E+00 -1.98609224E+00 -1.67463018E+00 -4.42282423E+00
 -1.98613024E+00  1.67459163E+00 -4.42282423E+00 -1.98613024E+00  1.67459163E+00
Constraint Structure                       R   N=          45
  2.90526269E-06 -5.08610618E-01 -3.05957225E-06  2.22709075E+00  9.92636449E-01
  9.44250954E-06 -2.22710181E+00  9.92643738E-01  1.27606158E-05  4.47187151E+00
 -7.81152523E-01 -1.38648743E-05 -4.47186807E+00 -7.81156114E-01 -5.58788735E-06
  2.25783907E+00  2.22620298E+00 -1.67648491E+00  2.25784482E+00  2.22616542E+00
  1.67653124E+00 -2.25784281E+00  2.22616631E+00  1.67653521E+00 -2.25784267E+00
  2.22620145E+00 -1.67648384E+00  6.24243251E+00  2.85391754E-01 -3.95954219E-06
  4.42284463E+00 -1.98612838E+00  1.67458323E+00  4.42283995E+00 -1.98608975E+00
 -1.67463854E+00 -6.24244164E+00  2.85368320E-01  8.09214619E-06 -4.42282716E+00
 -1.98609224E+00 -1.67463018E+00 -4.42282423E+00 -1.98613024E+00  1.67459163E+00
Num ILSW                                   I              100
ILSW                                       I   N=         100
           0           1           0           0           2           0
           0           0           0           0           0          -1
           0           0           0           0           0           0
           0           0           0           0           1           0
           1           0           0           0           0           0
           0           0      100000           0          -1           0
           0           0           0           0           0           0
           0           0           0           1           1           0
           0           0           1           0           0           0
           0           0           4          40           0           0
           0           0           0           0           0           0
           0           0           0           0           0           0
           0           0           0           0           0           0
           0           0           0           0           0           0
           0           0           0           0           0           0
           0           0           0           0           0           0
           0           0           0           0
Num RLSW                                   I               40
RLSW                                       R   N=          40
  1.00000000E+00  1.00000000E+00  1.00000000E+00  1.00000000E+00  1.00000000E+00
  0.00000000E+00  0.00000000E+00  1.00000000E+00  0.00000000E+00  0.00000000E+00
  0.00000000E+00  0.00000000E+00  1.00000000E+00  0.00000000E+00  0.00000000E+00
  0.00000000E+00  0.00000000E+00  1.00000000E+00  0.00000000E+00  0.00000000E+00
  0.00000000E+00  0.00000000E+00  1.00000000E+00  0.00000000E+00  0.00000000E+00
  0.00000000E+00  0.00000000E+00  1.00000000E+00  0.00000000E+00  0.00000000E+00
  0.00000000E+00  0.00000000E+00  0.00000000E+00  0.00000000E+00  0.00000000E+00
  0.00000000E+00  0.00000000E+00  0.00000000E+00  1.00000000E+00  1.00000000E+00
MxBond                                     I                4
NBond                                      I   N=          15
           2           4           4           4           4           1
           1           1           1           1           1           1
           1           1           1
IBond                                      I   N=          60
           2           3           0           0           1           4
           6           7           1           5           8           9
           2          10          11          12           3          13
          14          15           2           0           0           0
           2           0           0           0           3           0
           0           0           3           0           0           0
           4           0           0           0           4           0
           0           0           4           0           0           0
           5           0           0           0           5           0
           0           0           5           0           0           0
RBond                                      R   N=          60
  1.00000000E+00  1.00000000E+00  0.00000000E+00  0.00000000E+00  1.00000000E+00
  1.00000000E+00  1.00000000E+00  1.00000000E+00  1.00000000E+00  1.00000000E+00
  1.00000000E+00  1.00000000E+00  1.00000000E+00  1.00000000E+00  1.00000000E+00
  1.00000000E+00  1.00000000E+00  1.00000000E+00  1.00000000E+00  1.00000000E+00
  1.00000000E+00  0.00000000E+00  0.00000000E+00  0.00000000E+00  1.00000000E+00
  0.00000000E+00  0.00000000E+00  0.00000000E+00  1.00000000E+00  0.00000000E+00
  0.00000000E+00  0.00000000E+00  1.00000000E+00  0.00000000E+00  0.00000000E+00
  0.00000000E+00  1.00000000E+00  0.00000000E+00  0.00000000E+00  0.00000000E+00
  1.00000000E+00  0.00000000E+00  0.00000000E+00  0.00000000E+00  1.00000000E+00
  0.00000000E+00  0.00000000E+00  0.00000000E+00  1.00000000E+00  0.00000000E+00
  0.00000000E+00  0.00000000E+00  1.00000000E+00  0.00000000E+00  0.00000000E+00
  0.00000000E+00  1.00000000E+00  0.00000000E+00  0.00000000E+00  0.00000000E+00
Virial Ratio                               R      2.001835935700238E+00
SCF Energy                                 R     -2.321431124597369E+02
MP2 Energy                                 R     -2.328456436247529E+02
Total Energy                               R     -2.328456436247529E+02
Post-SCF wavefunction norm                 R      1.562640984085985E+00
RMS Force                                  R      1.089500530877320E-06
RMS Density                                R      2.707315968026566E-10
External E-field                           R   N=          35
  0.00000000E+00  0.00000000E+00  0.00000000E+00  0.00000000E+00  0.00000000E+00
  0.00000000E+00  0.00000000E+00  0.00000000E+00  0.00000000E+00  0.00000000E+00
  0.00000000E+00  0.00000000E+00  0.00000000E+00  0.00000000E+00  0.00000000E+00
  0.00000000E+00  0.00000000E+00  0.00000000E+00  0.00000000E+00  0.00000000E+00
  0.00000000E+00  0.00000000E+00  0.00000000E+00  0.00000000E+00  0.00000000E+00
  0.00000000E+00  0.00000000E+00  0.00000000E+00  0.00000000E+00  0.00000000E+00
  0.00000000E+00  0.00000000E+00  0.00000000E+00  0.00000000E+00  0.00000000E+00
IOpCl                                      I                0
IROHF                                      I                0
Alpha Orbital Energies                     R   N=          95
 -2.05536878E+01 -1.12720775E+01 -1.12720575E+01 -1.12120705E+01 -1.12120692E+01
 -1.36389857E+00 -1.03961893E+00 -9.81278538E-01 -8.37190749E-01 -8.25451362E-01
 -6.70950255E-01 -6.59260929E-01 -6.03079009E-01 -5.92202968E-01 -5.48195758E-01
 -5.27199357E-01 -5.19310992E-01 -4.88663858E-01 -4.84625175E-01 -4.69634597E-01
 -4.14083791E-01  2.35200614E-01  2.57834847E-01  2.81018279E-01  2.93279834E-01
  3.08138306E-01  3.25483832E-01  3.27364143E-01  3.44492581E-01  3.52757506E-01
  3.56106685E-01  3.59098061E-01  3.91029719E-01  4.37126743E-01  4.56341195E-01
  6.96623464E-01  7.51842114E-01  7.60611811E-01  7.62551972E-01  7.66911453E-01
  7.97640966E-01  8.51437988E-01  8.77309845E-01  9.12837807E-01  9.59631314E-01
  9.73888599E-01  1.04618578E+00  1.09231982E+00  1.09598271E+00  1.15845652E+00
  1.16353467E+00  1.16688544E+00  1.18616937E+00  1.19027782E+00  1.19927385E+00
  1.20699924E+00  1.24121591E+00  1.24371385E+00  1.35707337E+00  1.39594082E+00
  1.43781783E+00  1.53527132E+00  1.70721738E+00  1.71088291E+00  1.71737453E+00
  1.72672228E+00  1.75529378E+00  2.00207339E+00  2.05070097E+00  2.07093695E+00
  2.22258531E+00  2.22742745E+00  2.26141113E+00  2.27528581E+00  2.36403857E+00
  2.40674426E+00  2.45485556E+00  2.47568112E+00  2.52559842E+00  2.59164670E+00
  2.59305188E+00  2.65521096E+00  2.66264868E+00  2.74160237E+00  2.84647136E+00
  2.84743229E+00  2.92984627E+00  3.01427872E+00  3.19471131E+00  3.36463958E+00
  4.35609904E+00  4.61228179E+00  4.61455205E+00  4.80721999E+00  4.87964209E+00
Alpha MO coefficients                      R   N=        9025
  9.94673134E-01  2.12626160E-02  9.97063773E-09  1.27062428E-03  1.20731624E-08
  3.43937926E-03  3.67344987E-10 -8.40710285E-04 -7.97377016E-09 -4.19463100E-03
 -4.05158231E-03 -3.79580968E-03  4.67758257E-09  3.46831439E-10 -2.72643356E-09
 -2.26509702E-05  1.91467846E-04 -3.25399529E-04 -2.24275040E-04 -1.86852931E-09
  4.68370694E-04  7.92155801E-06  1.23378959E-05 -4.48702159E-10  6.94608881E-05
 -8.58017850E-06 -5.67939738E-05  5.27239338E-05  3.55395057E-10  5.27550077E-10
 -2.26516510E-05  1.91448242E-04  3.25398209E-04 -2.24274042E-04 -2.34696080E-09
  4.68367934E-04 -7.90925164E-06  1.23297884E-05 -3.26321131E-10  6.94774196E-05
 -8.57298276E-06 -5.67916597E-05 -5.27344948E-05 -5.70073185E-10  5.87733300E-10
  1.06418406E-05  1.01578144E-04 -1.12566242E-05 -2.38424097E-05 -2.77999001E-10
 -2.25152683E-04  3.40872667E-04  6.05701361E-05  4.79745251E-10 -6.16233878E-05
  1.19616403E-05 -5.74222669E-06  2.20811840E-05  3.59227212E-10  2.23747311E-10
  1.06419270E-05  1.01578214E-04  1.12580093E-05 -2.38419894E-05 -3.17571726E-10
 -2.25149303E-04 -3.40876952E-04  6.05714951E-05  1.19082357E-09 -6.16223799E-05
  1.19615413E-05 -5.74206435E-06 -2.20810358E-05 -2.60304031E-10  2.66559722E-10
 -4.78253970E-05 -9.41752474E-05 -4.78253017E-05 -9.41748179E-05 -4.78243296E-05
 -9.41711209E-05 -4.78244299E-05 -9.41714438E-05 -1.07466292E-05 -1.50903069E-04
  5.19950707E-05 -8.47020945E-06  5.19949979E-05 -8.46971885E-06 -1.07471832E-05
 -1.50905131E-04  5.19955442E-05 -8.47027734E-06  5.19956623E-05 -8.47092591E-06
 -4.07908709E-06  5.32335175E-06 -1.87198110E-04  4.05844984E-06  1.97379699E-10
  3.35917946E-05 -1.91314030E-04 -1.34903453E-05 -7.78774978E-11 -1.56313618E-05
 -8.90533236E-06  3.04297905E-06  5.08227303E-04  4.71713170E-09 -4.79771304E-10
 -6.90019814E-01 -1.93591452E-02  5.24182338E-04  2.39964587E-04  1.99197034E-09
  1.08612695E-02 -6.16318699E-04  2.56920847E-04  2.14233540E-09  1.05112954E-03
  9.55368235E-04  9.95045385E-04 -3.70917177E-05 -2.92234513E-10 -5.89096186E-10
  7.18178675E-01  2.01256862E-02  5.43759392E-04 -2.52492845E-04 -2.93457166E-09
 -1.12200775E-02 -5.79544664E-04 -2.46814707E-04 -3.77021732E-10 -1.08530878E-03
 -9.98667231E-04 -1.03954218E-03 -3.90843339E-05 -3.16094908E-10  6.26236345E-10
 -3.53369742E-03 -1.29616346E-04 -5.07403083E-05 -3.39802021E-05 -4.02093211E-10
 -2.03958534E-03  1.10108247E-03 -3.95578754E-04 -5.15906965E-09  2.37122790E-04
  1.93269037E-04  6.85433319E-05 -1.26118799E-04 -1.79029348E-09  1.81640670E-09
  3.68047244E-03  1.37840608E-04 -4.95595147E-05  3.30817579E-05  4.51080382E-10
  2.13329180E-03  1.13278678E-03  4.33291227E-04  3.20550761E-09 -2.47241277E-04
 -1.99275412E-04 -7.16277609E-05 -1.32584622E-04 -1.42319249E-09 -1.58952142E-09
 -2.12789591E-04 -2.06837102E-03 -2.12789369E-04 -2.06836953E-03  2.15534986E-04
  2.13311587E-03  2.15535281E-04  2.13311808E-03  2.50378705E-05 -1.80745572E-04
  1.26285124E-04 -1.91066286E-05  1.26285272E-04 -1.91060393E-05 -2.93399909E-05
  1.78877025E-04 -1.29110003E-04  2.50697873E-05 -1.29109912E-04  2.50705794E-05
 -2.04044644E-04  2.66617806E-04  3.74051786E-06  2.02920128E-04  1.85508633E-09
  1.67687404E-03  3.79491578E-06 -6.75868178E-04 -5.94195752E-09 -7.81621330E-04
 -4.45160556E-04  1.52481465E-04 -1.01662671E-05  7.19238864E-10 -6.53184026E-09
  7.18103889E-01  1.95597712E-02 -5.00500930E-04 -3.18287224E-04 -2.53337291E-09
 -9.18964054E-03 -9.08332241E-04  2.46548716E-04  1.98344143E-09 -8.75519696E-04
 -1.10215205E-03 -1.13308975E-03  5.10459344E-05  2.65590306E-10  2.30410292E-10
  6.89941978E-01  1.87701274E-02  4.79132931E-04 -3.08431228E-04 -3.10501652E-09
 -8.74809209E-03  9.32199017E-04  2.56642723E-04  9.07107601E-10 -8.32804214E-04
 -1.06307586E-03 -1.09238940E-03 -4.95042263E-05 -7.39562684E-10  3.04402039E-10
  3.74124793E-03  2.08428053E-04 -2.85990481E-05 -2.17688186E-05 -1.85323725E-10
  2.38370114E-03 -8.14358798E-04  9.51034294E-04  1.24221769E-08 -2.57852920E-04
 -1.54005552E-04 -7.84942455E-05  1.64239422E-04  2.10450244E-09 -1.18786845E-09
  3.59699960E-03  2.03083415E-04  3.06049417E-05 -2.31122328E-05 -2.69061323E-10
  2.30022944E-03  7.69668892E-04  9.34462699E-04  1.01914939E-08 -2.48163346E-04
 -1.46155731E-04 -7.56893422E-05 -1.59067752E-04 -1.63155150E-09 -7.64588500E-10
  7.29396146E-05  1.66066756E-03  7.29398461E-05  1.66067031E-03  6.43723275E-05
  1.57665280E-03  6.43721221E-05  1.57665078E-03 -1.08108254E-04 -4.33442985E-05
 -7.31366824E-05  1.49588411E-04 -7.31367533E-05  1.49588901E-04 -1.07020574E-04
 -5.05393000E-05 -6.80264634E-05  1.48709776E-04 -6.80263289E-05  1.48709503E-04
 -6.83523057E-07 -2.65251411E-05  1.40486538E-04  1.13476789E-05  5.50501912E-11
 -2.27423729E-05 -6.53380115E-04 -5.72430917E-05 -2.85374842E-10  2.93010284E-05
 -7.96701593E-06 -2.95461373E-05 -3.15912975E-06  2.62257799E-10  2.44714770E-10
  2.91105762E-03 -3.81711413E-05 -3.61515281E-05 -7.59019209E-05 -8.51139822E-10
 -1.58118797E-03 -1.31131470E-03  7.15091288E-04  1.07175334E-08  2.06439410E-04
  1.52426282E-04  3.65788777E-05 -5.73061810E-05 -9.47594053E-10  1.59299369E-09
 -4.53884548E-03  1.99304547E-05 -3.40948766E-05  7.00396947E-05  7.97973120E-10
  2.79829705E-03 -1.69081170E-03 -9.89652008E-04 -1.05976998E-08 -3.07837183E-04
 -2.46747427E-04 -6.04983862E-05 -1.06293874E-04 -1.05006796E-09 -2.27781716E-09
 -5.40556445E-01 -1.55470969E-02  4.21177287E-05 -4.91499993E-05 -5.83834035E-10
  8.59032474E-03 -4.96737379E-04  3.17231351E-04  3.96247375E-09  1.00369463E-03
  1.00448453E-03  9.80197329E-04 -2.04439518E-05 -2.55229474E-10  3.21033966E-10
  8.36224923E-01  2.40185967E-02  6.25912843E-05  7.64853711E-05  7.64978983E-10
 -1.30494440E-02 -6.94493756E-04 -4.35695251E-04 -4.24015704E-09 -1.55484118E-03
 -1.56099027E-03 -1.53125954E-03 -2.92703547E-05 -2.94917435E-10 -3.02160248E-10
  3.32757920E-05 -9.30488234E-05  3.32756548E-05 -9.30496125E-05 -8.07988196E-05
  7.48357479E-05 -8.07989786E-05  7.48354921E-05 -7.62351737E-05 -1.33272921E-03
 -9.22883651E-05 -1.43255739E-03 -9.22883479E-05 -1.43255781E-03  1.07024737E-04
  2.07140786E-03  1.36951621E-04  2.19569189E-03  1.36951742E-04  2.19569151E-03
 -3.18306067E-06 -1.23514771E-04 -3.01700307E-05  5.28413186E-05  8.01712100E-10
 -1.05889935E-04  1.40314815E-04 -2.66529124E-04 -3.68943171E-09  1.36436157E-04
 -3.70910272E-05 -1.37583489E-04  6.78941009E-07 -3.68550002E-10  1.31639027E-09
 -4.58972379E-03 -3.62361850E-05  2.76251083E-06  2.02494691E-06 -1.06717276E-10
  3.30393003E-03  1.20592007E-03 -8.22283140E-04 -1.02706870E-08 -2.91301887E-04
 -2.62458362E-04 -6.61194432E-05  1.31618409E-04  1.85789240E-09 -2.69837945E-09
 -2.98982643E-03 -4.87147254E-05  1.23246679E-05 -2.93167015E-05 -4.54572564E-10
  2.36341221E-03 -5.61186871E-04 -4.56177736E-04 -3.72426860E-09 -1.80856810E-04
 -1.76735638E-04 -4.52708406E-05 -9.64855376E-05 -9.54830547E-10 -1.53211346E-09
  8.36215135E-01  2.39719140E-02 -5.88944758E-05  7.71236464E-05  9.33133877E-10
 -1.27053901E-02  5.88311370E-04 -3.56657888E-04 -5.02658861E-09 -1.55792076E-03
 -1.57113352E-03 -1.55265844E-03  2.58930870E-05  3.50683697E-10 -2.72176703E-10
  5.40541300E-01  1.54749014E-02  3.64130825E-05  5.01458660E-05  5.57298126E-10
 -8.05809973E-03 -3.32494119E-04 -1.94958931E-04 -2.48645172E-09 -1.00845520E-03
 -1.02018064E-03 -1.01330725E-03 -1.52145232E-05 -2.15912681E-10 -5.80015890E-11
 -1.22892166E-04 -2.43769069E-05 -1.22892382E-04 -2.43774834E-05 -9.83944539E-05
 -6.04339534E-05 -9.83941240E-05 -6.04333890E-05  9.13649272E-05  2.08534520E-03
  1.28596570E-04  2.16632673E-03  1.28596512E-04  2.16632679E-03  5.20075813E-05
  1.35427625E-03  7.93671300E-05  1.38713609E-03  7.93672713E-05  1.38713636E-03
 -1.96729863E-01  4.36987791E-01  1.88307009E-06  7.60767298E-02  7.15174258E-07
  4.35600700E-01  3.35717862E-07  5.24893082E-02  4.93357906E-07  1.69215554E-02