78351                                                                   
Freq      RMP2-FC                                                     6-31G(d)            
Number of atoms                            I               18
Info1-9                                    I   N=           9
          30          28        1002           0           0         100
           6           2           1
Charge                                     I                0
Multiplicity                               I                1
Number of electrons                        I               62
Number of alpha electrons                  I               31
Number of beta electrons                   I               31
Number of basis functions                  I              140
Number of independent functions            I              140
Number of point charges in /Mol/           I                0
Number of translation vectors              I                0
Atomic numbers                             I   N=          18
           8           8           6           6           6           6
           6           6           1           1           1           1
           1           1           1           1           1           1
Nuclear charges                            R   N=          18
  8.00000000E+00  8.00000000E+00  6.00000000E+00  6.00000000E+00  6.00000000E+00
  6.00000000E+00  6.00000000E+00  6.00000000E+00  1.00000000E+00  1.00000000E+00
  1.00000000E+00  1.00000000E+00  1.00000000E+00  1.00000000E+00  1.00000000E+00
  1.00000000E+00  1.00000000E+00  1.00000000E+00
Current cartesian coordinates              R   N=          54
 -1.80729160E+00 -8.29251153E-01 -6.02803915E-06  5.43681737E-01  2.77399420E+00
  4.23612590E-06  2.59406560E+00 -1.27050335E+00 -2.95014625E-07  4.92045560E+00
 -3.80675417E-01  1.40741074E+00  4.92045506E+00 -3.80672267E-01 -1.40741029E+00
  4.02282407E-01  4.66452153E-01  1.92717983E-06 -4.04784213E+00  7.45869111E-01
 -6.02113525E-06 -6.28909904E+00 -1.02498401E+00  5.68465569E-06  2.15878926E+00
 -3.27222987E+00 -2.43324777E-06  6.01085000E+00 -1.80539419E+00  2.39821657E+00
  4.75645872E+00  1.43059633E+00  2.35188888E+00  4.75645684E+00  1.43060129E+00
 -2.35188473E+00  6.01085012E+00 -1.80538855E+00 -2.39821896E+00 -4.00859968E+00
  1.96260852E+00  1.66945124E+00 -4.00860815E+00  1.96259625E+00 -1.66947258E+00
 -8.04606617E+00  6.33986063E-02  4.76947205E-06 -6.26158195E+00 -2.22883190E+00
 -1.67586936E+00 -6.26157513E+00 -2.22881817E+00  1.67589047E+00
Force Field                                I                0
Int Atom Types                             I   N=          18
           0           0           0           0           0           0
           0           0           0           0           0           0
           0           0           0           0           0           0
MM charges                                 R   N=          18
  0.00000000E+00  0.00000000E+00  0.00000000E+00  0.00000000E+00  0.00000000E+00
  0.00000000E+00  0.00000000E+00  0.00000000E+00  0.00000000E+00  0.00000000E+00
  0.00000000E+00  0.00000000E+00  0.00000000E+00  0.00000000E+00  0.00000000E+00
  0.00000000E+00  0.00000000E+00  0.00000000E+00
Integer atomic weights                     I   N=          18
          16          16          12          12          12          12
          12          12           1           1           1           1
           1           1           1           1           1           1
Real atomic weights                        R   N=          18
  1.59949146E+01  1.59949146E+01  1.20000000E+01  1.20000000E+01  1.20000000E+01
  1.20000000E+01  1.20000000E+01  1.20000000E+01  1.00782504E+00  1.00782504E+00
  1.00782504E+00  1.00782504E+00  1.00782504E+00  1.00782504E+00  1.00782504E+00
  1.00782504E+00  1.00782504E+00  1.00782504E+00
Atom fragment info                         I   N=          18
           0           0           0           0           0           0
           0           0           0           0           0           0
           0           0           0           0           0           0
Atom residue num                           I   N=          18
           0           0           0           0           0           0
           0           0           0           0           0           0
           0           0           0           0           0           0
Nuclear spins                              I   N=          18
           0           0           0           0           0           0
           0           0           1           1           1           1
           1           1           1           1           1           1
Nuclear ZEff                               R   N=          18
 -5.60000000E+00 -5.60000000E+00 -3.60000000E+00 -3.60000000E+00 -3.60000000E+00
 -3.60000000E+00 -3.60000000E+00 -3.60000000E+00 -1.00000000E+00 -1.00000000E+00
 -1.00000000E+00 -1.00000000E+00 -1.00000000E+00 -1.00000000E+00 -1.00000000E+00
 -1.00000000E+00 -1.00000000E+00 -1.00000000E+00
Nuclear QMom                               R   N=          18
  0.00000000E+00  0.00000000E+00  0.00000000E+00  0.00000000E+00  0.00000000E+00
  0.00000000E+00  0.00000000E+00  0.00000000E+00  0.00000000E+00  0.00000000E+00
  0.00000000E+00  0.00000000E+00  0.00000000E+00  0.00000000E+00  0.00000000E+00
  0.00000000E+00  0.00000000E+00  0.00000000E+00
Nuclear GFac                               R   N=          18
  0.00000000E+00  0.00000000E+00  0.00000000E+00  0.00000000E+00  0.00000000E+00
  0.00000000E+00  0.00000000E+00  0.00000000E+00  2.79284600E+00  2.79284600E+00
  2.79284600E+00  2.79284600E+00  2.79284600E+00  2.79284600E+00  2.79284600E+00
  2.79284600E+00  2.79284600E+00  2.79284600E+00
MicOpt                                     I   N=          18
          -1          -1          -1          -1          -1          -1
          -1          -1          -1          -1          -1          -1
          -1          -1          -1          -1          -1          -1
Number of contracted shells                I               52
Number of primitive shells                 I              128
Pure/Cartesian d shells                    I                1
Pure/Cartesian f shells                    I                0
Highest angular momentum                   I                2
Largest degree of contraction              I                6
Shell types                                I   N=          52
           0          -1          -1           2           0          -1
          -1           2           0          -1          -1           2
           0          -1          -1           2           0          -1
          -1           2           0          -1          -1           2
           0          -1          -1           2           0          -1
          -1           2           0           0           0           0
           0           0           0           0           0           0
           0           0           0           0           0           0
           0           0           0           0
Number of primitives per shell             I   N=          52
           6           3           1           1           6           3
           1           1           6           3           1           1
           6           3           1           1           6           3
           1           1           6           3           1           1
           6           3           1           1           6           3
           1           1           3           1           3           1
           3           1           3           1           3           1
           3           1           3           1           3           1
           3           1           3           1
Shell to atom map                          I   N=          52
           1           1           1           1           2           2
           2           2           3           3           3           3
           4           4           4           4           5           5
           5           5           6           6           6           6
           7           7           7           7           8           8
           8           8           9           9          10          10
          11          11          12          12          13          13
          14          14          15          15          16          16
          17          17          18          18
Primitive exponents                        R   N=         128
  5.48467166E+03  8.25234946E+02  1.88046958E+02  5.29645000E+01  1.68975704E+01
  5.79963534E+00  1.55396162E+01  3.59993359E+00  1.01376175E+00  2.70005823E-01
  8.00000000E-01  5.48467166E+03  8.25234946E+02  1.88046958E+02  5.29645000E+01
  1.68975704E+01  5.79963534E+00  1.55396162E+01  3.59993359E+00  1.01376175E+00
  2.70005823E-01  8.00000000E-01  3.04752488E+03  4.57369518E+02  1.03948685E+02
  2.92101553E+01  9.28666296E+00  3.16392696E+00  7.86827235E+00  1.88128854E+00
  5.44249258E-01  1.68714478E-01  8.00000000E-01  3.04752488E+03  4.57369518E+02
  1.03948685E+02  2.92101553E+01  9.28666296E+00  3.16392696E+00  7.86827235E+00
  1.88128854E+00  5.44249258E-01  1.68714478E-01  8.00000000E-01  3.04752488E+03
  4.57369518E+02  1.03948685E+02  2.92101553E+01  9.28666296E+00  3.16392696E+00
  7.86827235E+00  1.88128854E+00  5.44249258E-01  1.68714478E-01  8.00000000E-01
  3.04752488E+03  4.57369518E+02  1.03948685E+02  2.92101553E+01  9.28666296E+00
  3.16392696E+00  7.86827235E+00  1.88128854E+00  5.44249258E-01  1.68714478E-01
  8.00000000E-01  3.04752488E+03  4.57369518E+02  1.03948685E+02  2.92101553E+01
  9.28666296E+00  3.16392696E+00  7.86827235E+00  1.88128854E+00  5.44249258E-01
  1.68714478E-01  8.00000000E-01  3.04752488E+03  4.57369518E+02  1.03948685E+02
  2.92101553E+01  9.28666296E+00  3.16392696E+00  7.86827235E+00  1.88128854E+00
  5.44249258E-01  1.68714478E-01  8.00000000E-01  1.87311370E+01  2.82539436E+00
  6.40121692E-01  1.61277759E-01  1.87311370E+01  2.82539436E+00  6.40121692E-01
  1.61277759E-01  1.87311370E+01  2.82539436E+00  6.40121692E-01  1.61277759E-01
  1.87311370E+01  2.82539436E+00  6.40121692E-01  1.61277759E-01  1.87311370E+01
  2.82539436E+00  6.40121692E-01  1.61277759E-01  1.87311370E+01  2.82539436E+00
  6.40121692E-01  1.61277759E-01  1.87311370E+01  2.82539436E+00  6.40121692E-01
  1.61277759E-01  1.87311370E+01  2.82539436E+00  6.40121692E-01  1.61277759E-01
  1.87311370E+01  2.82539436E+00  6.40121692E-01  1.61277759E-01  1.87311370E+01
  2.82539436E+00  6.40121692E-01  1.61277759E-01
Contraction coefficients                   R   N=         128
  1.83107443E-03  1.39501722E-02  6.84450781E-02  2.32714336E-01  4.70192898E-01
  3.58520853E-01 -1.10777550E-01 -1.48026263E-01  1.13076702E+00  1.00000000E+00
  1.00000000E+00  1.83107443E-03  1.39501722E-02  6.84450781E-02  2.32714336E-01
  4.70192898E-01  3.58520853E-01 -1.10777550E-01 -1.48026263E-01  1.13076702E+00
  1.00000000E+00  1.00000000E+00  1.83473713E-03  1.40373228E-02  6.88426223E-02
  2.32184443E-01  4.67941348E-01  3.62311985E-01 -1.19332420E-01 -1.60854152E-01
  1.14345644E+00  1.00000000E+00  1.00000000E+00  1.83473713E-03  1.40373228E-02
  6.88426223E-02  2.32184443E-01  4.67941348E-01  3.62311985E-01 -1.19332420E-01
 -1.60854152E-01  1.14345644E+00  1.00000000E+00  1.00000000E+00  1.83473713E-03
  1.40373228E-02  6.88426223E-02  2.32184443E-01  4.67941348E-01  3.62311985E-01
 -1.19332420E-01 -1.60854152E-01  1.14345644E+00  1.00000000E+00  1.00000000E+00
  1.83473713E-03  1.40373228E-02  6.88426223E-02  2.32184443E-01  4.67941348E-01
  3.62311985E-01 -1.19332420E-01 -1.60854152E-01  1.14345644E+00  1.00000000E+00
  1.00000000E+00  1.83473713E-03  1.40373228E-02  6.88426223E-02  2.32184443E-01
  4.67941348E-01  3.62311985E-01 -1.19332420E-01 -1.60854152E-01  1.14345644E+00
  1.00000000E+00  1.00000000E+00  1.83473713E-03  1.40373228E-02  6.88426223E-02
  2.32184443E-01  4.67941348E-01  3.62311985E-01 -1.19332420E-01 -1.60854152E-01
  1.14345644E+00  1.00000000E+00  1.00000000E+00  3.34946043E-02  2.34726953E-01
  8.13757326E-01  1.00000000E+00  3.34946043E-02  2.34726953E-01  8.13757326E-01
  1.00000000E+00  3.34946043E-02  2.34726953E-01  8.13757326E-01  1.00000000E+00
  3.34946043E-02  2.34726953E-01  8.13757326E-01  1.00000000E+00  3.34946043E-02
  2.34726953E-01  8.13757326E-01  1.00000000E+00  3.34946043E-02  2.34726953E-01
  8.13757326E-01  1.00000000E+00  3.34946043E-02  2.34726953E-01  8.13757326E-01
  1.00000000E+00  3.34946043E-02  2.34726953E-01  8.13757326E-01  1.00000000E+00
  3.34946043E-02  2.34726953E-01  8.13757326E-01  1.00000000E+00  3.34946043E-02
  2.34726953E-01  8.13757326E-01  1.00000000E+00
P(S=P) Contraction coefficients            R   N=         128
  0.00000000E+00  0.00000000E+00  0.00000000E+00  0.00000000E+00  0.00000000E+00
  0.00000000E+00  7.08742682E-02  3.39752839E-01  7.27158577E-01  1.00000000E+00
  0.00000000E+00  0.00000000E+00  0.00000000E+00  0.00000000E+00  0.00000000E+00
  0.00000000E+00  0.00000000E+00  7.08742682E-02  3.39752839E-01  7.27158577E-01
  1.00000000E+00  0.00000000E+00  0.00000000E+00  0.00000000E+00  0.00000000E+00
  0.00000000E+00  0.00000000E+00  0.00000000E+00  6.89990666E-02  3.16423961E-01
  7.44308291E-01  1.00000000E+00  0.00000000E+00  0.00000000E+00  0.00000000E+00
  0.00000000E+00  0.00000000E+00  0.00000000E+00  0.00000000E+00  6.89990666E-02
  3.16423961E-01  7.44308291E-01  1.00000000E+00  0.00000000E+00  0.00000000E+00
  0.00000000E+00  0.00000000E+00  0.00000000E+00  0.00000000E+00  0.00000000E+00
  6.89990666E-02  3.16423961E-01  7.44308291E-01  1.00000000E+00  0.00000000E+00
  0.00000000E+00  0.00000000E+00  0.00000000E+00  0.00000000E+00  0.00000000E+00
  0.00000000E+00  6.89990666E-02  3.16423961E-01  7.44308291E-01  1.00000000E+00
  0.00000000E+00  0.00000000E+00  0.00000000E+00  0.00000000E+00  0.00000000E+00
  0.00000000E+00  0.00000000E+00  6.89990666E-02  3.16423961E-01  7.44308291E-01
  1.00000000E+00  0.00000000E+00  0.00000000E+00  0.00000000E+00  0.00000000E+00
  0.00000000E+00  0.00000000E+00  0.00000000E+00  6.89990666E-02  3.16423961E-01
  7.44308291E-01  1.00000000E+00  0.00000000E+00  0.00000000E+00  0.00000000E+00
  0.00000000E+00  0.00000000E+00  0.00000000E+00  0.00000000E+00  0.00000000E+00
  0.00000000E+00  0.00000000E+00  0.00000000E+00  0.00000000E+00  0.00000000E+00
  0.00000000E+00  0.00000000E+00  0.00000000E+00  0.00000000E+00  0.00000000E+00
  0.00000000E+00  0.00000000E+00  0.00000000E+00  0.00000000E+00  0.00000000E+00
  0.00000000E+00  0.00000000E+00  0.00000000E+00  0.00000000E+00  0.00000000E+00
  0.00000000E+00  0.00000000E+00  0.00000000E+00  0.00000000E+00  0.00000000E+00
  0.00000000E+00  0.00000000E+00  0.00000000E+00  0.00000000E+00  0.00000000E+00
  0.00000000E+00  0.00000000E+00  0.00000000E+00
Coordinates of each shell                  R   N=         156
 -1.80729160E+00 -8.29251153E-01 -6.02803915E-06 -1.80729160E+00 -8.29251153E-01
 -6.02803915E-06 -1.80729160E+00 -8.29251153E-01 -6.02803915E-06 -1.80729160E+00
 -8.29251153E-01 -6.02803915E-06  5.43681737E-01  2.77399420E+00  4.23612590E-06
  5.43681737E-01  2.77399420E+00  4.23612590E-06  5.43681737E-01  2.77399420E+00
  4.23612590E-06  5.43681737E-01  2.77399420E+00  4.23612590E-06  2.59406560E+00
 -1.27050335E+00 -2.95014625E-07  2.59406560E+00 -1.27050335E+00 -2.95014625E-07
  2.59406560E+00 -1.27050335E+00 -2.95014625E-07  2.59406560E+00 -1.27050335E+00
 -2.95014625E-07  4.92045560E+00 -3.80675417E-01  1.40741074E+00  4.92045560E+00
 -3.80675417E-01  1.40741074E+00  4.92045560E+00 -3.80675417E-01  1.40741074E+00
  4.92045560E+00 -3.80675417E-01  1.40741074E+00  4.92045506E+00 -3.80672267E-01
 -1.40741029E+00  4.92045506E+00 -3.80672267E-01 -1.40741029E+00  4.92045506E+00
 -3.80672267E-01 -1.40741029E+00  4.92045506E+00 -3.80672267E-01 -1.40741029E+00
  4.02282407E-01  4.66452153E-01  1.92717983E-06  4.02282407E-01  4.66452153E-01
  1.92717983E-06  4.02282407E-01  4.66452153E-01  1.92717983E-06  4.02282407E-01
  4.66452153E-01  1.92717983E-06 -4.04784213E+00  7.45869111E-01 -6.02113525E-06
 -4.04784213E+00  7.45869111E-01 -6.02113525E-06 -4.04784213E+00  7.45869111E-01
 -6.02113525E-06 -4.04784213E+00  7.45869111E-01 -6.02113525E-06 -6.28909904E+00
 -1.02498401E+00  5.68465569E-06 -6.28909904E+00 -1.02498401E+00  5.68465569E-06
 -6.28909904E+00 -1.02498401E+00  5.68465569E-06 -6.28909904E+00 -1.02498401E+00
  5.68465569E-06  2.15878926E+00 -3.27222987E+00 -2.43324777E-06  2.15878926E+00
 -3.27222987E+00 -2.43324777E-06  6.01085000E+00 -1.80539419E+00  2.39821657E+00
  6.01085000E+00 -1.80539419E+00  2.39821657E+00  4.75645872E+00  1.43059633E+00
  2.35188888E+00  4.75645872E+00  1.43059633E+00  2.35188888E+00  4.75645684E+00
  1.43060129E+00 -2.35188473E+00  4.75645684E+00  1.43060129E+00 -2.35188473E+00
  6.01085012E+00 -1.80538855E+00 -2.39821896E+00  6.01085012E+00 -1.80538855E+00
 -2.39821896E+00 -4.00859968E+00  1.96260852E+00  1.66945124E+00 -4.00859968E+00
  1.96260852E+00  1.66945124E+00 -4.00860815E+00  1.96259625E+00 -1.66947258E+00
 -4.00860815E+00  1.96259625E+00 -1.66947258E+00 -8.04606617E+00  6.33986063E-02
  4.76947205E-06 -8.04606617E+00  6.33986063E-02  4.76947205E-06 -6.26158195E+00
 -2.22883190E+00 -1.67586936E+00 -6.26158195E+00 -2.22883190E+00 -1.67586936E+00
 -6.26157513E+00 -2.22881817E+00  1.67589047E+00 -6.26157513E+00 -2.22881817E+00
  1.67589047E+00
Constraint Structure                       R   N=          54
 -1.80729160E+00 -8.29251153E-01 -6.02803915E-06  5.43681737E-01  2.77399420E+00
  4.23612590E-06  2.59406560E+00 -1.27050335E+00 -2.95014625E-07  4.92045560E+00
 -3.80675417E-01  1.40741074E+00  4.92045506E+00 -3.80672267E-01 -1.40741029E+00
  4.02282407E-01  4.66452153E-01  1.92717983E-06 -4.04784213E+00  7.45869111E-01
 -6.02113525E-06 -6.28909904E+00 -1.02498401E+00  5.68465569E-06  2.15878926E+00
 -3.27222987E+00 -2.43324777E-06  6.01085000E+00 -1.80539419E+00  2.39821657E+00
  4.75645872E+00  1.43059633E+00  2.35188888E+00  4.75645684E+00  1.43060129E+00
 -2.35188473E+00  6.01085012E+00 -1.80538855E+00 -2.39821896E+00 -4.00859968E+00
  1.96260852E+00  1.66945124E+00 -4.00860815E+00  1.96259625E+00 -1.66947258E+00
 -8.04606617E+00  6.33986063E-02  4.76947205E-06 -6.26158195E+00 -2.22883190E+00
 -1.67586936E+00 -6.26157513E+00 -2.22881817E+00  1.67589047E+00
Num ILSW                                   I              100
ILSW                                       I   N=         100
           0           1           0           0           2           0
           0           0           0           0           0          -1
           0           0           0           0           0           0
           0           0           0           0           1           0
           1           0           0           0           0           0
           0           0      100000           0          -1           0
           0           0           0           0           0           0
           0           0           0           1           1           0
           0           0           1           0           0           0
           0           0           4          40           0           0
           0           0           0           0           0           0
           0           0           0           0           0           0
           0           0           0           0           0           0
           0           0           0           0           0           0
           0           0           0           0           0           0
           0           0           0           0           0           0
           0           0           0           0
Num RLSW                                   I               40
RLSW                                       R   N=          40
  1.00000000E+00  1.00000000E+00  1.00000000E+00  1.00000000E+00  1.00000000E+00
  0.00000000E+00  0.00000000E+00  1.00000000E+00  0.00000000E+00  0.00000000E+00
  0.00000000E+00  0.00000000E+00  1.00000000E+00  0.00000000E+00  0.00000000E+00
  0.00000000E+00  0.00000000E+00  1.00000000E+00  0.00000000E+00  0.00000000E+00
  0.00000000E+00  0.00000000E+00  1.00000000E+00  0.00000000E+00  0.00000000E+00
  0.00000000E+00  0.00000000E+00  1.00000000E+00  0.00000000E+00  0.00000000E+00
  0.00000000E+00  0.00000000E+00  0.00000000E+00  0.00000000E+00  0.00000000E+00
  0.00000000E+00  0.00000000E+00  0.00000000E+00  1.00000000E+00  1.00000000E+00
MxBond                                     I                4
NBond                                      I   N=          18
           2           1           4           4           4           3
           4           4           1           1           1           1
           1           1           1           1           1           1
IBond                                      I   N=          72
           6           7           0           0           6           0
           0           0           4           5           6           9
           3           5          10          11           3           4
          12          13           1           2           3           0
           1           8          14          15           7          16
          17          18           3           0           0           0
           4           0           0           0           4           0
           0           0           5           0           0           0
           5           0           0           0           7           0
           0           0           7           0           0           0
           8           0           0           0           8           0
           0           0           8           0           0           0
RBond                                      R   N=          72
  1.50000000E+00  1.00000000E+00  0.00000000E+00  0.00000000E+00  2.00000000E+00
  0.00000000E+00  0.00000000E+00  0.00000000E+00  1.00000000E+00  1.00000000E+00
  1.00000000E+00  1.00000000E+00  1.00000000E+00  1.00000000E+00  1.00000000E+00
  1.00000000E+00  1.00000000E+00  1.00000000E+00  1.00000000E+00  1.00000000E+00
  1.50000000E+00  2.00000000E+00  1.00000000E+00  0.00000000E+00  1.00000000E+00
  1.00000000E+00  1.00000000E+00  1.00000000E+00  1.00000000E+00  1.00000000E+00
  1.00000000E+00  1.00000000E+00  1.00000000E+00  0.00000000E+00  0.00000000E+00
  0.00000000E+00  1.00000000E+00  0.00000000E+00  0.00000000E+00  0.00000000E+00
  1.00000000E+00  0.00000000E+00  0.00000000E+00  0.00000000E+00  1.00000000E+00
  0.00000000E+00  0.00000000E+00  0.00000000E+00  1.00000000E+00  0.00000000E+00
  0.00000000E+00  0.00000000E+00  1.00000000E+00  0.00000000E+00  0.00000000E+00
  0.00000000E+00  1.00000000E+00  0.00000000E+00  0.00000000E+00  0.00000000E+00
  1.00000000E+00  0.00000000E+00  0.00000000E+00  0.00000000E+00  1.00000000E+00
  0.00000000E+00  0.00000000E+00  0.00000000E+00  1.00000000E+00  0.00000000E+00
  0.00000000E+00  0.00000000E+00
Virial Ratio                               R      2.002352607327869E+00
SCF Energy                                 R     -3.827441692546474E+02
MP2 Energy                                 R     -3.838723978575936E+02
Total Energy                               R     -3.838723978575936E+02
Post-SCF wavefunction norm                 R      1.647810672605377E+00
RMS Force                                  R      2.358137295323750E-06
RMS Density                                R      7.472092714131089E-10
External E-field                           R   N=          35
  0.00000000E+00  0.00000000E+00  0.00000000E+00  0.00000000E+00  0.00000000E+00
  0.00000000E+00  0.00000000E+00  0.00000000E+00  0.00000000E+00  0.00000000E+00
  0.00000000E+00  0.00000000E+00  0.00000000E+00  0.00000000E+00  0.00000000E+00
  0.00000000E+00  0.00000000E+00  0.00000000E+00  0.00000000E+00  0.00000000E+00
  0.00000000E+00  0.00000000E+00  0.00000000E+00  0.00000000E+00  0.00000000E+00
  0.00000000E+00  0.00000000E+00  0.00000000E+00  0.00000000E+00  0.00000000E+00
  0.00000000E+00  0.00000000E+00  0.00000000E+00  0.00000000E+00  0.00000000E+00
IOpCl                                      I                0
IROHF                                      I                0
Alpha Orbital Energies                     R   N=         140
 -2.06044690E+01 -2.05429102E+01 -1.13801815E+01 -1.12869116E+01 -1.12456309E+01
 -1.12406168E+01 -1.12399388E+01 -1.12242107E+01 -1.44622729E+00 -1.34424652E+00
 -1.15742769E+00 -1.04072995E+00 -9.17768478E-01 -8.34976812E-01 -8.30928440E-01
 -7.60430260E-01 -7.16802032E-01 -6.73949758E-01 -6.65946313E-01 -6.43276775E-01
 -5.89870928E-01 -5.81522681E-01 -5.53008982E-01 -5.40699622E-01 -5.27408510E-01
 -5.09406935E-01 -5.05455156E-01 -4.51393843E-01 -4.47379966E-01 -4.31205787E-01
 -4.21576462E-01  1.81289140E-01  2.39912661E-01  2.43247360E-01  2.70230118E-01
  2.94944639E-01  3.01269925E-01  3.03451548E-01  3.09121353E-01  3.21109678E-01
  3.39139646E-01  3.48115192E-01  3.53121243E-01  3.77511163E-01  4.03520555E-01
  4.13947427E-01  4.34647786E-01  4.77267375E-01  5.13925799E-01  5.38616731E-01
  6.93104032E-01  7.35865159E-01  7.41025671E-01  7.55499922E-01  7.56966851E-01
  7.72047073E-01  7.97009547E-01  8.28133649E-01  8.43522194E-01  8.86201723E-01
  8.98281789E-01  9.01476314E-01  9.19714576E-01  9.37831566E-01  9.50395242E-01
  9.70842163E-01  1.00949392E+00  1.05973969E+00  1.09810799E+00  1.10869830E+00
  1.12249880E+00  1.13881504E+00  1.15233235E+00  1.16477934E+00  1.17883580E+00
  1.18700932E+00  1.19537051E+00  1.20831832E+00  1.23066066E+00  1.23289124E+00
  1.26675068E+00  1.32314921E+00  1.38141377E+00  1.40176186E+00  1.41363769E+00
  1.48959361E+00  1.51929972E+00  1.54368571E+00  1.62681600E+00  1.68831566E+00
  1.69244106E+00  1.75835087E+00  1.79648972E+00  1.88401258E+00  1.91609177E+00
  1.95277545E+00  2.03619175E+00  2.06107319E+00  2.07436229E+00  2.13553037E+00
  2.16632442E+00  2.17860391E+00  2.17997859E+00  2.19941151E+00  2.22898486E+00
  2.25958419E+00  2.29398881E+00  2.33320378E+00  2.36153853E+00  2.39177088E+00
  2.42391719E+00  2.46666173E+00  2.50534447E+00  2.55808444E+00  2.62493338E+00
  2.63399415E+00  2.64304105E+00  2.66635750E+00  2.70013164E+00  2.76674824E+00
  2.80086565E+00  2.84193874E+00  2.85257686E+00  2.90826103E+00  2.97063870E+00
  2.98509780E+00  3.05147669E+00  3.14295198E+00  3.17544663E+00  3.31942339E+00
  3.46412400E+00  3.52773188E+00  4.41300978E+00  4.56221471E+00  4.61025605E+00
  4.71912423E+00  4.78833842E+00  4.80866063E+00  4.86229526E+00  5.00673403E+00
Alpha MO coefficients                      R   N=       19600
  9.94656535E-01  2.12529609E-02  1.67100168E-04  1.21784395E-03  3.91787826E-09
  3.62739285E-03  3.72094303E-05 -8.17237582E-04 -2.11474418E-09 -4.16709355E-03
 -4.05798590E-03 -3.89951840E-03  5.20268897E-05 -6.49429869E-10 -6.43047458E-10
 -2.57675350E-04  3.20684144E-05  2.64417486E-05  2.75083888E-05  6.13499726E-11
 -2.57251156E-04  1.09997815E-04  7.56110039E-05  4.62328487E-10  2.20933184E-06
 -1.26322037E-05  4.95162222E-06 -7.64579364E-05 -6.52151008E-11 -2.32825095E-10
 -1.51594199E-05 -2.06701103E-05 -1.82954808E-05 -1.55846249E-05 -1.65397810E-10
  7.09583997E-04  4.19461811E-04  2.36421853E-04  1.79078602E-09 -9.18386104E-05
 -3.89802928E-05 -2.29884682E-05  2.99408729E-05 -4.28131796E-11  7.82512775E-11
 -8.00408745E-07  5.63802263E-06  2.59176507E-05  6.01542432E-06  2.68199367E-06
 -2.60010387E-04  1.16927656E-04  5.05751561E-05  7.68869701E-05 -1.28225834E-05
 -6.04984288E-06  1.42074855E-07  1.56697714E-06 -1.00493479E-05  4.24916630E-07
 -8.00488103E-07  5.63766742E-06  2.59175813E-05  6.01557557E-06 -2.68196778E-06
 -2.60007121E-04  1.16927059E-04  5.05739187E-05 -7.68863373E-05 -1.28225953E-05
 -6.04998303E-06  1.41920442E-07  1.56696189E-06  1.00493535E-05 -4.24906846E-07
  4.08664924E-06  3.82943032E-04 -3.10605154E-04 -1.64713175E-04 -9.96325493E-10
 -1.07890882E-05 -2.56980271E-04  2.73964788E-04 -4.09743698E-10 -2.86612392E-05
  7.09222321E-06 -4.49066574E-05 -4.97986042E-05 -5.32260856E-11 -6.58422044E-11
 -2.13194072E-05  1.32093014E-04  3.12357135E-04 -2.32539939E-04 -1.35244526E-10
  4.03178704E-04 -2.66885830E-05  1.64579261E-05  2.50944637E-09  1.12494879E-04
  2.14974354E-05 -4.58251034E-05 -9.51773381E-05  1.40278835E-12 -4.18684498E-11
  1.10740032E-05  9.84595820E-05  1.60909386E-05 -2.25974487E-05  1.21238924E-10
 -2.20836436E-04 -3.29768199E-04  6.68258947E-05 -6.73722873E-10 -5.36642639E-05
  1.23991042E-05 -2.25749200E-06 -1.76969172E-05  1.42668027E-10 -1.08241014E-10
  5.35618257E-05 -6.69279711E-05  8.33706377E-06 -4.34098450E-06  9.11828776E-06
 -2.07489418E-05  9.11831794E-06 -2.07486712E-05  8.33681439E-06 -4.34156648E-06
 -3.93792715E-05 -1.04299222E-04 -3.93786343E-05 -1.04297250E-04 -1.00729255E-05
 -1.49023243E-04  5.06892646E-05 -5.44129689E-06  5.06891263E-05 -5.43981409E-06
  2.55422270E-04 -5.79301413E-05 -1.98437567E-05 -3.30181177E-05 -1.80660700E-11
  2.33747843E-04  1.42673963E-04  5.76318691E-05  1.35677963E-10  7.34055126E-05
 -1.01248276E-04 -7.67462147E-05 -2.91967572E-05  5.44133533E-10 -1.20501095E-10
  9.94692814E-01  2.10160421E-02 -1.07287556E-04 -1.55761191E-03 -1.06464012E-09
  4.30850534E-03 -2.46477189E-05  9.44659504E-05 -1.44090558E-10 -3.90351601E-03
 -3.60932341E-03 -4.11274014E-03  1.83959455E-05  4.77857639E-10  7.49904993E-10
 -1.81823801E-06 -2.14281390E-05 -1.33484437E-05 -1.98311828E-05 -4.03968565E-11
  1.08855729E-04  1.94040013E-04 -1.37711930E-05  8.91187740E-11  8.12035390E-05
 -6.77772538E-05 -1.15338593E-05  1.68809862E-05  1.05803619E-11 -7.54133745E-11
  3.70689384E-06  1.88539476E-05 -2.23452384E-06  8.41438425E-06 -8.53554190E-06
 -4.94327908E-05  8.63079740E-05  3.43494451E-05  7.83026237E-05 -3.01326346E-06
  4.33081628E-06 -1.11245657E-08 -1.03610739E-05 -1.12116132E-05 -1.21186535E-05