66584408                                                                
Freq      RMP2-FC                                                     6-31G(d)            
Number of atoms                            I               19
Info1-9                                    I   N=           9
          31          29        1002           0           0         100
           6           2           1
Charge                                     I                0
Multiplicity                               I                1
Number of electrons                        I               72
Number of alpha electrons                  I               36
Number of beta electrons                   I               36
Number of basis functions                  I              168
Number of independent functions            I              168
Number of point charges in /Mol/           I                0
Number of translation vectors              I                0
Atomic numbers                             I   N=          19
           8           7           6           6           6           6
           6           6           6           6           1           1
           1           1           1           1           1           1
           1
Nuclear charges                            R   N=          19
  8.00000000E+00  7.00000000E+00  6.00000000E+00  6.00000000E+00  6.00000000E+00
  6.00000000E+00  6.00000000E+00  6.00000000E+00  6.00000000E+00  6.00000000E+00
  1.00000000E+00  1.00000000E+00  1.00000000E+00  1.00000000E+00  1.00000000E+00
  1.00000000E+00  1.00000000E+00  1.00000000E+00  1.00000000E+00
Current cartesian coordinates              R   N=          57
  1.48844093E-01  4.02734143E+00 -4.08951856E-01  2.51964103E-01 -3.31200141E-01
 -4.41195287E-01  2.92607832E+00 -1.89961795E-01 -9.67330413E-01  4.64163929E+00
  7.71554455E-01  1.05825333E+00  4.68777147E+00 -1.98441304E+00  3.56126117E-01
 -1.02039338E+00  2.01571716E+00 -1.81489049E-01 -9.54098626E-01 -2.62368349E+00
 -4.06660554E-01 -3.69025673E+00  1.76142203E+00  3.57122424E-01 -3.49129156E+00
 -2.79855484E+00  3.83756883E-02 -4.87582422E+00 -5.34993959E-01  4.40045606E-01
  3.35567651E+00  3.56095669E-01 -2.90055896E+00  3.75958341E+00  1.28105067E+00
  2.83549079E+00  6.19059681E+00  1.98544945E+00  4.88004856E-01  6.27598277E+00
 -2.71839420E+00 -7.13121101E-01  3.87843832E+00 -3.30854716E+00  1.69586389E+00
  2.45453169E-01 -4.25319145E+00 -7.38676941E-01 -4.71152775E+00  3.51785062E+00
  6.39216026E-01 -4.39671363E+00 -4.63589061E+00  6.54656489E-02 -6.89373838E+00
 -6.27272597E-01  8.21638727E-01
Force Field                                I                0
Int Atom Types                             I   N=          19
           0           0           0           0           0           0
           0           0           0           0           0           0
           0           0           0           0           0           0
           0
MM charges                                 R   N=          19
  0.00000000E+00  0.00000000E+00  0.00000000E+00  0.00000000E+00  0.00000000E+00
  0.00000000E+00  0.00000000E+00  0.00000000E+00  0.00000000E+00  0.00000000E+00
  0.00000000E+00  0.00000000E+00  0.00000000E+00  0.00000000E+00  0.00000000E+00
  0.00000000E+00  0.00000000E+00  0.00000000E+00  0.00000000E+00
Integer atomic weights                     I   N=          19
          16          14          12          12          12          12
          12          12          12          12           1           1
           1           1           1           1           1           1
           1
Real atomic weights                        R   N=          19
  1.59949146E+01  1.40030740E+01  1.20000000E+01  1.20000000E+01  1.20000000E+01
  1.20000000E+01  1.20000000E+01  1.20000000E+01  1.20000000E+01  1.20000000E+01
  1.00782504E+00  1.00782504E+00  1.00782504E+00  1.00782504E+00  1.00782504E+00
  1.00782504E+00  1.00782504E+00  1.00782504E+00  1.00782504E+00
Atom fragment info                         I   N=          19
           0           0           0           0           0           0
           0           0           0           0           0           0
           0           0           0           0           0           0
           0
Atom residue num                           I   N=          19
           0           0           0           0           0           0
           0           0           0           0           0           0
           0           0           0           0           0           0
           0
Nuclear spins                              I   N=          19
           0           2           0           0           0           0
           0           0           0           0           1           1
           1           1           1           1           1           1
           1
Nuclear ZEff                               R   N=          19
 -5.60000000E+00 -4.55000000E+00 -3.60000000E+00 -3.60000000E+00 -3.60000000E+00
 -3.60000000E+00 -3.60000000E+00 -3.60000000E+00 -3.60000000E+00 -3.60000000E+00
 -1.00000000E+00 -1.00000000E+00 -1.00000000E+00 -1.00000000E+00 -1.00000000E+00
 -1.00000000E+00 -1.00000000E+00 -1.00000000E+00 -1.00000000E+00
Nuclear QMom                               R   N=          19
  0.00000000E+00  2.04400000E+00  0.00000000E+00  0.00000000E+00  0.00000000E+00
  0.00000000E+00  0.00000000E+00  0.00000000E+00  0.00000000E+00  0.00000000E+00
  0.00000000E+00  0.00000000E+00  0.00000000E+00  0.00000000E+00  0.00000000E+00
  0.00000000E+00  0.00000000E+00  0.00000000E+00  0.00000000E+00
Nuclear GFac                               R   N=          19
  0.00000000E+00  4.03761000E-01  0.00000000E+00  0.00000000E+00  0.00000000E+00
  0.00000000E+00  0.00000000E+00  0.00000000E+00  0.00000000E+00  0.00000000E+00
  2.79284600E+00  2.79284600E+00  2.79284600E+00  2.79284600E+00  2.79284600E+00
  2.79284600E+00  2.79284600E+00  2.79284600E+00  2.79284600E+00
MicOpt                                     I   N=          19
          -1          -1          -1          -1          -1          -1
          -1          -1          -1          -1          -1          -1
          -1          -1          -1          -1          -1          -1
          -1
Number of contracted shells                I               58
Number of primitive shells                 I              146
Pure/Cartesian d shells                    I                1
Pure/Cartesian f shells                    I                0
Highest angular momentum                   I                2
Largest degree of contraction              I                6
Shell types                                I   N=          58
           0          -1          -1           2           0          -1
          -1           2           0          -1          -1           2
           0          -1          -1           2           0          -1
          -1           2           0          -1          -1           2
           0          -1          -1           2           0          -1
          -1           2           0          -1          -1           2
           0          -1          -1           2           0           0
           0           0           0           0           0           0
           0           0           0           0           0           0
           0           0           0           0
Number of primitives per shell             I   N=          58
           6           3           1           1           6           3
           1           1           6           3           1           1
           6           3           1           1           6           3
           1           1           6           3           1           1
           6           3           1           1           6           3
           1           1           6           3           1           1
           6           3           1           1           3           1
           3           1           3           1           3           1
           3           1           3           1           3           1
           3           1           3           1
Shell to atom map                          I   N=          58
           1           1           1           1           2           2
           2           2           3           3           3           3
           4           4           4           4           5           5
           5           5           6           6           6           6
           7           7           7           7           8           8
           8           8           9           9           9           9
          10          10          10          10          11          11
          12          12          13          13          14          14
          15          15          16          16          17          17
          18          18          19          19
Primitive exponents                        R   N=         146
  5.48467166E+03  8.25234946E+02  1.88046958E+02  5.29645000E+01  1.68975704E+01
  5.79963534E+00  1.55396162E+01  3.59993359E+00  1.01376175E+00  2.70005823E-01
  8.00000000E-01  4.17351146E+03  6.27457911E+02  1.42902093E+02  4.02343293E+01
  1.28202129E+01  4.39043701E+00  1.16263619E+01  2.71627981E+00  7.72218397E-01
  2.12031498E-01  8.00000000E-01  3.04752488E+03  4.57369518E+02  1.03948685E+02
  2.92101553E+01  9.28666296E+00  3.16392696E+00  7.86827235E+00  1.88128854E+00
  5.44249258E-01  1.68714478E-01  8.00000000E-01  3.04752488E+03  4.57369518E+02
  1.03948685E+02  2.92101553E+01  9.28666296E+00  3.16392696E+00  7.86827235E+00
  1.88128854E+00  5.44249258E-01  1.68714478E-01  8.00000000E-01  3.04752488E+03
  4.57369518E+02  1.03948685E+02  2.92101553E+01  9.28666296E+00  3.16392696E+00
  7.86827235E+00  1.88128854E+00  5.44249258E-01  1.68714478E-01  8.00000000E-01
  3.04752488E+03  4.57369518E+02  1.03948685E+02  2.92101553E+01  9.28666296E+00
  3.16392696E+00  7.86827235E+00  1.88128854E+00  5.44249258E-01  1.68714478E-01
  8.00000000E-01  3.04752488E+03  4.57369518E+02  1.03948685E+02  2.92101553E+01
  9.28666296E+00  3.16392696E+00  7.86827235E+00  1.88128854E+00  5.44249258E-01
  1.68714478E-01  8.00000000E-01  3.04752488E+03  4.57369518E+02  1.03948685E+02
  2.92101553E+01  9.28666296E+00  3.16392696E+00  7.86827235E+00  1.88128854E+00
  5.44249258E-01  1.68714478E-01  8.00000000E-01  3.04752488E+03  4.57369518E+02
  1.03948685E+02  2.92101553E+01  9.28666296E+00  3.16392696E+00  7.86827235E+00
  1.88128854E+00  5.44249258E-01  1.68714478E-01  8.00000000E-01  3.04752488E+03
  4.57369518E+02  1.03948685E+02  2.92101553E+01  9.28666296E+00  3.16392696E+00
  7.86827235E+00  1.88128854E+00  5.44249258E-01  1.68714478E-01  8.00000000E-01
  1.87311370E+01  2.82539436E+00  6.40121692E-01  1.61277759E-01  1.87311370E+01
  2.82539436E+00  6.40121692E-01  1.61277759E-01  1.87311370E+01  2.82539436E+00
  6.40121692E-01  1.61277759E-01  1.87311370E+01  2.82539436E+00  6.40121692E-01
  1.61277759E-01  1.87311370E+01  2.82539436E+00  6.40121692E-01  1.61277759E-01
  1.87311370E+01  2.82539436E+00  6.40121692E-01  1.61277759E-01  1.87311370E+01
  2.82539436E+00  6.40121692E-01  1.61277759E-01  1.87311370E+01  2.82539436E+00
  6.40121692E-01  1.61277759E-01  1.87311370E+01  2.82539436E+00  6.40121692E-01
  1.61277759E-01
Contraction coefficients                   R   N=         146
  1.83107443E-03  1.39501722E-02  6.84450781E-02  2.32714336E-01  4.70192898E-01
  3.58520853E-01 -1.10777550E-01 -1.48026263E-01  1.13076702E+00  1.00000000E+00
  1.00000000E+00  1.83477216E-03  1.39946270E-02  6.85865518E-02  2.32240873E-01
  4.69069948E-01  3.60455199E-01 -1.14961182E-01 -1.69117479E-01  1.14585195E+00
  1.00000000E+00  1.00000000E+00  1.83473713E-03  1.40373228E-02  6.88426223E-02
  2.32184443E-01  4.67941348E-01  3.62311985E-01 -1.19332420E-01 -1.60854152E-01
  1.14345644E+00  1.00000000E+00  1.00000000E+00  1.83473713E-03  1.40373228E-02
  6.88426223E-02  2.32184443E-01  4.67941348E-01  3.62311985E-01 -1.19332420E-01
 -1.60854152E-01  1.14345644E+00  1.00000000E+00  1.00000000E+00  1.83473713E-03
  1.40373228E-02  6.88426223E-02  2.32184443E-01  4.67941348E-01  3.62311985E-01
 -1.19332420E-01 -1.60854152E-01  1.14345644E+00  1.00000000E+00  1.00000000E+00
  1.83473713E-03  1.40373228E-02  6.88426223E-02  2.32184443E-01  4.67941348E-01
  3.62311985E-01 -1.19332420E-01 -1.60854152E-01  1.14345644E+00  1.00000000E+00
  1.00000000E+00  1.83473713E-03  1.40373228E-02  6.88426223E-02  2.32184443E-01
  4.67941348E-01  3.62311985E-01 -1.19332420E-01 -1.60854152E-01  1.14345644E+00
  1.00000000E+00  1.00000000E+00  1.83473713E-03  1.40373228E-02  6.88426223E-02
  2.32184443E-01  4.67941348E-01  3.62311985E-01 -1.19332420E-01 -1.60854152E-01
  1.14345644E+00  1.00000000E+00  1.00000000E+00  1.83473713E-03  1.40373228E-02
  6.88426223E-02  2.32184443E-01  4.67941348E-01  3.62311985E-01 -1.19332420E-01
 -1.60854152E-01  1.14345644E+00  1.00000000E+00  1.00000000E+00  1.83473713E-03
  1.40373228E-02  6.88426223E-02  2.32184443E-01  4.67941348E-01  3.62311985E-01
 -1.19332420E-01 -1.60854152E-01  1.14345644E+00  1.00000000E+00  1.00000000E+00
  3.34946043E-02  2.34726953E-01  8.13757326E-01  1.00000000E+00  3.34946043E-02
  2.34726953E-01  8.13757326E-01  1.00000000E+00  3.34946043E-02  2.34726953E-01
  8.13757326E-01  1.00000000E+00  3.34946043E-02  2.34726953E-01  8.13757326E-01
  1.00000000E+00  3.34946043E-02  2.34726953E-01  8.13757326E-01  1.00000000E+00
  3.34946043E-02  2.34726953E-01  8.13757326E-01  1.00000000E+00  3.34946043E-02
  2.34726953E-01  8.13757326E-01  1.00000000E+00  3.34946043E-02  2.34726953E-01
  8.13757326E-01  1.00000000E+00  3.34946043E-02  2.34726953E-01  8.13757326E-01
  1.00000000E+00
P(S=P) Contraction coefficients            R   N=         146
  0.00000000E+00  0.00000000E+00  0.00000000E+00  0.00000000E+00  0.00000000E+00
  0.00000000E+00  7.08742682E-02  3.39752839E-01  7.27158577E-01  1.00000000E+00
  0.00000000E+00  0.00000000E+00  0.00000000E+00  0.00000000E+00  0.00000000E+00
  0.00000000E+00  0.00000000E+00  6.75797439E-02  3.23907296E-01  7.40895140E-01
  1.00000000E+00  0.00000000E+00  0.00000000E+00  0.00000000E+00  0.00000000E+00
  0.00000000E+00  0.00000000E+00  0.00000000E+00  6.89990666E-02  3.16423961E-01
  7.44308291E-01  1.00000000E+00  0.00000000E+00  0.00000000E+00  0.00000000E+00
  0.00000000E+00  0.00000000E+00  0.00000000E+00  0.00000000E+00  6.89990666E-02
  3.16423961E-01  7.44308291E-01  1.00000000E+00  0.00000000E+00  0.00000000E+00
  0.00000000E+00  0.00000000E+00  0.00000000E+00  0.00000000E+00  0.00000000E+00
  6.89990666E-02  3.16423961E-01  7.44308291E-01  1.00000000E+00  0.00000000E+00
  0.00000000E+00  0.00000000E+00  0.00000000E+00  0.00000000E+00  0.00000000E+00
  0.00000000E+00  6.89990666E-02  3.16423961E-01  7.44308291E-01  1.00000000E+00
  0.00000000E+00  0.00000000E+00  0.00000000E+00  0.00000000E+00  0.00000000E+00
  0.00000000E+00  0.00000000E+00  6.89990666E-02  3.16423961E-01  7.44308291E-01
  1.00000000E+00  0.00000000E+00  0.00000000E+00  0.00000000E+00  0.00000000E+00
  0.00000000E+00  0.00000000E+00  0.00000000E+00  6.89990666E-02  3.16423961E-01
  7.44308291E-01  1.00000000E+00  0.00000000E+00  0.00000000E+00  0.00000000E+00
  0.00000000E+00  0.00000000E+00  0.00000000E+00  0.00000000E+00  6.89990666E-02
  3.16423961E-01  7.44308291E-01  1.00000000E+00  0.00000000E+00  0.00000000E+00
  0.00000000E+00  0.00000000E+00  0.00000000E+00  0.00000000E+00  0.00000000E+00
  6.89990666E-02  3.16423961E-01  7.44308291E-01  1.00000000E+00  0.00000000E+00
  0.00000000E+00  0.00000000E+00  0.00000000E+00  0.00000000E+00  0.00000000E+00
  0.00000000E+00  0.00000000E+00  0.00000000E+00  0.00000000E+00  0.00000000E+00
  0.00000000E+00  0.00000000E+00  0.00000000E+00  0.00000000E+00  0.00000000E+00
  0.00000000E+00  0.00000000E+00  0.00000000E+00  0.00000000E+00  0.00000000E+00
  0.00000000E+00  0.00000000E+00  0.00000000E+00  0.00000000E+00  0.00000000E+00
  0.00000000E+00  0.00000000E+00  0.00000000E+00  0.00000000E+00  0.00000000E+00
  0.00000000E+00  0.00000000E+00  0.00000000E+00  0.00000000E+00  0.00000000E+00
  0.00000000E+00
Coordinates of each shell                  R   N=         174
  1.48844093E-01  4.02734143E+00 -4.08951856E-01  1.48844093E-01  4.02734143E+00
 -4.08951856E-01  1.48844093E-01  4.02734143E+00 -4.08951856E-01  1.48844093E-01
  4.02734143E+00 -4.08951856E-01  2.51964103E-01 -3.31200141E-01 -4.41195287E-01
  2.51964103E-01 -3.31200141E-01 -4.41195287E-01  2.51964103E-01 -3.31200141E-01
 -4.41195287E-01  2.51964103E-01 -3.31200141E-01 -4.41195287E-01  2.92607832E+00
 -1.89961795E-01 -9.67330413E-01  2.92607832E+00 -1.89961795E-01 -9.67330413E-01
  2.92607832E+00 -1.89961795E-01 -9.67330413E-01  2.92607832E+00 -1.89961795E-01
 -9.67330413E-01  4.64163929E+00  7.71554455E-01  1.05825333E+00  4.64163929E+00
  7.71554455E-01  1.05825333E+00  4.64163929E+00  7.71554455E-01  1.05825333E+00
  4.64163929E+00  7.71554455E-01  1.05825333E+00  4.68777147E+00 -1.98441304E+00
  3.56126117E-01  4.68777147E+00 -1.98441304E+00  3.56126117E-01  4.68777147E+00
 -1.98441304E+00  3.56126117E-01  4.68777147E+00 -1.98441304E+00  3.56126117E-01
 -1.02039338E+00  2.01571716E+00 -1.81489049E-01 -1.02039338E+00  2.01571716E+00
 -1.81489049E-01 -1.02039338E+00  2.01571716E+00 -1.81489049E-01 -1.02039338E+00
  2.01571716E+00 -1.81489049E-01 -9.54098626E-01 -2.62368349E+00 -4.06660554E-01
 -9.54098626E-01 -2.62368349E+00 -4.06660554E-01 -9.54098626E-01 -2.62368349E+00
 -4.06660554E-01 -9.54098626E-01 -2.62368349E+00 -4.06660554E-01 -3.69025673E+00
  1.76142203E+00  3.57122424E-01 -3.69025673E+00  1.76142203E+00  3.57122424E-01
 -3.69025673E+00  1.76142203E+00  3.57122424E-01 -3.69025673E+00  1.76142203E+00
  3.57122424E-01 -3.49129156E+00 -2.79855484E+00  3.83756883E-02 -3.49129156E+00
 -2.79855484E+00  3.83756883E-02 -3.49129156E+00 -2.79855484E+00  3.83756883E-02
 -3.49129156E+00 -2.79855484E+00  3.83756883E-02 -4.87582422E+00 -5.34993959E-01
  4.40045606E-01 -4.87582422E+00 -5.34993959E-01  4.40045606E-01 -4.87582422E+00
 -5.34993959E-01  4.40045606E-01 -4.87582422E+00 -5.34993959E-01  4.40045606E-01
  3.35567651E+00  3.56095669E-01 -2.90055896E+00  3.35567651E+00  3.56095669E-01
 -2.90055896E+00  3.75958341E+00  1.28105067E+00  2.83549079E+00  3.75958341E+00
  1.28105067E+00  2.83549079E+00  6.19059681E+00  1.98544945E+00  4.88004856E-01
  6.19059681E+00  1.98544945E+00  4.88004856E-01  6.27598277E+00 -2.71839420E+00
 -7.13121101E-01  6.27598277E+00 -2.71839420E+00 -7.13121101E-01  3.87843832E+00
 -3.30854716E+00  1.69586389E+00  3.87843832E+00 -3.30854716E+00  1.69586389E+00
  2.45453169E-01 -4.25319145E+00 -7.38676941E-01  2.45453169E-01 -4.25319145E+00
 -7.38676941E-01 -4.71152775E+00  3.51785062E+00  6.39216026E-01 -4.71152775E+00
  3.51785062E+00  6.39216026E-01 -4.39671363E+00 -4.63589061E+00  6.54656489E-02
 -4.39671363E+00 -4.63589061E+00  6.54656489E-02 -6.89373838E+00 -6.27272597E-01
  8.21638727E-01 -6.89373838E+00 -6.27272597E-01  8.21638727E-01
Constraint Structure                       R   N=          57
  1.48844093E-01  4.02734143E+00 -4.08951856E-01  2.51964103E-01 -3.31200141E-01
 -4.41195287E-01  2.92607832E+00 -1.89961795E-01 -9.67330413E-01  4.64163929E+00
  7.71554455E-01  1.05825333E+00  4.68777147E+00 -1.98441304E+00  3.56126117E-01
 -1.02039338E+00  2.01571716E+00 -1.81489049E-01 -9.54098626E-01 -2.62368349E+00
 -4.06660554E-01 -3.69025673E+00  1.76142203E+00  3.57122424E-01 -3.49129156E+00
 -2.79855484E+00  3.83756883E-02 -4.87582422E+00 -5.34993959E-01  4.40045606E-01
  3.35567651E+00  3.56095669E-01 -2.90055896E+00  3.75958341E+00  1.28105067E+00
  2.83549079E+00  6.19059681E+00  1.98544945E+00  4.88004856E-01  6.27598277E+00
 -2.71839420E+00 -7.13121101E-01  3.87843832E+00 -3.30854716E+00  1.69586389E+00
  2.45453169E-01 -4.25319145E+00 -7.38676941E-01 -4.71152775E+00  3.51785062E+00
  6.39216026E-01 -4.39671363E+00 -4.63589061E+00  6.54656489E-02 -6.89373838E+00
 -6.27272597E-01  8.21638727E-01
Num ILSW                                   I              100
ILSW                                       I   N=         100
           0           1           0           0           2           0
           0           0           0           0           0          -1
           0           0           0           0           0           0
           0           0           0           0           1           0
           1           0           0           0           0           0
           0           0      100000           0          -1           0
           0           0           0           0           0           0
           0           0           0           1           1           0
           0           0           1           0           0           0
           0           0           4          40           0           0
           0           0           0           0           0           0
           0           0           0           0           0           0
           0           0           0           0           0           0
           0           0           0           0           0           0
           0           0           0           0           0           0
           0           0           0           0           0           0
           0           0           0           0
Num RLSW                                   I               40
RLSW                                       R   N=          40
  1.00000000E+00  1.00000000E+00  1.00000000E+00  1.00000000E+00  1.00000000E+00
  0.00000000E+00  0.00000000E+00  1.00000000E+00  0.00000000E+00  0.00000000E+00
  0.00000000E+00  0.00000000E+00  1.00000000E+00  0.00000000E+00  0.00000000E+00
  0.00000000E+00  0.00000000E+00  1.00000000E+00  0.00000000E+00  0.00000000E+00
  0.00000000E+00  0.00000000E+00  1.00000000E+00  0.00000000E+00  0.00000000E+00
  0.00000000E+00  0.00000000E+00  1.00000000E+00  0.00000000E+00  0.00000000E+00
  0.00000000E+00  0.00000000E+00  0.00000000E+00  0.00000000E+00  0.00000000E+00
  0.00000000E+00  0.00000000E+00  0.00000000E+00  1.00000000E+00  1.00000000E+00
MxBond                                     I                4
NBond                                      I   N=          19
           1           3           4           4           4           3
           3           3           3           3           1           1
           1           1           1           1           1           1
           1
IBond                                      I   N=          76
           6           0           0           0           3           6
           7           0           2           4           5          11
           3           5          12          13           3           4
          14          15           1           2           8           0
           2           9          16           0           6          10
          17           0           7          10          18           0
           8           9          19           0           3           0
           0           0           4           0           0           0
           4           0           0           0           5           0
           0           0           5           0           0           0
           7           0           0           0           8           0
           0           0           9           0           0           0
          10           0           0           0
RBond                                      R   N=          76
  2.00000000E+00  0.00000000E+00  0.00000000E+00  0.00000000E+00  1.00000000E+00
  1.00000000E+00  1.00000000E+00  0.00000000E+00  1.00000000E+00  1.00000000E+00
  1.00000000E+00  1.00000000E+00  1.00000000E+00  1.00000000E+00  1.00000000E+00
  1.00000000E+00  1.00000000E+00  1.00000000E+00  1.00000000E+00  1.00000000E+00
  2.00000000E+00  1.00000000E+00  1.00000000E+00  0.00000000E+00  1.00000000E+00
  2.00000000E+00  1.00000000E+00  0.00000000E+00  1.00000000E+00  2.00000000E+00
  1.00000000E+00  0.00000000E+00  2.00000000E+00  1.00000000E+00  1.00000000E+00
  0.00000000E+00  2.00000000E+00  1.00000000E+00  1.00000000E+00  0.00000000E+00
  1.00000000E+00  0.00000000E+00  0.00000000E+00  0.00000000E+00  1.00000000E+00
  0.00000000E+00  0.00000000E+00  0.00000000E+00  1.00000000E+00  0.00000000E+00
  0.00000000E+00  0.00000000E+00  1.00000000E+00  0.00000000E+00  0.00000000E+00
  0.00000000E+00  1.00000000E+00  0.00000000E+00  0.00000000E+00  0.00000000E+00
  1.00000000E+00  0.00000000E+00  0.00000000E+00  0.00000000E+00  1.00000000E+00
  0.00000000E+00  0.00000000E+00  0.00000000E+00  1.00000000E+00  0.00000000E+00
  0.00000000E+00  0.00000000E+00  1.00000000E+00  0.00000000E+00  0.00000000E+00
  0.00000000E+00
Virial Ratio                               R      2.002363076483007E+00
SCF Energy                                 R     -4.374582114661657E+02
MP2 Energy                                 R     -4.388178332264945E+02
Total Energy                               R     -4.388178332264945E+02
Post-SCF wavefunction norm                 R      1.710074842019585E+00
RMS Force                                  R      1.233922155254673E-06
RMS Density                                R      2.334734324195729E-09
External E-field                           R   N=          35
  0.00000000E+00  0.00000000E+00  0.00000000E+00  0.00000000E+00  0.00000000E+00
  0.00000000E+00  0.00000000E+00  0.00000000E+00  0.00000000E+00  0.00000000E+00
  0.00000000E+00  0.00000000E+00  0.00000000E+00  0.00000000E+00  0.00000000E+00
  0.00000000E+00  0.00000000E+00  0.00000000E+00  0.00000000E+00  0.00000000E+00
  0.00000000E+00  0.00000000E+00  0.00000000E+00  0.00000000E+00  0.00000000E+00
  0.00000000E+00  0.00000000E+00  0.00000000E+00  0.00000000E+00  0.00000000E+00
  0.00000000E+00  0.00000000E+00  0.00000000E+00  0.00000000E+00  0.00000000E+00
IOpCl                                      I                0
IROHF                                      I                0
Alpha Orbital Energies                     R   N=         168
 -2.05081904E+01 -1.56279954E+01 -1.13478567E+01 -1.13058803E+01 -1.12773843E+01
 -1.12682452E+01 -1.12423420E+01 -1.12378132E+01 -1.12332308E+01 -1.12327199E+01
 -1.36374177E+00 -1.27804210E+00 -1.15353488E+00 -1.09154201E+00 -1.01999426E+00
 -8.97292479E-01 -8.64697530E-01 -8.26708395E-01 -8.06679275E-01 -7.22275202E-01
 -6.92913265E-01 -6.77294148E-01 -6.59921813E-01 -6.36003518E-01 -5.98902516E-01
 -5.88603235E-01 -5.72601072E-01 -5.41148090E-01 -5.30559038E-01 -5.23970784E-01
 -4.72665442E-01 -4.50549593E-01 -4.36281056E-01 -4.11105192E-01 -3.93982360E-01
 -3.00675093E-01  1.00969370E-01  1.72794624E-01  2.29422240E-01  2.41778808E-01
  2.51982724E-01  2.69651646E-01  2.96893926E-01  3.11280351E-01  3.16696697E-01
  3.27211287E-01  3.30202274E-01  3.43797161E-01  3.70032851E-01  3.77272287E-01
  4.21923036E-01  4.27722686E-01  4.52843771E-01  4.71597654E-01  4.97850054E-01
  5.13850773E-01  5.28927238E-01  6.41096785E-01  6.88332712E-01  6.92069089E-01
  7.26367327E-01  7.40727740E-01  7.48445988E-01  7.65837098E-01  7.75819982E-01
  7.85765846E-01  8.04210265E-01  8.11950697E-01  8.24129534E-01  8.48171967E-01
  8.51166839E-01  8.68262007E-01  8.99961524E-01  9.04122280E-01  9.14436130E-01
  9.45239295E-01  9.58033259E-01  9.76634978E-01  1.02297859E+00  1.04543565E+00
  1.07496687E+00  1.09641785E+00  1.11728121E+00  1.12707995E+00  1.13596159E+00
  1.15002047E+00  1.15917314E+00  1.17152652E+00  1.17573175E+00  1.19598591E+00
  1.20596988E+00  1.22084191E+00  1.23648275E+00  1.25917417E+00  1.29569619E+00
  1.32762488E+00  1.37542173E+00  1.39996883E+00  1.42888401E+00  1.45384791E+00
  1.50337448E+00  1.53947341E+00  1.55389433E+00  1.57845721E+00  1.61705955E+00
  1.66074718E+00  1.68168343E+00  1.71260577E+00  1.74019273E+00  1.75166720E+00
  1.76754046E+00  1.83844346E+00  1.93910766E+00  1.97397201E+00  2.03608867E+00
  2.08361102E+00  2.10657734E+00  2.12734206E+00  2.14369296E+00  2.16898987E+00
  2.17623475E+00  2.20108803E+00  2.22713000E+00  2.23353995E+00  2.25465576E+00
  2.28065921E+00  2.32324148E+00  2.33899296E+00  2.39128935E+00  2.41394072E+00
  2.42223309E+00  2.45430626E+00  2.49055951E+00  2.50129180E+00  2.52854095E+00
  2.56658265E+00  2.59035768E+00  2.63023421E+00  2.65449584E+00  2.69397518E+00
  2.79811060E+00  2.83120242E+00  2.84303609E+00  2.88748261E+00  2.91145527E+00
  2.91932655E+00  2.96106547E+00  2.98138326E+00  3.03225833E+00  3.05959777E+00
  3.06207662E+00  3.12071368E+00  3.20068180E+00  3.21924498E+00  3.23432573E+00
  3.38990978E+00  3.58659155E+00  3.76734771E+00  4.45001872E+00  4.49715983E+00
  4.54262201E+00  4.61221037E+00  4.66438059E+00  4.71293067E+00  4.82111266E+00
  4.89704780E+00  4.94992606E+00  5.15657309E+00
Alpha MO coefficients                      R   N=       28224
  9.94692800E-01  2.09697500E-02 -7.50339403E-04 -1.33570053E-03  1.50043951E-04
  4.43837720E-03  6.41307523E-05  6.04737760E-05 -1.14618329E-05 -3.85184906E-03
 -3.73129194E-03 -4.07828990E-03  1.17908269E-04 -5.33420435E-05 -1.95582146E-05
 -1.20912975E-05 -3.83459656E-05  1.02324982E-05 -4.79964882E-05  5.76306777E-07
  1.85886247E-04 -8.28459177E-05  1.69312949E-04 -1.05557148E-05  3.36729767E-05
 -1.01772407E-04 -4.83203969E-05 -4.27197194E-05 -2.28426432E-05  6.05001996E-06
 -3.79555064E-06 -8.80079906E-07  1.15875183E-05  1.13594139E-05 -7.13350896E-06
  1.73436535E-04  7.40221448E-05 -9.29690326E-05  1.02998448E-04 -2.41777326E-05
 -1.32124791E-05 -7.21485052E-06  2.99392524E-06  9.12137943E-06 -1.80649505E-06
  5.84791507E-06  8.86240057E-06 -1.09990705E-05  1.97161894E-05 -3.73331470E-06
 -8.43590457E-05  7.09678482E-05 -8.48784132E-05  1.39089757E-05  7.79995107E-06
  2.76748848E-05  1.00614965E-05 -4.50451381E-06 -7.39697990E-07 -2.14411957E-06