57640189                                                                
Freq      RMP2-FC                                                     6-31G(d)            
Number of atoms                            I               26
Info1-9                                    I   N=           9
          38          36        1002           0           0         100
           6           2           1
Charge                                     I                0
Multiplicity                               I                1
Number of electrons                        I               94
Number of alpha electrons                  I               47
Number of beta electrons                   I               47
Number of basis functions                  I              221
Number of independent functions            I              221
Number of point charges in /Mol/           I                0
Number of translation vectors              I                0
Atomic numbers                             I   N=          26
           8           7           6           6           6           6
           6           6           6           6           6           6
           6           1           1           1           1           1
           1           1           1           1           1           1
           1           1
Nuclear charges                            R   N=          26
  8.00000000E+00  7.00000000E+00  6.00000000E+00  6.00000000E+00  6.00000000E+00
  6.00000000E+00  6.00000000E+00  6.00000000E+00  6.00000000E+00  6.00000000E+00
  6.00000000E+00  6.00000000E+00  6.00000000E+00  1.00000000E+00  1.00000000E+00
  1.00000000E+00  1.00000000E+00  1.00000000E+00  1.00000000E+00  1.00000000E+00
  1.00000000E+00  1.00000000E+00  1.00000000E+00  1.00000000E+00  1.00000000E+00
  1.00000000E+00
Current cartesian coordinates              R   N=          78
  5.91671955E-01  4.47949076E+00 -1.98111164E+00  3.37944529E+00  2.35973415E+00
  5.29295063E-01  2.88890749E+00 -2.51717901E+00 -1.53362213E+00  4.73989212E+00
 -2.13034498E+00  6.70271337E-01  1.77024151E-01 -2.04924353E+00 -7.85526466E-01
 -6.79074747E-01  4.32479071E-01 -3.26633566E-01  4.06297665E+00  2.54735120E-01
  2.16038573E+00 -3.20745015E+00  9.21604447E-01  3.43130647E-01  1.11018067E+00
  2.60669927E+00 -6.87031820E-01 -1.52258564E+00 -4.05544637E+00 -5.18862559E-01
 -4.84448757E+00 -1.13859597E+00  6.08127656E-01 -4.02403822E+00 -3.60633894E+00
  1.73033238E-01 -4.15849653E+00  3.57155778E+00  7.80520721E-01  3.08132293E+00
 -4.43852346E+00 -2.28168467E+00  3.40581937E+00 -1.23019941E+00 -3.07108937E+00
  4.68370157E+00 -3.75428356E+00  1.95838430E+00  6.67009515E+00 -2.00012875E+00
 -7.27972014E-02  2.47005895E+00 -1.41525907E-01  3.41797069E+00  5.63994456E+00
  8.60837071E-01  3.35218440E+00  4.61677654E+00  3.79139169E+00  2.21352552E-01
 -8.82611795E-01 -5.97688692E+00 -8.83456154E-01 -6.80088345E+00 -7.97842197E-01
  1.14493212E+00 -5.33469363E+00 -5.17652705E+00  3.78548421E-01 -2.93563407E+00
  4.61290787E+00  2.08188769E+00 -4.19691426E+00  4.63892140E+00 -9.85153712E-01
 -6.06356393E+00  3.51823277E+00  1.57999195E+00
Force Field                                I                0
Int Atom Types                             I   N=          26
           0           0           0           0           0           0
           0           0           0           0           0           0
           0           0           0           0           0           0
           0           0           0           0           0           0
           0           0
MM charges                                 R   N=          26
  0.00000000E+00  0.00000000E+00  0.00000000E+00  0.00000000E+00  0.00000000E+00
  0.00000000E+00  0.00000000E+00  0.00000000E+00  0.00000000E+00  0.00000000E+00
  0.00000000E+00  0.00000000E+00  0.00000000E+00  0.00000000E+00  0.00000000E+00
  0.00000000E+00  0.00000000E+00  0.00000000E+00  0.00000000E+00  0.00000000E+00
  0.00000000E+00  0.00000000E+00  0.00000000E+00  0.00000000E+00  0.00000000E+00
  0.00000000E+00
Integer atomic weights                     I   N=          26
          16          14          12          12          12          12
          12          12          12          12          12          12
          12           1           1           1           1           1
           1           1           1           1           1           1
           1           1
Real atomic weights                        R   N=          26
  1.59949146E+01  1.40030740E+01  1.20000000E+01  1.20000000E+01  1.20000000E+01
  1.20000000E+01  1.20000000E+01  1.20000000E+01  1.20000000E+01  1.20000000E+01
  1.20000000E+01  1.20000000E+01  1.20000000E+01  1.00782504E+00  1.00782504E+00
  1.00782504E+00  1.00782504E+00  1.00782504E+00  1.00782504E+00  1.00782504E+00
  1.00782504E+00  1.00782504E+00  1.00782504E+00  1.00782504E+00  1.00782504E+00
  1.00782504E+00
Atom fragment info                         I   N=          26
           0           0           0           0           0           0
           0           0           0           0           0           0
           0           0           0           0           0           0
           0           0           0           0           0           0
           0           0
Atom residue num                           I   N=          26
           0           0           0           0           0           0
           0           0           0           0           0           0
           0           0           0           0           0           0
           0           0           0           0           0           0
           0           0
Nuclear spins                              I   N=          26
           0           2           0           0           0           0
           0           0           0           0           0           0
           0           1           1           1           1           1
           1           1           1           1           1           1
           1           1
Nuclear ZEff                               R   N=          26
 -5.60000000E+00 -4.55000000E+00 -3.60000000E+00 -3.60000000E+00 -3.60000000E+00
 -3.60000000E+00 -3.60000000E+00 -3.60000000E+00 -3.60000000E+00 -3.60000000E+00
 -3.60000000E+00 -3.60000000E+00 -3.60000000E+00 -1.00000000E+00 -1.00000000E+00
 -1.00000000E+00 -1.00000000E+00 -1.00000000E+00 -1.00000000E+00 -1.00000000E+00
 -1.00000000E+00 -1.00000000E+00 -1.00000000E+00 -1.00000000E+00 -1.00000000E+00
 -1.00000000E+00
Nuclear QMom                               R   N=          26
  0.00000000E+00  2.04400000E+00  0.00000000E+00  0.00000000E+00  0.00000000E+00
  0.00000000E+00  0.00000000E+00  0.00000000E+00  0.00000000E+00  0.00000000E+00
  0.00000000E+00  0.00000000E+00  0.00000000E+00  0.00000000E+00  0.00000000E+00
  0.00000000E+00  0.00000000E+00  0.00000000E+00  0.00000000E+00  0.00000000E+00
  0.00000000E+00  0.00000000E+00  0.00000000E+00  0.00000000E+00  0.00000000E+00
  0.00000000E+00
Nuclear GFac                               R   N=          26
  0.00000000E+00  4.03761000E-01  0.00000000E+00  0.00000000E+00  0.00000000E+00
  0.00000000E+00  0.00000000E+00  0.00000000E+00  0.00000000E+00  0.00000000E+00
  0.00000000E+00  0.00000000E+00  0.00000000E+00  2.79284600E+00  2.79284600E+00
  2.79284600E+00  2.79284600E+00  2.79284600E+00  2.79284600E+00  2.79284600E+00
  2.79284600E+00  2.79284600E+00  2.79284600E+00  2.79284600E+00  2.79284600E+00
  2.79284600E+00
MicOpt                                     I   N=          26
          -1          -1          -1          -1          -1          -1
          -1          -1          -1          -1          -1          -1
          -1          -1          -1          -1          -1          -1
          -1          -1          -1          -1          -1          -1
          -1          -1
Number of contracted shells                I               78
Number of primitive shells                 I              195
Pure/Cartesian d shells                    I                1
Pure/Cartesian f shells                    I                0
Highest angular momentum                   I                2
Largest degree of contraction              I                6
Shell types                                I   N=          78
           0          -1          -1           2           0          -1
          -1           2           0          -1          -1           2
           0          -1          -1           2           0          -1
          -1           2           0          -1          -1           2
           0          -1          -1           2           0          -1
          -1           2           0          -1          -1           2
           0          -1          -1           2           0          -1
          -1           2           0          -1          -1           2
           0          -1          -1           2           0           0
           0           0           0           0           0           0
           0           0           0           0           0           0
           0           0           0           0           0           0
           0           0           0           0           0           0
Number of primitives per shell             I   N=          78
           6           3           1           1           6           3
           1           1           6           3           1           1
           6           3           1           1           6           3
           1           1           6           3           1           1
           6           3           1           1           6           3
           1           1           6           3           1           1
           6           3           1           1           6           3
           1           1           6           3           1           1
           6           3           1           1           3           1
           3           1           3           1           3           1
           3           1           3           1           3           1
           3           1           3           1           3           1
           3           1           3           1           3           1
Shell to atom map                          I   N=          78
           1           1           1           1           2           2
           2           2           3           3           3           3
           4           4           4           4           5           5
           5           5           6           6           6           6
           7           7           7           7           8           8
           8           8           9           9           9           9
          10          10          10          10          11          11
          11          11          12          12          12          12
          13          13          13          13          14          14
          15          15          16          16          17          17
          18          18          19          19          20          20
          21          21          22          22          23          23
          24          24          25          25          26          26
Primitive exponents                        R   N=         195
  5.48467166E+03  8.25234946E+02  1.88046958E+02  5.29645000E+01  1.68975704E+01
  5.79963534E+00  1.55396162E+01  3.59993359E+00  1.01376175E+00  2.70005823E-01
  8.00000000E-01  4.17351146E+03  6.27457911E+02  1.42902093E+02  4.02343293E+01
  1.28202129E+01  4.39043701E+00  1.16263619E+01  2.71627981E+00  7.72218397E-01
  2.12031498E-01  8.00000000E-01  3.04752488E+03  4.57369518E+02  1.03948685E+02
  2.92101553E+01  9.28666296E+00  3.16392696E+00  7.86827235E+00  1.88128854E+00
  5.44249258E-01  1.68714478E-01  8.00000000E-01  3.04752488E+03  4.57369518E+02
  1.03948685E+02  2.92101553E+01  9.28666296E+00  3.16392696E+00  7.86827235E+00
  1.88128854E+00  5.44249258E-01  1.68714478E-01  8.00000000E-01  3.04752488E+03
  4.57369518E+02  1.03948685E+02  2.92101553E+01  9.28666296E+00  3.16392696E+00
  7.86827235E+00  1.88128854E+00  5.44249258E-01  1.68714478E-01  8.00000000E-01
  3.04752488E+03  4.57369518E+02  1.03948685E+02  2.92101553E+01  9.28666296E+00
  3.16392696E+00  7.86827235E+00  1.88128854E+00  5.44249258E-01  1.68714478E-01
  8.00000000E-01  3.04752488E+03  4.57369518E+02  1.03948685E+02  2.92101553E+01
  9.28666296E+00  3.16392696E+00  7.86827235E+00  1.88128854E+00  5.44249258E-01
  1.68714478E-01  8.00000000E-01  3.04752488E+03  4.57369518E+02  1.03948685E+02
  2.92101553E+01  9.28666296E+00  3.16392696E+00  7.86827235E+00  1.88128854E+00
  5.44249258E-01  1.68714478E-01  8.00000000E-01  3.04752488E+03  4.57369518E+02
  1.03948685E+02  2.92101553E+01  9.28666296E+00  3.16392696E+00  7.86827235E+00
  1.88128854E+00  5.44249258E-01  1.68714478E-01  8.00000000E-01  3.04752488E+03
  4.57369518E+02  1.03948685E+02  2.92101553E+01  9.28666296E+00  3.16392696E+00
  7.86827235E+00  1.88128854E+00  5.44249258E-01  1.68714478E-01  8.00000000E-01
  3.04752488E+03  4.57369518E+02  1.03948685E+02  2.92101553E+01  9.28666296E+00
  3.16392696E+00  7.86827235E+00  1.88128854E+00  5.44249258E-01  1.68714478E-01
  8.00000000E-01  3.04752488E+03  4.57369518E+02  1.03948685E+02  2.92101553E+01
  9.28666296E+00  3.16392696E+00  7.86827235E+00  1.88128854E+00  5.44249258E-01
  1.68714478E-01  8.00000000E-01  3.04752488E+03  4.57369518E+02  1.03948685E+02
  2.92101553E+01  9.28666296E+00  3.16392696E+00  7.86827235E+00  1.88128854E+00
  5.44249258E-01  1.68714478E-01  8.00000000E-01  1.87311370E+01  2.82539436E+00
  6.40121692E-01  1.61277759E-01  1.87311370E+01  2.82539436E+00  6.40121692E-01
  1.61277759E-01  1.87311370E+01  2.82539436E+00  6.40121692E-01  1.61277759E-01
  1.87311370E+01  2.82539436E+00  6.40121692E-01  1.61277759E-01  1.87311370E+01
  2.82539436E+00  6.40121692E-01  1.61277759E-01  1.87311370E+01  2.82539436E+00
  6.40121692E-01  1.61277759E-01  1.87311370E+01  2.82539436E+00  6.40121692E-01
  1.61277759E-01  1.87311370E+01  2.82539436E+00  6.40121692E-01  1.61277759E-01
  1.87311370E+01  2.82539436E+00  6.40121692E-01  1.61277759E-01  1.87311370E+01
  2.82539436E+00  6.40121692E-01  1.61277759E-01  1.87311370E+01  2.82539436E+00
  6.40121692E-01  1.61277759E-01  1.87311370E+01  2.82539436E+00  6.40121692E-01
  1.61277759E-01  1.87311370E+01  2.82539436E+00  6.40121692E-01  1.61277759E-01
Contraction coefficients                   R   N=         195
  1.83107443E-03  1.39501722E-02  6.84450781E-02  2.32714336E-01  4.70192898E-01
  3.58520853E-01 -1.10777550E-01 -1.48026263E-01  1.13076702E+00  1.00000000E+00
  1.00000000E+00  1.83477216E-03  1.39946270E-02  6.85865518E-02  2.32240873E-01
  4.69069948E-01  3.60455199E-01 -1.14961182E-01 -1.69117479E-01  1.14585195E+00
  1.00000000E+00  1.00000000E+00  1.83473713E-03  1.40373228E-02  6.88426223E-02
  2.32184443E-01  4.67941348E-01  3.62311985E-01 -1.19332420E-01 -1.60854152E-01
  1.14345644E+00  1.00000000E+00  1.00000000E+00  1.83473713E-03  1.40373228E-02
  6.88426223E-02  2.32184443E-01  4.67941348E-01  3.62311985E-01 -1.19332420E-01
 -1.60854152E-01  1.14345644E+00  1.00000000E+00  1.00000000E+00  1.83473713E-03
  1.40373228E-02  6.88426223E-02  2.32184443E-01  4.67941348E-01  3.62311985E-01
 -1.19332420E-01 -1.60854152E-01  1.14345644E+00  1.00000000E+00  1.00000000E+00
  1.83473713E-03  1.40373228E-02  6.88426223E-02  2.32184443E-01  4.67941348E-01
  3.62311985E-01 -1.19332420E-01 -1.60854152E-01  1.14345644E+00  1.00000000E+00
  1.00000000E+00  1.83473713E-03  1.40373228E-02  6.88426223E-02  2.32184443E-01
  4.67941348E-01  3.62311985E-01 -1.19332420E-01 -1.60854152E-01  1.14345644E+00
  1.00000000E+00  1.00000000E+00  1.83473713E-03  1.40373228E-02  6.88426223E-02
  2.32184443E-01  4.67941348E-01  3.62311985E-01 -1.19332420E-01 -1.60854152E-01
  1.14345644E+00  1.00000000E+00  1.00000000E+00  1.83473713E-03  1.40373228E-02
  6.88426223E-02  2.32184443E-01  4.67941348E-01  3.62311985E-01 -1.19332420E-01
 -1.60854152E-01  1.14345644E+00  1.00000000E+00  1.00000000E+00  1.83473713E-03
  1.40373228E-02  6.88426223E-02  2.32184443E-01  4.67941348E-01  3.62311985E-01
 -1.19332420E-01 -1.60854152E-01  1.14345644E+00  1.00000000E+00  1.00000000E+00
  1.83473713E-03  1.40373228E-02  6.88426223E-02  2.32184443E-01  4.67941348E-01
  3.62311985E-01 -1.19332420E-01 -1.60854152E-01  1.14345644E+00  1.00000000E+00
  1.00000000E+00  1.83473713E-03  1.40373228E-02  6.88426223E-02  2.32184443E-01
  4.67941348E-01  3.62311985E-01 -1.19332420E-01 -1.60854152E-01  1.14345644E+00
  1.00000000E+00  1.00000000E+00  1.83473713E-03  1.40373228E-02  6.88426223E-02
  2.32184443E-01  4.67941348E-01  3.62311985E-01 -1.19332420E-01 -1.60854152E-01
  1.14345644E+00  1.00000000E+00  1.00000000E+00  3.34946043E-02  2.34726953E-01
  8.13757326E-01  1.00000000E+00  3.34946043E-02  2.34726953E-01  8.13757326E-01
  1.00000000E+00  3.34946043E-02  2.34726953E-01  8.13757326E-01  1.00000000E+00
  3.34946043E-02  2.34726953E-01  8.13757326E-01  1.00000000E+00  3.34946043E-02
  2.34726953E-01  8.13757326E-01  1.00000000E+00  3.34946043E-02  2.34726953E-01
  8.13757326E-01  1.00000000E+00  3.34946043E-02  2.34726953E-01  8.13757326E-01
  1.00000000E+00  3.34946043E-02  2.34726953E-01  8.13757326E-01  1.00000000E+00
  3.34946043E-02  2.34726953E-01  8.13757326E-01  1.00000000E+00  3.34946043E-02
  2.34726953E-01  8.13757326E-01  1.00000000E+00  3.34946043E-02  2.34726953E-01
  8.13757326E-01  1.00000000E+00  3.34946043E-02  2.34726953E-01  8.13757326E-01
  1.00000000E+00  3.34946043E-02  2.34726953E-01  8.13757326E-01  1.00000000E+00
P(S=P) Contraction coefficients            R   N=         195
  0.00000000E+00  0.00000000E+00  0.00000000E+00  0.00000000E+00  0.00000000E+00
  0.00000000E+00  7.08742682E-02  3.39752839E-01  7.27158577E-01  1.00000000E+00
  0.00000000E+00  0.00000000E+00  0.00000000E+00  0.00000000E+00  0.00000000E+00
  0.00000000E+00  0.00000000E+00  6.75797439E-02  3.23907296E-01  7.40895140E-01
  1.00000000E+00  0.00000000E+00  0.00000000E+00  0.00000000E+00  0.00000000E+00
  0.00000000E+00  0.00000000E+00  0.00000000E+00  6.89990666E-02  3.16423961E-01
  7.44308291E-01  1.00000000E+00  0.00000000E+00  0.00000000E+00  0.00000000E+00
  0.00000000E+00  0.00000000E+00  0.00000000E+00  0.00000000E+00  6.89990666E-02
  3.16423961E-01  7.44308291E-01  1.00000000E+00  0.00000000E+00  0.00000000E+00
  0.00000000E+00  0.00000000E+00  0.00000000E+00  0.00000000E+00  0.00000000E+00
  6.89990666E-02  3.16423961E-01  7.44308291E-01  1.00000000E+00  0.00000000E+00
  0.00000000E+00  0.00000000E+00  0.00000000E+00  0.00000000E+00  0.00000000E+00
  0.00000000E+00  6.89990666E-02  3.16423961E-01  7.44308291E-01  1.00000000E+00
  0.00000000E+00  0.00000000E+00  0.00000000E+00  0.00000000E+00  0.00000000E+00
  0.00000000E+00  0.00000000E+00  6.89990666E-02  3.16423961E-01  7.44308291E-01
  1.00000000E+00  0.00000000E+00  0.00000000E+00  0.00000000E+00  0.00000000E+00
  0.00000000E+00  0.00000000E+00  0.00000000E+00  6.89990666E-02  3.16423961E-01
  7.44308291E-01  1.00000000E+00  0.00000000E+00  0.00000000E+00  0.00000000E+00
  0.00000000E+00  0.00000000E+00  0.00000000E+00  0.00000000E+00  6.89990666E-02
  3.16423961E-01  7.44308291E-01  1.00000000E+00  0.00000000E+00  0.00000000E+00
  0.00000000E+00  0.00000000E+00  0.00000000E+00  0.00000000E+00  0.00000000E+00
  6.89990666E-02  3.16423961E-01  7.44308291E-01  1.00000000E+00  0.00000000E+00
  0.00000000E+00  0.00000000E+00  0.00000000E+00  0.00000000E+00  0.00000000E+00
  0.00000000E+00  6.89990666E-02  3.16423961E-01  7.44308291E-01  1.00000000E+00
  0.00000000E+00  0.00000000E+00  0.00000000E+00  0.00000000E+00  0.00000000E+00
  0.00000000E+00  0.00000000E+00  6.89990666E-02  3.16423961E-01  7.44308291E-01
  1.00000000E+00  0.00000000E+00  0.00000000E+00  0.00000000E+00  0.00000000E+00
  0.00000000E+00  0.00000000E+00  0.00000000E+00  6.89990666E-02  3.16423961E-01
  7.44308291E-01  1.00000000E+00  0.00000000E+00  0.00000000E+00  0.00000000E+00
  0.00000000E+00  0.00000000E+00  0.00000000E+00  0.00000000E+00  0.00000000E+00
  0.00000000E+00  0.00000000E+00  0.00000000E+00  0.00000000E+00  0.00000000E+00
  0.00000000E+00  0.00000000E+00  0.00000000E+00  0.00000000E+00  0.00000000E+00
  0.00000000E+00  0.00000000E+00  0.00000000E+00  0.00000000E+00  0.00000000E+00
  0.00000000E+00  0.00000000E+00  0.00000000E+00  0.00000000E+00  0.00000000E+00
  0.00000000E+00  0.00000000E+00  0.00000000E+00  0.00000000E+00  0.00000000E+00
  0.00000000E+00  0.00000000E+00  0.00000000E+00  0.00000000E+00  0.00000000E+00
  0.00000000E+00  0.00000000E+00  0.00000000E+00  0.00000000E+00  0.00000000E+00
  0.00000000E+00  0.00000000E+00  0.00000000E+00  0.00000000E+00  0.00000000E+00
  0.00000000E+00  0.00000000E+00  0.00000000E+00  0.00000000E+00  0.00000000E+00
Coordinates of each shell                  R   N=         234
  5.91671955E-01  4.47949076E+00 -1.98111164E+00  5.91671955E-01  4.47949076E+00
 -1.98111164E+00  5.91671955E-01  4.47949076E+00 -1.98111164E+00  5.91671955E-01
  4.47949076E+00 -1.98111164E+00  3.37944529E+00  2.35973415E+00  5.29295063E-01
  3.37944529E+00  2.35973415E+00  5.29295063E-01  3.37944529E+00  2.35973415E+00
  5.29295063E-01  3.37944529E+00  2.35973415E+00  5.29295063E-01  2.88890749E+00
 -2.51717901E+00 -1.53362213E+00  2.88890749E+00 -2.51717901E+00 -1.53362213E+00
  2.88890749E+00 -2.51717901E+00 -1.53362213E+00  2.88890749E+00 -2.51717901E+00
 -1.53362213E+00  4.73989212E+00 -2.13034498E+00  6.70271337E-01  4.73989212E+00
 -2.13034498E+00  6.70271337E-01  4.73989212E+00 -2.13034498E+00  6.70271337E-01
  4.73989212E+00 -2.13034498E+00  6.70271337E-01  1.77024151E-01 -2.04924353E+00
 -7.85526466E-01  1.77024151E-01 -2.04924353E+00 -7.85526466E-01  1.77024151E-01
 -2.04924353E+00 -7.85526466E-01  1.77024151E-01 -2.04924353E+00 -7.85526466E-01
 -6.79074747E-01  4.32479071E-01 -3.26633566E-01 -6.79074747E-01  4.32479071E-01
 -3.26633566E-01 -6.79074747E-01  4.32479071E-01 -3.26633566E-01 -6.79074747E-01
  4.32479071E-01 -3.26633566E-01  4.06297665E+00  2.54735120E-01  2.16038573E+00
  4.06297665E+00  2.54735120E-01  2.16038573E+00  4.06297665E+00  2.54735120E-01
  2.16038573E+00  4.06297665E+00  2.54735120E-01  2.16038573E+00 -3.20745015E+00
  9.21604447E-01  3.43130647E-01 -3.20745015E+00  9.21604447E-01  3.43130647E-01
 -3.20745015E+00  9.21604447E-01  3.43130647E-01 -3.20745015E+00  9.21604447E-01
  3.43130647E-01  1.11018067E+00  2.60669927E+00 -6.87031820E-01  1.11018067E+00
  2.60669927E+00 -6.87031820E-01  1.11018067E+00  2.60669927E+00 -6.87031820E-01
  1.11018067E+00  2.60669927E+00 -6.87031820E-01 -1.52258564E+00 -4.05544637E+00
 -5.18862559E-01 -1.52258564E+00 -4.05544637E+00 -5.18862559E-01 -1.52258564E+00
 -4.05544637E+00 -5.18862559E-01 -1.52258564E+00 -4.05544637E+00 -5.18862559E-01
 -4.84448757E+00 -1.13859597E+00  6.08127656E-01 -4.84448757E+00 -1.13859597E+00
  6.08127656E-01 -4.84448757E+00 -1.13859597E+00  6.08127656E-01 -4.84448757E+00
 -1.13859597E+00  6.08127656E-01 -4.02403822E+00 -3.60633894E+00  1.73033238E-01
 -4.02403822E+00 -3.60633894E+00  1.73033238E-01 -4.02403822E+00 -3.60633894E+00
  1.73033238E-01 -4.02403822E+00 -3.60633894E+00  1.73033238E-01 -4.15849653E+00
  3.57155778E+00  7.80520721E-01 -4.15849653E+00  3.57155778E+00  7.80520721E-01
 -4.15849653E+00  3.57155778E+00  7.80520721E-01 -4.15849653E+00  3.57155778E+00
  7.80520721E-01  3.08132293E+00 -4.43852346E+00 -2.28168467E+00  3.08132293E+00
 -4.43852346E+00 -2.28168467E+00  3.40581937E+00 -1.23019941E+00 -3.07108937E+00
  3.40581937E+00 -1.23019941E+00 -3.07108937E+00  4.68370157E+00 -3.75428356E+00
  1.95838430E+00  4.68370157E+00 -3.75428356E+00  1.95838430E+00  6.67009515E+00
 -2.00012875E+00 -7.27972014E-02  6.67009515E+00 -2.00012875E+00 -7.27972014E-02
  2.47005895E+00 -1.41525907E-01  3.41797069E+00  2.47005895E+00 -1.41525907E-01
  3.41797069E+00  5.63994456E+00  8.60837071E-01  3.35218440E+00  5.63994456E+00
  8.60837071E-01  3.35218440E+00  4.61677654E+00  3.79139169E+00  2.21352552E-01
  4.61677654E+00  3.79139169E+00  2.21352552E-01 -8.82611795E-01 -5.97688692E+00
 -8.83456154E-01 -8.82611795E-01 -5.97688692E+00 -8.83456154E-01 -6.80088345E+00
 -7.97842197E-01  1.14493212E+00 -6.80088345E+00 -7.97842197E-01  1.14493212E+00
 -5.33469363E+00 -5.17652705E+00  3.78548421E-01 -5.33469363E+00 -5.17652705E+00
  3.78548421E-01 -2.93563407E+00  4.61290787E+00  2.08188769E+00 -2.93563407E+00
  4.61290787E+00  2.08188769E+00 -4.19691426E+00  4.63892140E+00 -9.85153712E-01
 -4.19691426E+00  4.63892140E+00 -9.85153712E-01 -6.06356393E+00  3.51823277E+00
  1.57999195E+00 -6.06356393E+00  3.51823277E+00  1.57999195E+00
Constraint Structure                       R   N=          78
  5.91671955E-01  4.47949076E+00 -1.98111164E+00  3.37944529E+00  2.35973415E+00
  5.29295063E-01  2.88890749E+00 -2.51717901E+00 -1.53362213E+00  4.73989212E+00
 -2.13034498E+00  6.70271337E-01  1.77024151E-01 -2.04924353E+00 -7.85526466E-01
 -6.79074747E-01  4.32479071E-01 -3.26633566E-01  4.06297665E+00  2.54735120E-01
  2.16038573E+00 -3.20745015E+00  9.21604447E-01  3.43130647E-01  1.11018067E+00
  2.60669927E+00 -6.87031820E-01 -1.52258564E+00 -4.05544637E+00 -5.18862559E-01
 -4.84448757E+00 -1.13859597E+00  6.08127656E-01 -4.02403822E+00 -3.60633894E+00
  1.73033238E-01 -4.15849653E+00  3.57155778E+00  7.80520721E-01  3.08132293E+00
 -4.43852346E+00 -2.28168467E+00  3.40581937E+00 -1.23019941E+00 -3.07108937E+00
  4.68370157E+00 -3.75428356E+00  1.95838430E+00  6.67009515E+00 -2.00012875E+00
 -7.27972014E-02  2.47005895E+00 -1.41525907E-01  3.41797069E+00  5.63994456E+00
  8.60837071E-01  3.35218440E+00  4.61677654E+00  3.79139169E+00  2.21352552E-01
 -8.82611795E-01 -5.97688692E+00 -8.83456154E-01 -6.80088345E+00 -7.97842197E-01
  1.14493212E+00 -5.33469363E+00 -5.17652705E+00  3.78548421E-01 -2.93563407E+00
  4.61290787E+00  2.08188769E+00 -4.19691426E+00  4.63892140E+00 -9.85153712E-01
 -6.06356393E+00  3.51823277E+00  1.57999195E+00
Num ILSW                                   I              100
ILSW                                       I   N=         100
           0           1           0           0           2           0
           0           0           0           0           0          -1
           0           0           0           0           0           0
           0           0           0           0           1           0
           1           0           0           0           0           0
           0           0      100000           0          -1           0
           0           0           0           0           0           0
           0           0           0           1           1           0
           0           0           1           0           0           0
           0           0           4          40           0           0
           0           0           0           0           0           0
           0           0           0           0           0           0
           0           0           0           0           0           0
           0           0           0           0           0           0
           0           0           0           0           0           0
           0           0           0           0           0           0
           0           0           0           0
Num RLSW                                   I               40
RLSW                                       R   N=          40
  1.00000000E+00  1.00000000E+00  1.00000000E+00  1.00000000E+00  1.00000000E+00
  0.00000000E+00  0.00000000E+00  1.00000000E+00  0.00000000E+00  0.00000000E+00
  0.00000000E+00  0.00000000E+00  1.00000000E+00  0.00000000E+00  0.00000000E+00
  0.00000000E+00  0.00000000E+00  1.00000000E+00  0.00000000E+00  0.00000000E+00
  0.00000000E+00  0.00000000E+00  1.00000000E+00  0.00000000E+00  0.00000000E+00
  0.00000000E+00  0.00000000E+00  1.00000000E+00  0.00000000E+00  0.00000000E+00
  0.00000000E+00  0.00000000E+00  0.00000000E+00  0.00000000E+00  0.00000000E+00
  0.00000000E+00  0.00000000E+00  0.00000000E+00  1.00000000E+00  1.00000000E+00
MxBond                                     I                4
NBond                                      I   N=          26
           1           3           4           4           3           3
           4           3           3           3           3           3
           4           1           1           1           1           1
           1           1           1           1           1           1
           1           1
IBond                                      I   N=         104
           9           0           0           0           7           9
          20           0           4           5          14          15
           3           7          16          17           3           6
          10           0           5           8           9           0
           2           4          18          19           6          11
          13           0           1           2           6           0
           5          12          21           0           8          12
          22           0          10          11          23           0
           8          24          25          26           3           0
           0           0           3           0           0           0
           4           0           0           0           4           0
           0           0           7           0           0           0
           7           0           0           0           2           0
           0           0          10           0           0           0
          11           0           0           0          12           0
           0           0          13           0           0           0