opt=Tight                                                               
Freq      RMP2-FC                                                     6-31G(d)            
Number of atoms                            I               16
Info1-9                                    I   N=           9
          25          25        1002           0           0         100
           6           2           1
Charge                                     I                0
Multiplicity                               I                1
Number of electrons                        I               62
Number of alpha electrons                  I               31
Number of beta electrons                   I               31
Number of basis functions                  I              149
Number of independent functions            I              149
Number of point charges in /Mol/           I                0
Number of translation vectors              I                0
Atomic numbers                             I   N=          16
           7           6           6           6           6           6
           6           6           6           1           1           1
           1           1           1           1
Nuclear charges                            R   N=          16
  7.00000000E+00  6.00000000E+00  6.00000000E+00  6.00000000E+00  6.00000000E+00
  6.00000000E+00  6.00000000E+00  6.00000000E+00  6.00000000E+00  1.00000000E+00
  1.00000000E+00  1.00000000E+00  1.00000000E+00  1.00000000E+00  1.00000000E+00
  1.00000000E+00
Current cartesian coordinates              R   N=          48
 -2.95380257E+00 -2.03804885E+00 -7.55890453E-06  1.85412747E+00  2.70568153E+00
 -9.44863066E-06  4.07294752E+00  1.30834244E+00 -6.09589075E-08  4.03041546E+00
 -1.36074832E+00 -6.09589075E-08  1.76615127E+00 -2.68718300E+00  7.55890453E-06
 -4.68536808E-01 -1.26729759E+00 -6.09589075E-08 -4.76760896E-01  1.42188474E+00
  5.66917840E-06 -3.06286812E+00  2.20679572E+00  9.44863066E-06 -4.51424204E+00
  5.04594672E-02 -3.77945227E-06  1.91122744E+00  4.76163742E+00 -3.77945227E-06
  5.88423679E+00  2.27892279E+00 -9.44863066E-06  5.80524246E+00 -2.39664517E+00
  5.66917840E-06  1.73645801E+00 -4.74365101E+00  3.77945227E-06 -3.77309334E+00
  4.12506617E+00  1.88972613E-05 -3.54709343E+00 -3.85433455E+00 -6.09589075E-08
 -6.54774420E+00 -1.72273103E-01 -9.44863066E-06
Force Field                                I                0
Int Atom Types                             I   N=          16
           0           0           0           0           0           0
           0           0           0           0           0           0
           0           0           0           0
MM charges                                 R   N=          16
  0.00000000E+00  0.00000000E+00  0.00000000E+00  0.00000000E+00  0.00000000E+00
  0.00000000E+00  0.00000000E+00  0.00000000E+00  0.00000000E+00  0.00000000E+00
  0.00000000E+00  0.00000000E+00  0.00000000E+00  0.00000000E+00  0.00000000E+00
  0.00000000E+00
Integer atomic weights                     I   N=          16
          14          12          12          12          12          12
          12          12          12           1           1           1
           1           1           1           1
Real atomic weights                        R   N=          16
  1.40030740E+01  1.20000000E+01  1.20000000E+01  1.20000000E+01  1.20000000E+01
  1.20000000E+01  1.20000000E+01  1.20000000E+01  1.20000000E+01  1.00782504E+00
  1.00782504E+00  1.00782504E+00  1.00782504E+00  1.00782504E+00  1.00782504E+00
  1.00782504E+00
Atom fragment info                         I   N=          16
           0           0           0           0           0           0
           0           0           0           0           0           0
           0           0           0           0
Atom residue num                           I   N=          16
           0           0           0           0           0           0
           0           0           0           0           0           0
           0           0           0           0
Nuclear spins                              I   N=          16
           2           0           0           0           0           0
           0           0           0           1           1           1
           1           1           1           1
Nuclear ZEff                               R   N=          16
 -4.55000000E+00 -3.60000000E+00 -3.60000000E+00 -3.60000000E+00 -3.60000000E+00
 -3.60000000E+00 -3.60000000E+00 -3.60000000E+00 -3.60000000E+00 -1.00000000E+00
 -1.00000000E+00 -1.00000000E+00 -1.00000000E+00 -1.00000000E+00 -1.00000000E+00
 -1.00000000E+00
Nuclear QMom                               R   N=          16
  2.04400000E+00  0.00000000E+00  0.00000000E+00  0.00000000E+00  0.00000000E+00
  0.00000000E+00  0.00000000E+00  0.00000000E+00  0.00000000E+00  0.00000000E+00
  0.00000000E+00  0.00000000E+00  0.00000000E+00  0.00000000E+00  0.00000000E+00
  0.00000000E+00
Nuclear GFac                               R   N=          16
  4.03761000E-01  0.00000000E+00  0.00000000E+00  0.00000000E+00  0.00000000E+00
  0.00000000E+00  0.00000000E+00  0.00000000E+00  0.00000000E+00  2.79284600E+00
  2.79284600E+00  2.79284600E+00  2.79284600E+00  2.79284600E+00  2.79284600E+00
  2.79284600E+00
MicOpt                                     I   N=          16
          -1          -1          -1          -1          -1          -1
          -1          -1          -1          -1          -1          -1
          -1          -1          -1          -1
Number of contracted shells                I               50
Number of primitive shells                 I              127
Pure/Cartesian d shells                    I                1
Pure/Cartesian f shells                    I                0
Highest angular momentum                   I                2
Largest degree of contraction              I                6
Shell types                                I   N=          50
           0          -1          -1           2           0          -1
          -1           2           0          -1          -1           2
           0          -1          -1           2           0          -1
          -1           2           0          -1          -1           2
           0          -1          -1           2           0          -1
          -1           2           0          -1          -1           2
           0           0           0           0           0           0
           0           0           0           0           0           0
           0           0
Number of primitives per shell             I   N=          50
           6           3           1           1           6           3
           1           1           6           3           1           1
           6           3           1           1           6           3
           1           1           6           3           1           1
           6           3           1           1           6           3
           1           1           6           3           1           1
           3           1           3           1           3           1
           3           1           3           1           3           1
           3           1
Shell to atom map                          I   N=          50
           1           1           1           1           2           2
           2           2           3           3           3           3
           4           4           4           4           5           5
           5           5           6           6           6           6
           7           7           7           7           8           8
           8           8           9           9           9           9
          10          10          11          11          12          12
          13          13          14          14          15          15
          16          16
Primitive exponents                        R   N=         127
  4.17351146E+03  6.27457911E+02  1.42902093E+02  4.02343293E+01  1.28202129E+01
  4.39043701E+00  1.16263619E+01  2.71627981E+00  7.72218397E-01  2.12031498E-01
  8.00000000E-01  3.04752488E+03  4.57369518E+02  1.03948685E+02  2.92101553E+01
  9.28666296E+00  3.16392696E+00  7.86827235E+00  1.88128854E+00  5.44249258E-01
  1.68714478E-01  8.00000000E-01  3.04752488E+03  4.57369518E+02  1.03948685E+02
  2.92101553E+01  9.28666296E+00  3.16392696E+00  7.86827235E+00  1.88128854E+00
  5.44249258E-01  1.68714478E-01  8.00000000E-01  3.04752488E+03  4.57369518E+02
  1.03948685E+02  2.92101553E+01  9.28666296E+00  3.16392696E+00  7.86827235E+00
  1.88128854E+00  5.44249258E-01  1.68714478E-01  8.00000000E-01  3.04752488E+03
  4.57369518E+02  1.03948685E+02  2.92101553E+01  9.28666296E+00  3.16392696E+00
  7.86827235E+00  1.88128854E+00  5.44249258E-01  1.68714478E-01  8.00000000E-01
  3.04752488E+03  4.57369518E+02  1.03948685E+02  2.92101553E+01  9.28666296E+00
  3.16392696E+00  7.86827235E+00  1.88128854E+00  5.44249258E-01  1.68714478E-01
  8.00000000E-01  3.04752488E+03  4.57369518E+02  1.03948685E+02  2.92101553E+01
  9.28666296E+00  3.16392696E+00  7.86827235E+00  1.88128854E+00  5.44249258E-01
  1.68714478E-01  8.00000000E-01  3.04752488E+03  4.57369518E+02  1.03948685E+02
  2.92101553E+01  9.28666296E+00  3.16392696E+00  7.86827235E+00  1.88128854E+00
  5.44249258E-01  1.68714478E-01  8.00000000E-01  3.04752488E+03  4.57369518E+02
  1.03948685E+02  2.92101553E+01  9.28666296E+00  3.16392696E+00  7.86827235E+00
  1.88128854E+00  5.44249258E-01  1.68714478E-01  8.00000000E-01  1.87311370E+01
  2.82539436E+00  6.40121692E-01  1.61277759E-01  1.87311370E+01  2.82539436E+00
  6.40121692E-01  1.61277759E-01  1.87311370E+01  2.82539436E+00  6.40121692E-01
  1.61277759E-01  1.87311370E+01  2.82539436E+00  6.40121692E-01  1.61277759E-01
  1.87311370E+01  2.82539436E+00  6.40121692E-01  1.61277759E-01  1.87311370E+01
  2.82539436E+00  6.40121692E-01  1.61277759E-01  1.87311370E+01  2.82539436E+00
  6.40121692E-01  1.61277759E-01
Contraction coefficients                   R   N=         127
  1.83477216E-03  1.39946270E-02  6.85865518E-02  2.32240873E-01  4.69069948E-01
  3.60455199E-01 -1.14961182E-01 -1.69117479E-01  1.14585195E+00  1.00000000E+00
  1.00000000E+00  1.83473713E-03  1.40373228E-02  6.88426223E-02  2.32184443E-01
  4.67941348E-01  3.62311985E-01 -1.19332420E-01 -1.60854152E-01  1.14345644E+00
  1.00000000E+00  1.00000000E+00  1.83473713E-03  1.40373228E-02  6.88426223E-02
  2.32184443E-01  4.67941348E-01  3.62311985E-01 -1.19332420E-01 -1.60854152E-01
  1.14345644E+00  1.00000000E+00  1.00000000E+00  1.83473713E-03  1.40373228E-02
  6.88426223E-02  2.32184443E-01  4.67941348E-01  3.62311985E-01 -1.19332420E-01
 -1.60854152E-01  1.14345644E+00  1.00000000E+00  1.00000000E+00  1.83473713E-03
  1.40373228E-02  6.88426223E-02  2.32184443E-01  4.67941348E-01  3.62311985E-01
 -1.19332420E-01 -1.60854152E-01  1.14345644E+00  1.00000000E+00  1.00000000E+00
  1.83473713E-03  1.40373228E-02  6.88426223E-02  2.32184443E-01  4.67941348E-01
  3.62311985E-01 -1.19332420E-01 -1.60854152E-01  1.14345644E+00  1.00000000E+00
  1.00000000E+00  1.83473713E-03  1.40373228E-02  6.88426223E-02  2.32184443E-01
  4.67941348E-01  3.62311985E-01 -1.19332420E-01 -1.60854152E-01  1.14345644E+00
  1.00000000E+00  1.00000000E+00  1.83473713E-03  1.40373228E-02  6.88426223E-02
  2.32184443E-01  4.67941348E-01  3.62311985E-01 -1.19332420E-01 -1.60854152E-01
  1.14345644E+00  1.00000000E+00  1.00000000E+00  1.83473713E-03  1.40373228E-02
  6.88426223E-02  2.32184443E-01  4.67941348E-01  3.62311985E-01 -1.19332420E-01
 -1.60854152E-01  1.14345644E+00  1.00000000E+00  1.00000000E+00  3.34946043E-02
  2.34726953E-01  8.13757326E-01  1.00000000E+00  3.34946043E-02  2.34726953E-01
  8.13757326E-01  1.00000000E+00  3.34946043E-02  2.34726953E-01  8.13757326E-01
  1.00000000E+00  3.34946043E-02  2.34726953E-01  8.13757326E-01  1.00000000E+00
  3.34946043E-02  2.34726953E-01  8.13757326E-01  1.00000000E+00  3.34946043E-02
  2.34726953E-01  8.13757326E-01  1.00000000E+00  3.34946043E-02  2.34726953E-01
  8.13757326E-01  1.00000000E+00
P(S=P) Contraction coefficients            R   N=         127
  0.00000000E+00  0.00000000E+00  0.00000000E+00  0.00000000E+00  0.00000000E+00
  0.00000000E+00  6.75797439E-02  3.23907296E-01  7.40895140E-01  1.00000000E+00
  0.00000000E+00  0.00000000E+00  0.00000000E+00  0.00000000E+00  0.00000000E+00
  0.00000000E+00  0.00000000E+00  6.89990666E-02  3.16423961E-01  7.44308291E-01
  1.00000000E+00  0.00000000E+00  0.00000000E+00  0.00000000E+00  0.00000000E+00
  0.00000000E+00  0.00000000E+00  0.00000000E+00  6.89990666E-02  3.16423961E-01
  7.44308291E-01  1.00000000E+00  0.00000000E+00  0.00000000E+00  0.00000000E+00
  0.00000000E+00  0.00000000E+00  0.00000000E+00  0.00000000E+00  6.89990666E-02
  3.16423961E-01  7.44308291E-01  1.00000000E+00  0.00000000E+00  0.00000000E+00
  0.00000000E+00  0.00000000E+00  0.00000000E+00  0.00000000E+00  0.00000000E+00
  6.89990666E-02  3.16423961E-01  7.44308291E-01  1.00000000E+00  0.00000000E+00
  0.00000000E+00  0.00000000E+00  0.00000000E+00  0.00000000E+00  0.00000000E+00
  0.00000000E+00  6.89990666E-02  3.16423961E-01  7.44308291E-01  1.00000000E+00
  0.00000000E+00  0.00000000E+00  0.00000000E+00  0.00000000E+00  0.00000000E+00
  0.00000000E+00  0.00000000E+00  6.89990666E-02  3.16423961E-01  7.44308291E-01
  1.00000000E+00  0.00000000E+00  0.00000000E+00  0.00000000E+00  0.00000000E+00
  0.00000000E+00  0.00000000E+00  0.00000000E+00  6.89990666E-02  3.16423961E-01
  7.44308291E-01  1.00000000E+00  0.00000000E+00  0.00000000E+00  0.00000000E+00
  0.00000000E+00  0.00000000E+00  0.00000000E+00  0.00000000E+00  6.89990666E-02
  3.16423961E-01  7.44308291E-01  1.00000000E+00  0.00000000E+00  0.00000000E+00
  0.00000000E+00  0.00000000E+00  0.00000000E+00  0.00000000E+00  0.00000000E+00
  0.00000000E+00  0.00000000E+00  0.00000000E+00  0.00000000E+00  0.00000000E+00
  0.00000000E+00  0.00000000E+00  0.00000000E+00  0.00000000E+00  0.00000000E+00
  0.00000000E+00  0.00000000E+00  0.00000000E+00  0.00000000E+00  0.00000000E+00
  0.00000000E+00  0.00000000E+00  0.00000000E+00  0.00000000E+00  0.00000000E+00
  0.00000000E+00  0.00000000E+00
Coordinates of each shell                  R   N=         150
 -2.95380305E+00 -2.03804844E+00 -7.69262084E-06 -2.95380305E+00 -2.03804844E+00
 -7.69262084E-06 -2.95380305E+00 -2.03804844E+00 -7.69262084E-06 -2.95380305E+00
 -2.03804844E+00 -7.69262084E-06  1.85412740E+00  2.70568152E+00 -9.58234698E-06
  1.85412740E+00  2.70568152E+00 -9.58234698E-06  1.85412740E+00  2.70568152E+00
 -9.58234698E-06  1.85412740E+00  2.70568152E+00 -9.58234698E-06  4.07294733E+00
  1.30834224E+00 -1.94675221E-07  4.07294733E+00  1.30834224E+00 -1.94675221E-07
  4.07294733E+00  1.30834224E+00 -1.94675221E-07  4.07294733E+00  1.30834224E+00
 -1.94675221E-07  4.03041503E+00 -1.36074852E+00 -1.94675221E-07  4.03041503E+00
 -1.36074852E+00 -1.94675221E-07  4.03041503E+00 -1.36074852E+00 -1.94675221E-07
  4.03041503E+00 -1.36074852E+00 -1.94675221E-07  1.76615073E+00 -2.68718300E+00
  7.42518822E-06  1.76615073E+00 -2.68718300E+00  7.42518822E-06  1.76615073E+00
 -2.68718300E+00  7.42518822E-06  1.76615073E+00 -2.68718300E+00  7.42518822E-06
 -4.68537222E-01 -1.26729739E+00 -1.94675221E-07 -4.68537222E-01 -1.26729739E+00
 -1.94675221E-07 -4.68537222E-01 -1.26729739E+00 -1.94675221E-07 -4.68537222E-01
 -1.26729739E+00 -1.94675221E-07 -4.76761077E-01  1.42188494E+00  5.53546209E-06
 -4.76761077E-01  1.42188494E+00  5.53546209E-06 -4.76761077E-01  1.42188494E+00
  5.53546209E-06 -4.76761077E-01  1.42188494E+00  5.53546209E-06 -3.06286823E+00
  2.20679614E+00  9.31491435E-06 -3.06286823E+00  2.20679614E+00  9.31491435E-06
 -3.06286823E+00  2.20679614E+00  9.31491435E-06 -3.06286823E+00  2.20679614E+00
  9.31491435E-06 -4.51424234E+00  5.04600110E-02 -3.91316858E-06 -4.51424234E+00
  5.04600110E-02 -3.91316858E-06 -4.51424234E+00  5.04600110E-02 -3.91316858E-06
 -4.51424234E+00  5.04600110E-02 -3.91316858E-06  1.91122754E+00  4.76163741E+00
 -3.91316858E-06  1.91122754E+00  4.76163741E+00 -3.91316858E-06  5.88423668E+00
  2.27892243E+00 -9.58234698E-06  5.88423668E+00  2.27892243E+00 -9.58234698E-06
  5.80524195E+00 -2.39664552E+00  5.53546209E-06  5.80524195E+00 -2.39664552E+00
  5.53546209E-06  1.73645729E+00 -4.74365101E+00  3.64573595E-06  1.73645729E+00
 -4.74365101E+00  3.64573595E-06 -3.77309328E+00  4.12506665E+00  1.87635450E-05
 -3.77309328E+00  4.12506665E+00  1.87635450E-05 -3.54709407E+00 -3.85433409E+00
 -1.94675221E-07 -3.54709407E+00 -3.85433409E+00 -1.94675221E-07 -6.54774452E+00
 -1.72272383E-01 -9.58234698E-06 -6.54774452E+00 -1.72272383E-01 -9.58234698E-06
Constraint Structure                       R   N=          48
 -2.95380305E+00 -2.03804844E+00 -7.69262084E-06  1.85412740E+00  2.70568152E+00
 -9.58234698E-06  4.07294733E+00  1.30834224E+00 -1.94675221E-07  4.03041503E+00
 -1.36074852E+00 -1.94675221E-07  1.76615073E+00 -2.68718300E+00  7.42518822E-06
 -4.68537222E-01 -1.26729739E+00 -1.94675221E-07 -4.76761077E-01  1.42188494E+00
  5.53546209E-06 -3.06286823E+00  2.20679614E+00  9.31491435E-06 -4.51424234E+00
  5.04600110E-02 -3.91316858E-06  1.91122754E+00  4.76163741E+00 -3.91316858E-06
  5.88423668E+00  2.27892243E+00 -9.58234698E-06  5.80524195E+00 -2.39664552E+00
  5.53546209E-06  1.73645729E+00 -4.74365101E+00  3.64573595E-06 -3.77309328E+00
  4.12506665E+00  1.87635450E-05 -3.54709407E+00 -3.85433409E+00 -1.94675221E-07
 -6.54774452E+00 -1.72272383E-01 -9.58234698E-06
Num ILSW                                   I              100
ILSW                                       I   N=         100
           0           1           0           0           2           0
           0           0           0           0           0          -1
           0           0           0           0           0           0
           0           0           0           0           1           0
           1           0           0           0           0           0
           0           0      100000           0          -1           0
           0           0           0           0           0           0
           0           0           0           1           1           0
           0           0           1           0           0           0
           0           0           4          40           0           0
           0           0           0           0           0           0
           0           0           0           0           0           0
           0           0           0           0           0           0
           0           0           0           0           0           0
           0           0           0           0           0           0
           0           0           0           0           0           0
           0           0           0           0
Num RLSW                                   I               40
RLSW                                       R   N=          40
  1.00000000E+00  1.00000000E+00  1.00000000E+00  1.00000000E+00  1.00000000E+00
  0.00000000E+00  0.00000000E+00  1.00000000E+00  0.00000000E+00  0.00000000E+00
  0.00000000E+00  0.00000000E+00  1.00000000E+00  0.00000000E+00  0.00000000E+00
  0.00000000E+00  0.00000000E+00  1.00000000E+00  0.00000000E+00  0.00000000E+00
  0.00000000E+00  0.00000000E+00  1.00000000E+00  0.00000000E+00  0.00000000E+00
  0.00000000E+00  0.00000000E+00  1.00000000E+00  0.00000000E+00  0.00000000E+00
  0.00000000E+00  0.00000000E+00  0.00000000E+00  0.00000000E+00  0.00000000E+00
  0.00000000E+00  0.00000000E+00  0.00000000E+00  1.00000000E+00  1.00000000E+00
MxBond                                     I                3
NBond                                      I   N=          16
           3           3           3           3           3           3
           3           3           3           1           1           1
           1           1           1           1
IBond                                      I   N=          48
           6           9          15           3           7          10
           2           4          11           3           5          12
           4           6          13           1           5           7
           2           6           8           7           9          14
           1           8          16           2           0           0
           3           0           0           4           0           0
           5           0           0           8           0           0
           1           0           0           9           0           0
RBond                                      R   N=          48
  1.00000000E+00  1.00000000E+00  1.00000000E+00  1.50000000E+00  1.50000000E+00
  1.00000000E+00  1.50000000E+00  1.50000000E+00  1.00000000E+00  1.50000000E+00
  1.50000000E+00  1.00000000E+00  1.50000000E+00  1.50000000E+00  1.00000000E+00
  1.00000000E+00  1.50000000E+00  1.50000000E+00  1.50000000E+00  1.50000000E+00
  1.00000000E+00  1.00000000E+00  1.50000000E+00  1.00000000E+00  1.00000000E+00
  1.50000000E+00  1.00000000E+00  1.00000000E+00  0.00000000E+00  0.00000000E+00
  1.00000000E+00  0.00000000E+00  0.00000000E+00  1.00000000E+00  0.00000000E+00
  0.00000000E+00  1.00000000E+00  0.00000000E+00  0.00000000E+00  1.00000000E+00
  0.00000000E+00  0.00000000E+00  1.00000000E+00  0.00000000E+00  0.00000000E+00
  1.00000000E+00  0.00000000E+00  0.00000000E+00
Virial Ratio                               R      2.002201218809722E+00
SCF Energy                                 R     -3.614647953431792E+02
MP2 Energy                                 R     -3.626421147105601E+02
Total Energy                               R     -3.626421147105601E+02
Post-SCF wavefunction norm                 R      1.688362404561869E+00
RMS Force                                  R      2.051411920482405E-06
RMS Density                                R      1.502231745271883E-09
External E-field                           R   N=          35
  0.00000000E+00  0.00000000E+00  0.00000000E+00  0.00000000E+00  0.00000000E+00
  0.00000000E+00  0.00000000E+00  0.00000000E+00  0.00000000E+00  0.00000000E+00
  0.00000000E+00  0.00000000E+00  0.00000000E+00  0.00000000E+00  0.00000000E+00
  0.00000000E+00  0.00000000E+00  0.00000000E+00  0.00000000E+00  0.00000000E+00
  0.00000000E+00  0.00000000E+00  0.00000000E+00  0.00000000E+00  0.00000000E+00
  0.00000000E+00  0.00000000E+00  0.00000000E+00  0.00000000E+00  0.00000000E+00
  0.00000000E+00  0.00000000E+00  0.00000000E+00  0.00000000E+00  0.00000000E+00
IOpCl                                      I                0
IROHF                                      I                0
Alpha Orbital Energies                     R   N=         149
 -1.56051597E+01 -1.12693936E+01 -1.12619431E+01 -1.12295746E+01 -1.12272379E+01
 -1.12264333E+01 -1.12216670E+01 -1.12183746E+01 -1.12136641E+01 -1.28990851E+00
 -1.12132965E+00 -1.04906571E+00 -9.89917663E-01 -9.67854326E-01 -8.35931933E-01
 -7.99929809E-01 -7.81961284E-01 -7.21261319E-01 -6.55841592E-01 -6.41413648E-01
 -5.94961611E-01 -5.89320153E-01 -5.75271803E-01 -5.67696291E-01 -5.43731204E-01
 -5.01073768E-01 -4.76228688E-01 -4.56922750E-01 -3.77753137E-01 -2.93127064E-01
 -2.74732852E-01  1.32711644E-01  1.79397063E-01  2.25231193E-01  2.39846692E-01
  2.53320356E-01  2.81427843E-01  2.95981754E-01  3.15813242E-01  3.30598622E-01
  3.38955633E-01  3.91876022E-01  4.02132967E-01  4.34734382E-01  4.54350518E-01
  4.77153569E-01  5.16897761E-01  5.35573506E-01  5.75351897E-01  6.54184651E-01
  7.08972263E-01  7.33027253E-01  7.44202830E-01  7.58270793E-01  7.79017926E-01
  7.92878437E-01  8.04635758E-01  8.10450173E-01  8.29169893E-01  8.40345858E-01
  8.43950447E-01  8.60965765E-01  8.64086952E-01  8.73316535E-01  8.95559784E-01
  8.96143560E-01  9.43499108E-01  9.63279932E-01  1.03519883E+00  1.06784699E+00
  1.07151471E+00  1.09481790E+00  1.10537982E+00  1.11894936E+00  1.13043517E+00
  1.13969356E+00  1.15595719E+00  1.17558945E+00  1.19846680E+00  1.22368050E+00
  1.23158932E+00  1.25512172E+00  1.29443417E+00  1.31918497E+00  1.36383752E+00
  1.38992241E+00  1.45914320E+00  1.49752483E+00  1.52269357E+00  1.55076110E+00
  1.59596004E+00  1.61557891E+00  1.63119757E+00  1.69568337E+00  1.69715699E+00
  1.74844282E+00  1.75429270E+00  1.76010658E+00  1.78956286E+00  1.79612979E+00
  1.82859356E+00  1.87029831E+00  2.04533342E+00  2.10917196E+00  2.13989196E+00
  2.17930871E+00  2.19759030E+00  2.22726091E+00  2.26334190E+00  2.28860976E+00
  2.32002238E+00  2.33273636E+00  2.38340949E+00  2.43326254E+00  2.45198405E+00
  2.47495388E+00  2.49324890E+00  2.54665589E+00  2.57765602E+00  2.58452401E+00
  2.59561463E+00  2.61431175E+00  2.71678633E+00  2.72453340E+00  2.74489783E+00
  2.82512489E+00  2.91199086E+00  2.93073114E+00  2.96790634E+00  3.01915148E+00
  3.02508959E+00  3.07534084E+00  3.12843851E+00  3.14810238E+00  3.20453550E+00
  3.26508033E+00  3.32692955E+00  3.45639393E+00  3.60937634E+00  3.81974612E+00
  4.42835295E+00  4.52458804E+00  4.53782085E+00  4.58315201E+00  4.63953809E+00
  4.75601329E+00  4.83188586E+00  4.88700329E+00  5.19812432E+00
Alpha MO coefficients                      R   N=       22201
  9.95001687E-01  2.54568046E-02  5.77401974E-05  1.36742699E-04  1.00622555E-08
 -5.26029980E-03 -1.17274999E-03 -1.51316846E-03 -1.18386703E-08 -3.46586211E-03
 -3.33341029E-03 -3.27652178E-03  1.27426593E-05 -7.62205158E-10 -5.36523635E-10
 -5.12271148E-06 -7.69180680E-06  1.28794498E-05  3.89546288E-05 -1.04831323E-10
 -6.01277453E-04  3.08831758E-04  3.56268515E-05 -3.68260160E-09 -2.48414629E-05
 -4.25257845E-06 -1.86508546E-05 -1.07235161E-05  4.32212747E-10  3.17044626E-10
 -8.92091416E-06 -4.02570686E-05  2.97358833E-05  1.21956403E-05 -3.78374802E-12
  1.57709162E-04 -2.24458629E-04 -2.18626025E-04  1.55486655E-09 -7.74408366E-06
  9.67765180E-07 -2.46610595E-05 -3.48799500E-06  2.33642033E-10  8.29933521E-11
 -5.00010518E-06 -1.01447759E-05  4.90175046E-05 -1.90476124E-06  8.77322003E-11
 -9.26249394E-04  2.63805776E-04  6.02123683E-05 -2.92279068E-09 -9.18213154E-06
 -2.34843683E-06 -2.35296343E-05 -3.82598463E-06  3.62453409E-10 -2.24519363E-10
 -7.56720590E-06 -4.92423985E-05 -3.71436045E-05 -1.15021474E-06 -1.45528957E-10
  1.56250034E-03  2.52719406E-04  1.24235472E-03 -2.21266397E-09 -3.93828883E-05
  5.93509317E-05 -2.90133346E-05 -1.39961955E-05 -1.90407487E-10 -7.51957206E-10
  4.08767433E-05  2.60290692E-04 -1.85614872E-04 -7.60482263E-05 -6.58769143E-10
  1.55810912E-03 -3.18460490E-03 -4.28140657E-04 -5.28905008E-09 -2.18913269E-05
 -2.93153793E-05 -3.37679657E-05  2.60071487E-05 -4.09770547E-10  1.07845028E-10
 -4.88542788E-06 -9.15521956E-05 -2.43148235E-05  3.55925194E-05  3.09844992E-10
  7.94650693E-04  6.93865734E-04  1.75717725E-04 -1.73943245E-09  6.73213222E-05
  1.52548608E-05 -2.45091211E-05 -2.28573891E-05 -3.50627282E-10 -2.64265690E-10
  2.49950985E-05  8.25249270E-05  6.76475687E-05  2.76946909E-05  7.72215213E-11
 -1.37837979E-03 -1.42199309E-04  1.04060755E-03  5.05708562E-09  2.23929101E-05
  2.70124293E-05  3.43644632E-05 -2.14957928E-05  2.39151360E-10 -1.21289176E-10
  1.77329328E-05  1.70671413E-04  1.48272759E-04 -2.41753663E-04 -5.09570978E-10
  2.44935841E-03  1.62701020E-03 -3.84142210E-05  5.18421277E-09 -5.33647990E-05
 -7.81580789E-05 -7.04004763E-05  2.83445386E-05  4.23874588E-10  1.34885080E-10
  2.17204930E-05  5.10205886E-05  2.19949817E-05  1.13556478E-04  1.50814709E-05
  4.26873829E-05  5.57891575E-05  3.94827443E-04 -5.04171139E-05 -2.76631119E-04
  1.43064068E-04  4.04960706E-06  1.93334458E-05  4.08496732E-04 -1.93144656E-04
  6.23761446E-04 -4.40979140E-05  9.43323265E-05 -1.05982438E-09 -2.71293817E-03
 -9.77582404E-04 -2.95824816E-03 -1.60001197E-09 -3.43906171E-04 -4.67068578E-04
  2.68393068E-04  2.54975988E-04 -9.92972865E-10 -3.52737482E-09 -1.22350812E-05
  4.23979118E-05  2.49234002E-05  5.59608228E-05 -6.06681410E-10 -2.10332905E-03
  1.12545758E-03  3.02598489E-04 -1.10338740E-08 -5.33783764E-05 -1.70324165E-05
 -2.55475487E-06 -2.23647892E-05  1.51563349E-09  8.17297110E-10 -2.21772332E-05
 -1.03112867E-04  3.62522386E-05  3.08453215E-06 -1.31676587E-10  9.47959739E-04
 -4.45548466E-04 -8.87236260E-04  3.04373428E-09 -1.35611973E-05  1.90409666E-05
 -4.42317788E-05 -1.58121481E-06  3.21358871E-10  5.11437976E-10  2.76213612E-05
  5.47136202E-05  4.95897971E-05  3.49225911E-05 -1.85181239E-10 -1.42350070E-03
  5.64822145E-04 -8.94761256E-04 -1.44269221E-10 -8.76021643E-06 -1.52150931E-05
  2.95758464E-06 -2.04655950E-05  4.98781551E-10 -7.35870310E-10 -2.61940793E-05
 -2.03054140E-04 -8.80737453E-05  8.20722024E-06 -4.95722679E-10  4.99220172E-03
 -1.75022538E-03  1.86027559E-03 -9.85198089E-09  4.29063513E-05  4.68915858E-06
 -5.59330902E-05  2.36347072E-05  5.15262516E-10 -8.69065625E-10 -1.97153195E-03
 -3.38183407E-04  2.78557304E-05 -1.26667337E-04  2.08505587E-10  2.29550569E-03
 -5.91112600E-03  4.19401592E-03 -9.36683267E-09  2.97695729E-04  1.55616795E-04
 -3.81278989E-05  2.05768270E-05  6.00623850E-10  1.37316156E-09 -1.42363175E-05
  3.90524473E-05 -9.01769016E-05  3.56362092E-05  1.09692136E-09 -3.10469006E-03
  2.87941812E-03  3.00113279E-03 -1.46748383E-09  2.31922900E-04 -7.09363426E-05
  5.86473713E-05 -1.04886425E-05 -3.80428320E-10 -1.16884307E-09  1.16564175E-02
  1.31112976E-04  1.38953508E-04  1.67478016E-04  1.25993866E-09  4.94124318E-03
 -8.42020192E-04 -2.05001121E-03 -9.01454526E-09 -2.66347175E-04 -3.45129050E-04
 -8.64285990E-05  1.34540300E-05  1.25698263E-10 -1.55911323E-09  9.95615026E-01
  2.71146241E-02  6.51537544E-04 -9.79272680E-04 -2.78848654E-09 -9.72212913E-03
 -1.98872941E-04 -1.14886744E-03 -8.78285913E-09 -1.40319271E-03 -1.55320481E-03
 -2.35388491E-03 -9.16340853E-05  1.90743480E-09  3.04931505E-09  3.37955054E-05