67899                                                                   
Freq      RMP2-FC                                                     6-31G(d)            
Number of atoms                            I               11
Info1-9                                    I   N=           9
          23          21        1002           0           0         100
           6           2           1
Charge                                     I                0
Multiplicity                               I                1
Number of electrons                        I               50
Number of alpha electrons                  I               25
Number of beta electrons                   I               25
Number of basis functions                  I              100
Number of independent functions            I              100
Number of point charges in /Mol/           I                0
Number of translation vectors              I                0
Atomic numbers                             I   N=          11
           9           9           9           6           6           6
           1           1           1           1           1
Nuclear charges                            R   N=          11
  9.00000000E+00  9.00000000E+00  9.00000000E+00  6.00000000E+00  6.00000000E+00
  6.00000000E+00  1.00000000E+00  1.00000000E+00  1.00000000E+00  1.00000000E+00
  1.00000000E+00
Current cartesian coordinates              R   N=          33
  1.02245491E+00 -1.46973352E+00  2.05959281E+00  2.89003099E+00  1.57353426E+00
 -6.01721454E-06  1.02245165E+00 -1.46974652E+00 -2.05958472E+00 -1.57541665E+00
  1.53394367E+00 -3.32299432E-06  8.39209472E-01  4.27279216E-02  7.44956393E-07
 -3.90825482E+00 -1.56961050E-01  5.32057041E-07 -1.52749597E+00  2.75276817E+00
  1.66799139E+00 -1.52749499E+00  2.75276099E+00 -1.66800300E+00 -3.93590235E+00
 -1.36232353E+00  1.67412634E+00 -5.62086926E+00  9.94373895E-01 -1.11797745E-06
 -3.93590338E+00 -1.36233070E+00 -1.67411998E+00
Force Field                                I                0
Int Atom Types                             I   N=          11
           0           0           0           0           0           0
           0           0           0           0           0
MM charges                                 R   N=          11
  0.00000000E+00  0.00000000E+00  0.00000000E+00  0.00000000E+00  0.00000000E+00
  0.00000000E+00  0.00000000E+00  0.00000000E+00  0.00000000E+00  0.00000000E+00
  0.00000000E+00
Integer atomic weights                     I   N=          11
          19          19          19          12          12          12
           1           1           1           1           1
Real atomic weights                        R   N=          11
  1.89984032E+01  1.89984032E+01  1.89984032E+01  1.20000000E+01  1.20000000E+01
  1.20000000E+01  1.00782504E+00  1.00782504E+00  1.00782504E+00  1.00782504E+00
  1.00782504E+00
Atom fragment info                         I   N=          11
           0           0           0           0           0           0
           0           0           0           0           0
Atom residue num                           I   N=          11
           0           0           0           0           0           0
           0           0           0           0           0
Nuclear spins                              I   N=          11
           1           1           1           0           0           0
           1           1           1           1           1
Nuclear ZEff                               R   N=          11
 -6.75000000E+00 -6.75000000E+00 -6.75000000E+00 -3.60000000E+00 -3.60000000E+00
 -3.60000000E+00 -1.00000000E+00 -1.00000000E+00 -1.00000000E+00 -1.00000000E+00
 -1.00000000E+00
Nuclear QMom                               R   N=          11
  0.00000000E+00  0.00000000E+00  0.00000000E+00  0.00000000E+00  0.00000000E+00
  0.00000000E+00  0.00000000E+00  0.00000000E+00  0.00000000E+00  0.00000000E+00
  0.00000000E+00
Nuclear GFac                               R   N=          11
  2.62886700E+00  2.62886700E+00  2.62886700E+00  0.00000000E+00  0.00000000E+00
  0.00000000E+00  2.79284600E+00  2.79284600E+00  2.79284600E+00  2.79284600E+00
  2.79284600E+00
MicOpt                                     I   N=          11
          -1          -1          -1          -1          -1          -1
          -1          -1          -1          -1          -1
Number of contracted shells                I               34
Number of primitive shells                 I               86
Pure/Cartesian d shells                    I                1
Pure/Cartesian f shells                    I                0
Highest angular momentum                   I                2
Largest degree of contraction              I                6
Shell types                                I   N=          34
           0          -1          -1           2           0          -1
          -1           2           0          -1          -1           2
           0          -1          -1           2           0          -1
          -1           2           0          -1          -1           2
           0           0           0           0           0           0
           0           0           0           0
Number of primitives per shell             I   N=          34
           6           3           1           1           6           3
           1           1           6           3           1           1
           6           3           1           1           6           3
           1           1           6           3           1           1
           3           1           3           1           3           1
           3           1           3           1
Shell to atom map                          I   N=          34
           1           1           1           1           2           2
           2           2           3           3           3           3
           4           4           4           4           5           5
           5           5           6           6           6           6
           7           7           8           8           9           9
          10          10          11          11
Primitive exponents                        R   N=          86
  7.00171309E+03  1.05136609E+03  2.39285690E+02  6.73974453E+01  2.15199573E+01
  7.40310130E+00  2.08479528E+01  4.80830834E+00  1.34406986E+00  3.58151393E-01
  8.00000000E-01  7.00171309E+03  1.05136609E+03  2.39285690E+02  6.73974453E+01
  2.15199573E+01  7.40310130E+00  2.08479528E+01  4.80830834E+00  1.34406986E+00
  3.58151393E-01  8.00000000E-01  7.00171309E+03  1.05136609E+03  2.39285690E+02
  6.73974453E+01  2.15199573E+01  7.40310130E+00  2.08479528E+01  4.80830834E+00
  1.34406986E+00  3.58151393E-01  8.00000000E-01  3.04752488E+03  4.57369518E+02
  1.03948685E+02  2.92101553E+01  9.28666296E+00  3.16392696E+00  7.86827235E+00
  1.88128854E+00  5.44249258E-01  1.68714478E-01  8.00000000E-01  3.04752488E+03
  4.57369518E+02  1.03948685E+02  2.92101553E+01  9.28666296E+00  3.16392696E+00
  7.86827235E+00  1.88128854E+00  5.44249258E-01  1.68714478E-01  8.00000000E-01
  3.04752488E+03  4.57369518E+02  1.03948685E+02  2.92101553E+01  9.28666296E+00
  3.16392696E+00  7.86827235E+00  1.88128854E+00  5.44249258E-01  1.68714478E-01
  8.00000000E-01  1.87311370E+01  2.82539436E+00  6.40121692E-01  1.61277759E-01
  1.87311370E+01  2.82539436E+00  6.40121692E-01  1.61277759E-01  1.87311370E+01
  2.82539436E+00  6.40121692E-01  1.61277759E-01  1.87311370E+01  2.82539436E+00
  6.40121692E-01  1.61277759E-01  1.87311370E+01  2.82539436E+00  6.40121692E-01
  1.61277759E-01
Contraction coefficients                   R   N=          86
  1.81961690E-03  1.39160796E-02  6.84053245E-02  2.33185760E-01  4.71267439E-01
  3.56618546E-01 -1.08506975E-01 -1.46451658E-01  1.12868858E+00  1.00000000E+00
  1.00000000E+00  1.81961690E-03  1.39160796E-02  6.84053245E-02  2.33185760E-01
  4.71267439E-01  3.56618546E-01 -1.08506975E-01 -1.46451658E-01  1.12868858E+00
  1.00000000E+00  1.00000000E+00  1.81961690E-03  1.39160796E-02  6.84053245E-02
  2.33185760E-01  4.71267439E-01  3.56618546E-01 -1.08506975E-01 -1.46451658E-01
  1.12868858E+00  1.00000000E+00  1.00000000E+00  1.83473713E-03  1.40373228E-02
  6.88426223E-02  2.32184443E-01  4.67941348E-01  3.62311985E-01 -1.19332420E-01
 -1.60854152E-01  1.14345644E+00  1.00000000E+00  1.00000000E+00  1.83473713E-03
  1.40373228E-02  6.88426223E-02  2.32184443E-01  4.67941348E-01  3.62311985E-01
 -1.19332420E-01 -1.60854152E-01  1.14345644E+00  1.00000000E+00  1.00000000E+00
  1.83473713E-03  1.40373228E-02  6.88426223E-02  2.32184443E-01  4.67941348E-01
  3.62311985E-01 -1.19332420E-01 -1.60854152E-01  1.14345644E+00  1.00000000E+00
  1.00000000E+00  3.34946043E-02  2.34726953E-01  8.13757326E-01  1.00000000E+00
  3.34946043E-02  2.34726953E-01  8.13757326E-01  1.00000000E+00  3.34946043E-02
  2.34726953E-01  8.13757326E-01  1.00000000E+00  3.34946043E-02  2.34726953E-01
  8.13757326E-01  1.00000000E+00  3.34946043E-02  2.34726953E-01  8.13757326E-01
  1.00000000E+00
P(S=P) Contraction coefficients            R   N=          86
  0.00000000E+00  0.00000000E+00  0.00000000E+00  0.00000000E+00  0.00000000E+00
  0.00000000E+00  7.16287242E-02  3.45912103E-01  7.22469956E-01  1.00000000E+00
  0.00000000E+00  0.00000000E+00  0.00000000E+00  0.00000000E+00  0.00000000E+00
  0.00000000E+00  0.00000000E+00  7.16287242E-02  3.45912103E-01  7.22469956E-01
  1.00000000E+00  0.00000000E+00  0.00000000E+00  0.00000000E+00  0.00000000E+00
  0.00000000E+00  0.00000000E+00  0.00000000E+00  7.16287242E-02  3.45912103E-01
  7.22469956E-01  1.00000000E+00  0.00000000E+00  0.00000000E+00  0.00000000E+00
  0.00000000E+00  0.00000000E+00  0.00000000E+00  0.00000000E+00  6.89990666E-02
  3.16423961E-01  7.44308291E-01  1.00000000E+00  0.00000000E+00  0.00000000E+00
  0.00000000E+00  0.00000000E+00  0.00000000E+00  0.00000000E+00  0.00000000E+00
  6.89990666E-02  3.16423961E-01  7.44308291E-01  1.00000000E+00  0.00000000E+00
  0.00000000E+00  0.00000000E+00  0.00000000E+00  0.00000000E+00  0.00000000E+00
  0.00000000E+00  6.89990666E-02  3.16423961E-01  7.44308291E-01  1.00000000E+00
  0.00000000E+00  0.00000000E+00  0.00000000E+00  0.00000000E+00  0.00000000E+00
  0.00000000E+00  0.00000000E+00  0.00000000E+00  0.00000000E+00  0.00000000E+00
  0.00000000E+00  0.00000000E+00  0.00000000E+00  0.00000000E+00  0.00000000E+00
  0.00000000E+00  0.00000000E+00  0.00000000E+00  0.00000000E+00  0.00000000E+00
  0.00000000E+00
Coordinates of each shell                  R   N=         102
  1.02245491E+00 -1.46973352E+00  2.05959281E+00  1.02245491E+00 -1.46973352E+00
  2.05959281E+00  1.02245491E+00 -1.46973352E+00  2.05959281E+00  1.02245491E+00
 -1.46973352E+00  2.05959281E+00  2.89003099E+00  1.57353426E+00 -6.01721454E-06
  2.89003099E+00  1.57353426E+00 -6.01721454E-06  2.89003099E+00  1.57353426E+00
 -6.01721454E-06  2.89003099E+00  1.57353426E+00 -6.01721454E-06  1.02245165E+00
 -1.46974652E+00 -2.05958472E+00  1.02245165E+00 -1.46974652E+00 -2.05958472E+00
  1.02245165E+00 -1.46974652E+00 -2.05958472E+00  1.02245165E+00 -1.46974652E+00
 -2.05958472E+00 -1.57541665E+00  1.53394367E+00 -3.32299432E-06 -1.57541665E+00
  1.53394367E+00 -3.32299432E-06 -1.57541665E+00  1.53394367E+00 -3.32299432E-06
 -1.57541665E+00  1.53394367E+00 -3.32299432E-06  8.39209472E-01  4.27279216E-02
  7.44956393E-07  8.39209472E-01  4.27279216E-02  7.44956393E-07  8.39209472E-01
  4.27279216E-02  7.44956393E-07  8.39209472E-01  4.27279216E-02  7.44956393E-07
 -3.90825482E+00 -1.56961050E-01  5.32057041E-07 -3.90825482E+00 -1.56961050E-01
  5.32057041E-07 -3.90825482E+00 -1.56961050E-01  5.32057041E-07 -3.90825482E+00
 -1.56961050E-01  5.32057041E-07 -1.52749597E+00  2.75276817E+00  1.66799139E+00
 -1.52749597E+00  2.75276817E+00  1.66799139E+00 -1.52749499E+00  2.75276099E+00
 -1.66800300E+00 -1.52749499E+00  2.75276099E+00 -1.66800300E+00 -3.93590235E+00
 -1.36232353E+00  1.67412634E+00 -3.93590235E+00 -1.36232353E+00  1.67412634E+00
 -5.62086926E+00  9.94373895E-01 -1.11797745E-06 -5.62086926E+00  9.94373895E-01
 -1.11797745E-06 -3.93590338E+00 -1.36233070E+00 -1.67411998E+00 -3.93590338E+00
 -1.36233070E+00 -1.67411998E+00
Constraint Structure                       R   N=          33
  1.02245491E+00 -1.46973352E+00  2.05959281E+00  2.89003099E+00  1.57353426E+00
 -6.01721454E-06  1.02245165E+00 -1.46974652E+00 -2.05958472E+00 -1.57541665E+00
  1.53394367E+00 -3.32299432E-06  8.39209472E-01  4.27279216E-02  7.44956393E-07
 -3.90825482E+00 -1.56961050E-01  5.32057041E-07 -1.52749597E+00  2.75276817E+00
  1.66799139E+00 -1.52749499E+00  2.75276099E+00 -1.66800300E+00 -3.93590235E+00
 -1.36232353E+00  1.67412634E+00 -5.62086926E+00  9.94373895E-01 -1.11797745E-06
 -3.93590338E+00 -1.36233070E+00 -1.67411998E+00
Num ILSW                                   I              100
ILSW                                       I   N=         100
           0           1           0           0           2           0
           0           0           0           0           0          -1
           0           0           0           0           0           0
           0           0           0           0           1           0
           1           0           0           0           0           0
           0           0      100000           0          -1           0
           0           0           0           0           0           0
           0           0           0           1           1           0
           0           0           1           0           0           0
           0           0           4          40           0           0
           0           0           0           0           0           0
           0           0           0           0           0           0
           0           0           0           0           0           0
           0           0           0           0           0           0
           0           0           0           0           0           0
           0           0           0           0           0           0
           0           0           0           0
Num RLSW                                   I               40
RLSW                                       R   N=          40
  1.00000000E+00  1.00000000E+00  1.00000000E+00  1.00000000E+00  1.00000000E+00
  0.00000000E+00  0.00000000E+00  1.00000000E+00  0.00000000E+00  0.00000000E+00
  0.00000000E+00  0.00000000E+00  1.00000000E+00  0.00000000E+00  0.00000000E+00
  0.00000000E+00  0.00000000E+00  1.00000000E+00  0.00000000E+00  0.00000000E+00
  0.00000000E+00  0.00000000E+00  1.00000000E+00  0.00000000E+00  0.00000000E+00
  0.00000000E+00  0.00000000E+00  1.00000000E+00  0.00000000E+00  0.00000000E+00
  0.00000000E+00  0.00000000E+00  0.00000000E+00  0.00000000E+00  0.00000000E+00
  0.00000000E+00  0.00000000E+00  0.00000000E+00  1.00000000E+00  1.00000000E+00
MxBond                                     I                4
NBond                                      I   N=          11
           1           1           1           4           4           4
           1           1           1           1           1
IBond                                      I   N=          44
           5           0           0           0           5           0
           0           0           5           0           0           0
           5           6           7           8           1           2
           3           4           4           9          10          11
           4           0           0           0           4           0
           0           0           6           0           0           0
           6           0           0           0           6           0
           0           0
RBond                                      R   N=          44
  1.00000000E+00  0.00000000E+00  0.00000000E+00  0.00000000E+00  1.00000000E+00
  0.00000000E+00  0.00000000E+00  0.00000000E+00  1.00000000E+00  0.00000000E+00
  0.00000000E+00  0.00000000E+00  1.00000000E+00  1.00000000E+00  1.00000000E+00
  1.00000000E+00  1.00000000E+00  1.00000000E+00  1.00000000E+00  1.00000000E+00
  1.00000000E+00  1.00000000E+00  1.00000000E+00  1.00000000E+00  1.00000000E+00
  0.00000000E+00  0.00000000E+00  0.00000000E+00  1.00000000E+00  0.00000000E+00
  0.00000000E+00  0.00000000E+00  1.00000000E+00  0.00000000E+00  0.00000000E+00
  0.00000000E+00  1.00000000E+00  0.00000000E+00  0.00000000E+00  0.00000000E+00
  1.00000000E+00  0.00000000E+00  0.00000000E+00  0.00000000E+00
Virial Ratio                               R      2.002285986368404E+00
SCF Energy                                 R     -4.148531049274079E+02
MP2 Energy                                 R     -4.157537611537898E+02
Total Energy                               R     -4.157537611537898E+02
Post-SCF wavefunction norm                 R      1.572522840431710E+00
RMS Force                                  R      4.880876796880278E-07
RMS Density                                R      9.123993320884198E-10
External E-field                           R   N=          35
  0.00000000E+00  0.00000000E+00  0.00000000E+00  0.00000000E+00  0.00000000E+00
  0.00000000E+00  0.00000000E+00  0.00000000E+00  0.00000000E+00  0.00000000E+00
  0.00000000E+00  0.00000000E+00  0.00000000E+00  0.00000000E+00  0.00000000E+00
  0.00000000E+00  0.00000000E+00  0.00000000E+00  0.00000000E+00  0.00000000E+00
  0.00000000E+00  0.00000000E+00  0.00000000E+00  0.00000000E+00  0.00000000E+00
  0.00000000E+00  0.00000000E+00  0.00000000E+00  0.00000000E+00  0.00000000E+00
  0.00000000E+00  0.00000000E+00  0.00000000E+00  0.00000000E+00  0.00000000E+00
IOpCl                                      I                0
IROHF                                      I                0
Alpha Orbital Energies                     R   N=         100
 -2.63308634E+01 -2.63308204E+01 -2.63307995E+01 -1.15008238E+01 -1.12587035E+01
 -1.12382691E+01 -1.70816031E+00 -1.61593511E+00 -1.61558374E+00 -1.09580800E+00
 -9.58549313E-01 -8.76531948E-01 -8.05175106E-01 -8.03050284E-01 -7.56723438E-01
 -6.97363807E-01 -6.92993842E-01 -6.51350002E-01 -6.46948863E-01 -6.32000722E-01
 -6.18145548E-01 -5.99029258E-01 -5.41798067E-01 -5.22711471E-01 -5.20595302E-01
  2.32047266E-01  2.78398617E-01  2.83259197E-01  2.98071106E-01  3.11182658E-01
  3.57192581E-01  4.10519633E-01  4.15700675E-01  4.39276029E-01  4.56262565E-01
  6.97859425E-01  7.19558098E-01  7.26255778E-01  7.33238164E-01  7.60809830E-01
  8.12626328E-01  8.85514487E-01  9.53031114E-01  9.79090408E-01  1.06005235E+00
  1.11972271E+00  1.14700945E+00  1.15891388E+00  1.17912796E+00  1.21718683E+00
  1.31736740E+00  1.35987586E+00  1.37932673E+00  1.46655070E+00  1.47090891E+00
  1.53424896E+00  1.62606415E+00  1.64058185E+00  1.65203019E+00  1.65299311E+00
  1.68028205E+00  1.68662140E+00  1.72372027E+00  1.85545630E+00  1.92026508E+00
  1.99208044E+00  2.00575401E+00  2.11045969E+00  2.12170732E+00  2.14014024E+00
  2.14322335E+00  2.22740507E+00  2.23653396E+00  2.26377941E+00  2.26700035E+00
  2.28008350E+00  2.30351481E+00  2.37059557E+00  2.37930389E+00  2.46311621E+00
  2.52875402E+00  2.55601312E+00  2.61510772E+00  2.63104343E+00  2.66721011E+00
  2.79193128E+00  2.80970413E+00  2.92302743E+00  3.09781146E+00  3.14892668E+00
  3.17865295E+00  3.37310071E+00  3.40221170E+00  3.44142491E+00  4.56286705E+00
  4.69871854E+00  4.70766358E+00  4.93170421E+00  5.05877262E+00  5.60920555E+00
Alpha MO coefficients                      R   N=       10000
 -1.44613213E-01 -2.51181642E-03  8.11683190E-06 -7.79312571E-05  1.09063240E-04
 -1.40081562E-03 -6.73072710E-05 -7.47590872E-05 -2.37411062E-05  6.91781709E-04
  6.71199930E-04  7.41216787E-04 -3.63911944E-05  2.99991856E-05  7.17201033E-06
  9.73391963E-01  1.75399554E-02 -7.34164537E-04 -5.41232856E-04  2.31719055E-09
  7.41463346E-03  5.80416811E-04  4.15112874E-04  1.11540810E-07 -4.67950655E-03
 -4.52389902E-03 -4.36468005E-03 -2.75230649E-04 -4.07363111E-08 -5.46363396E-08
 -1.43219237E-01 -2.48687381E-03  8.02090361E-06 -7.71641253E-05 -1.08020856E-04
 -1.38961515E-03 -6.72686843E-05 -7.53497202E-05  2.31461236E-05  6.85423367E-04
  6.64579084E-04  7.34527365E-04 -3.63661284E-05 -2.99528170E-05 -7.54973216E-06
  5.96823494E-06  9.00803520E-05 -9.20891742E-06  3.97714740E-06 -5.53517891E-11
 -2.89215105E-04 -3.43114074E-04  6.50790867E-06  2.29457196E-07 -8.73839482E-05
  1.15340928E-05 -5.96533556E-06  2.79149161E-06  4.03735016E-08 -3.05726510E-08
 -1.72073567E-05  1.03781828E-04  4.54789357E-04  3.88683555E-04 -6.13857643E-07
  6.36322970E-04  3.25707802E-06  2.23695977E-04 -1.51201284E-07  2.12815037E-04
  6.73121871E-05 -4.73443159E-05  1.78539950E-04 -4.81640583E-08  2.39053960E-07
 -5.77823775E-07 -2.52735941E-06 -8.62695211E-06  7.01547673E-06  1.30379629E-08
 -1.09852202E-04  3.40016075E-05 -8.27080784E-05 -1.58846427E-07  4.65174661E-06
 -5.35710528E-06  3.74348845E-06  9.55333319E-06 -5.71310505E-09 -7.15691029E-09
  3.49177455E-05 -2.46851104E-05  3.49797944E-05 -2.45920432E-05 -9.22427388E-06
  5.28215933E-06  1.60286265E-05  2.60565184E-05 -9.17842575E-06  4.96849846E-06
  7.09710934E-01  1.27010918E-02 -4.88433003E-05  3.90793838E-04 -5.30404794E-04
  5.69517276E-03  1.99071114E-05 -3.01510985E-04  3.06155574E-04 -3.23587546E-03
 -3.36964189E-03 -3.40606425E-03  1.28180001E-05 -2.35244744E-05  1.92888055E-04
  2.95256293E-03  5.43173184E-05 -2.23052242E-06 -1.60192054E-06  1.71286911E-07
  1.91935681E-05  2.92309784E-06  2.81403901E-06 -1.14378090E-04 -1.39621273E-05
 -1.38171763E-05 -1.29413812E-05 -1.42498901E-06  4.23019339E-05  5.59434277E-05
 -6.96553477E-01 -1.24608975E-02  4.77694602E-05 -3.83475194E-04 -5.20488409E-04
 -5.60515582E-03 -1.89048058E-05  2.94308171E-04  2.94469754E-04  3.17871556E-03
  3.30972691E-03  3.34283803E-03 -1.26569130E-05 -2.29432527E-05  1.88716932E-04
  1.44806427E-07  1.93678641E-06 -5.22879212E-07  2.72915857E-07  8.52822322E-08
 -6.23279760E-06 -4.07118152E-06  2.60088634E-06 -2.31318263E-04 -7.92459291E-07
 -5.76315808E-07 -1.85653031E-07  7.96854171E-07 -4.06245371E-05  3.07952019E-05
 -4.81634320E-07  2.19534231E-06  2.89215011E-06 -3.93060772E-06  6.17627369E-04
  1.45635743E-05 -3.15910931E-06 -3.36827693E-07  1.51470259E-04  4.16333968E-07
  1.82474558E-06  2.71727210E-06  2.38436659E-07  4.78178710E-05 -2.41979279E-04
  9.66440141E-08  2.88725112E-07  6.16764389E-07 -1.49674531E-07 -1.31485931E-05
 -7.47389423E-08 -2.20260505E-06  3.80406384E-07  1.60299967E-04  1.98107574E-07
  1.28082724E-07  2.36453643E-07 -1.00960720E-07  5.74085957E-06  7.24869551E-06
  3.16639266E-05  4.65050790E-05 -3.08007927E-05 -4.75361425E-05  2.35355849E-05
 -1.58678930E-04 -1.54013429E-07 -1.57557349E-06 -2.27461184E-05  1.57673922E-04
  6.81415726E-01  1.24289708E-02 -5.52789818E-05  3.78926550E-04 -5.13464913E-04
  4.69540508E-03  5.79283990E-05 -3.58314689E-04  5.97670250E-04 -2.96519893E-03
 -3.10297102E-03 -3.27908541E-03  1.18090637E-05 -3.25547658E-05  2.10967155E-04
  2.03541649E-01  3.78174899E-03 -1.53890482E-04 -1.09108365E-04 -1.25736947E-09
  1.21289732E-03  2.40397982E-04  2.46056409E-04  1.11634118E-06 -9.54751316E-04
 -9.55725653E-04 -8.82146799E-04 -1.17995616E-04 -4.12640958E-07 -5.46039695E-07
  6.95148537E-01  1.26746888E-02 -5.62214106E-05  3.86489927E-04  5.23724400E-04
  4.80575614E-03  5.83061376E-05 -3.64136725E-04 -6.03533252E-04 -3.02783975E-03
 -3.16819974E-03 -3.34498908E-03  1.20576183E-05  3.30078799E-05 -2.14695059E-04
  1.42206529E-05  1.89170516E-04 -5.26052720E-05  2.75424542E-05 -9.31471425E-10
 -6.08766849E-04 -3.82006776E-04  2.65682881E-04  2.25863736E-06 -7.22711868E-05
 -6.01994253E-05 -1.83951531E-05  8.13205208E-05  3.96503532E-07 -3.00618015E-07
 -4.75804992E-05  2.14038482E-04  2.49936067E-04 -4.42097512E-04 -6.02963053E-06
  1.42657264E-03 -3.23806911E-04 -5.73428127E-05 -1.48062235E-06  2.10443478E-05
  1.80243567E-04  2.83091003E-04  6.28685536E-06 -4.66899097E-07  2.36431319E-06
  9.95685213E-06  2.98337052E-05  6.40362444E-05 -1.60403662E-05  1.28444108E-07
  3.46848989E-06 -2.29050595E-04  4.73365629E-05 -1.56560440E-06  1.98103469E-05
  1.36614933E-05  2.38357971E-05 -1.13097249E-05 -5.60448405E-08 -7.07590197E-08
  4.03349377E-05 -5.07349511E-05  4.09450054E-05 -4.98165815E-05  4.11366846E-05
 -5.04342800E-05 -1.74003737E-05 -1.64004063E-04  4.15886023E-05 -5.35238062E-05
 -1.33638232E-04  1.85474021E-04  2.52510700E-05  1.82494415E-04 -2.64925562E-04
  3.74744850E-04 -3.62373101E-04 -5.91918074E-04  9.86609747E-04  9.76530129E-05
 -1.81267123E-04 -6.19258865E-04 -5.90059895E-06  9.81530554E-05  6.03397843E-04
 -6.23843272E-05  6.01745040E-04 -2.60289475E-04 -2.39925956E-04  1.20021434E-09
 -1.16720056E-03  9.32309691E-04  1.15361375E-03 -5.86564967E-09 -2.14935292E-04
 -1.72544379E-04  4.70641925E-04 -6.39203462E-04  2.93964845E-09  3.11237204E-09
 -1.33638295E-04  1.85469325E-04  2.52512944E-05  1.82495563E-04  2.64924280E-04
  3.74764782E-04 -3.62373662E-04 -5.91917777E-04 -9.86599419E-04  9.76497253E-05
 -1.81275291E-04 -6.19254487E-04 -5.90184693E-06 -9.81541621E-05 -6.03399914E-04
  1.27713027E-03 -6.89602251E-05  1.18616915E-04 -4.33826323E-05  1.60810746E-10
  3.57398740E-03  2.14269050E-03 -1.05751067E-03  1.68206429E-09 -1.58909396E-04
 -1.45282832E-04 -1.07267780E-04 -5.34241640E-05  6.33384005E-11  4.09211418E-11
  9.96263265E-01  2.44837928E-02  1.51152939E-03 -9.24045949E-04  6.10995978E-09
 -8.95234672E-03  2.90080581E-03 -9.58041219E-04  7.93772720E-09 -4.93676274E-04
 -3.31498387E-04 -2.22885535E-04  3.07039996E-04  1.92337116E-10 -3.43192110E-09
 -8.31582058E-05 -3.23751037E-04 -1.77420646E-04  6.77909892E-05 -1.33194728E-10
  9.52460892E-04  9.21687752E-04 -2.53903806E-04  3.85821173E-10 -1.29180379E-05
 -6.93606063E-05 -1.20582569E-04  2.03536427E-05  5.95965147E-11 -1.77403563E-10
 -1.38475280E-04  2.25877918E-04 -1.38475610E-04  2.25878034E-04 -1.17912982E-04
 -1.60007094E-04  1.32734166E-05  5.66630976E-04 -1.17912492E-04 -1.60008307E-04
 -5.16934578E-05 -3.46859450E-04  7.13088333E-05 -7.52765895E-05  3.73536160E-05
  8.09416628E-04 -1.90880069E-04  1.91029527E-04 -1.18856678E-04 -1.77783542E-04
 -2.25746481E-04 -2.44065484E-04 -1.42400947E-04  1.85876435E-05 -9.69829940E-05
 -5.44328184E-06 -9.50731576E-05  6.95270465E-05 -9.40807466E-06 -6.59447237E-12
 -1.41433351E-05 -8.96420746E-05  3.90888624E-05 -1.66852618E-10  8.59216864E-05
 -5.05381456E-05 -1.50054492E-04 -4.03316563E-05 -6.80608120E-12 -3.10204080E-10
 -5.16934390E-05 -3.46859377E-04  7.13086800E-05 -7.52769731E-05 -3.73532249E-05
  8.09416690E-04 -1.90880049E-04  1.91030684E-04  1.18854988E-04 -1.77783565E-04
 -2.25745129E-04 -2.44066714E-04 -1.42401084E-04 -1.85869690E-05  9.69827320E-05
  9.95689992E-01  2.88964470E-02  3.54905351E-04 -2.91753306E-04  1.17713262E-09
 -1.70354432E-02 -3.18466709E-04  1.07790366E-03 -4.07151758E-09 -1.67289792E-03
 -1.70145730E-03 -1.63735386E-03 -2.07259856E-05 -2.79796184E-11 -8.16814430E-11
 -1.58931125E-03  1.94039606E-04 -1.36683149E-04  9.73066329E-05 -5.38609221E-10
  3.69488424E-03 -1.26094648E-03  9.12424147E-04 -1.89554843E-09 -4.13654592E-04
 -3.34692559E-04 -2.45836647E-04  1.85724356E-04 -6.05825196E-10  3.78120234E-10
  1.45515395E-02  4.14342686E-04  8.27250661E-05  6.96755627E-06 -2.88276630E-11
  4.07561929E-03  1.60306276E-03  1.03417550E-03 -2.24038939E-09 -3.55084498E-04
 -3.19927962E-04 -1.28906122E-04 -2.13482502E-04  4.84364934E-10  5.15864799E-10
  2.35153750E-04  2.61730531E-03  2.35153316E-04  2.61730487E-03 -1.60553016E-04
  1.77537002E-05 -1.38428641E-04 -5.78003556E-05 -1.60553042E-04  1.77536906E-05
  5.15314350E-05  3.04159519E-04 -1.21954509E-05  2.41948586E-07 -1.67283425E-05
 -1.20158159E-03  2.11232425E-04 -3.31415688E-05  2.31896130E-04  1.90795842E-04
  1.98315749E-04  1.58928532E-04  2.99794477E-05 -2.96445145E-05 -2.44946012E-05
 -8.30846714E-05 -4.54781498E-04  2.88178338E-05  8.60865100E-06 -7.70449923E-11
  1.64658942E-03 -2.52110057E-04 -1.03576578E-04  5.91249073E-10 -2.82330220E-04
 -3.11233922E-04 -3.32233223E-04  1.98498963E-05 -1.53630267E-10 -1.19226371E-10
  5.15310063E-05  3.04157153E-04 -1.21950319E-05  2.41921569E-07  1.67281115E-05
 -1.20157385E-03  2.11230682E-04 -3.31425475E-05 -2.31895302E-04  1.90794495E-04
  1.98314038E-04  1.58926367E-04  2.99795707E-05  2.96440978E-05  2.44943385E-05
 -1.48436584E-02 -2.26743854E-04 -6.52741452E-05  4.33686510E-05 -1.28931805E-10
  3.11632907E-03 -1.53166384E-03 -6.51836118E-04  3.57724009E-10 -3.65026908E-04
 -2.81479738E-04 -4.91921878E-05 -1.80575955E-04  3.05458458E-10  6.62614629E-10
 -3.01093321E-05 -3.89066516E-04  1.07950623E-04 -3.91870639E-05  4.40448842E-10
  1.37644371E-03 -1.14477500E-03 -8.10867207E-04  4.12667386E-09 -9.09896666E-05
 -7.85621676E-05 -9.91851003E-05 -4.07939547E-05  7.49717166E-11 -9.11382236E-11
  9.95644959E-01  2.85424289E-02  2.84557627E-04  1.17689885E-04  1.61721209E-10
 -1.51242965E-02 -1.00523748E-03 -1.55691023E-04 -1.32585104E-10 -1.83727345E-03
 -1.80148359E-03 -1.79406827E-03 -3.36733537E-05  5.91300429E-11  2.31771960E-10
 -1.35267381E-04  2.53652161E-05 -1.35267560E-04  2.53645140E-05  1.86979991E-04
  2.64182724E-03  1.06574685E-04  2.24810436E-03  1.86979786E-04  2.64182734E-03
 -1.20501395E-01  2.73427160E-01 -2.42456774E-04  3.06024192E-02 -4.49163891E-02
  2.51001512E-01 -9.06416408E-04  2.37404024E-02 -3.43053395E-02  8.02114008E-03
  1.34064040E-02  1.86050698E-02 -6.47483065E-04  7.86071258E-04 -8.91698462E-03
 -1.20654860E-01  2.74245359E-01 -4.10820976E-02 -3.58967629E-02  1.96269345E-07
  2.50145179E-01 -3.16386823E-02 -2.68497646E-02  1.33105215E-07  1.82253187E-02
  1.43152581E-02  8.06546562E-03  9.06294392E-03 -4.23423709E-08 -3.07932295E-08
 -1.20500253E-01  2.73424438E-01 -2.42358154E-04  3.06023727E-02  4.49158816E-02