
    -----------------------------------------------------------------------
          Psi4: An Open-Source Ab Initio Electronic Structure Package
                               Psi4 1.4a3.dev225 

                         Git: Rev {master} 7105e37 


    D. G. A. Smith, L. A. Burns, A. C. Simmonett, R. M. Parrish,
    M. C. Schieber, R. Galvelis, P. Kraus, H. Kruse, R. Di Remigio,
    A. Alenaizan, A. M. James, S. Lehtola, J. P. Misiewicz, M. Scheurer,
    R. A. Shaw, J. B. Schriber, Y. Xie, Z. L. Glick, D. A. Sirianni,
    J. S. O'Brien, J. M. Waldrop, A. Kumar, E. G. Hohenstein,
    B. P. Pritchard, B. R. Brooks, H. F. Schaefer III, A. Yu. Sokolov,
    K. Patkowski, A. E. DePrince III, U. Bozkaya, R. A. King,
    F. A. Evangelista, J. M. Turney, T. D. Crawford, C. D. Sherrill,
    J. Chem. Phys. 152(18) 184108 (2020). https://doi.org/10.1063/5.0006002

                            Additional Code Authors
    E. T. Seidl, C. L. Janssen, E. F. Valeev, M. L. Leininger,
    J. F. Gonthier, R. M. Richard, H. R. McAlexander, M. Saitow, X. Wang,
    P. Verma, and M. H. Lechner

             Previous Authors, Complete List of Code Contributors,
                       and Citations for Specific Modules
    https://github.com/psi4/psi4/blob/master/codemeta.json
    https://github.com/psi4/psi4/graphs/contributors
    http://psicode.org/psi4manual/master/introduction.html#citing-psifour

    -----------------------------------------------------------------------


    Psi4 started on: Saturday, 20 March 2021 12:32PM

    Process ID: 131533
    Host:       c445-114.stampede2.tacc.utexas.edu
    PSIDATADIR: /home1/07844/xy3866/miniconda3/envs/p4env/share/psi4
    Memory:     500.0 MiB
    Threads:    32
    
  ==> Input File <==

--------------------------------------------------------------------------
#psi4
#
memory 32 gb

molecule  {
0 1
  F        0.5410600    -0.7777490     1.0898900
  F        1.5293390     0.8326780    -0.0000030
  F        0.5410580    -0.7777560    -1.0898850
  C       -0.8336750     0.8117280    -0.0000020
  C        0.4270745     0.0331200    -0.0000000
  C       -2.0681590    -0.0830600     0.0000000
  H       -0.8083160     1.4567020     0.8826630
  H       -0.8083160     1.4566980    -0.8826690
  H       -2.0827900    -0.7209110     0.8859100
  H       -2.9744360     0.5262000    -0.0000010
  H       -2.0827900    -0.7209140    -0.8859060
units angstrom
no_reorient  #important for SAPT in psi4, default
symmetry c1  #important for SAPT in psi4, default
}

set PROPERTIES_ORIGIN ["COM"]
properties('MP2/aug-cc-pvtz', properties = ['dipole'])
--------------------------------------------------------------------------

  Memory set to  29.802 GiB by Python driver.
    SCF Algorithm Type (re)set to DF.

*** tstart() called on c445-114.stampede2.tacc.utexas.edu
*** at Sat Mar 20 12:32:47 2021

   => Loading Basis Set <=

    Name: AUG-CC-PVTZ
    Role: ORBITAL
    Keyword: BASIS
    atoms 1-3  entry F          line   377 file /home1/07844/xy3866/miniconda3/envs/p4env/share/psi4/basis/aug-cc-pvtz.gbs 
    atoms 4-6  entry C          line   239 file /home1/07844/xy3866/miniconda3/envs/p4env/share/psi4/basis/aug-cc-pvtz.gbs 
    atoms 7-11 entry H          line    40 file /home1/07844/xy3866/miniconda3/envs/p4env/share/psi4/basis/aug-cc-pvtz.gbs 


         ---------------------------------------------------------
                                   SCF
               by Justin Turney, Rob Parrish, Andy Simmonett
                          and Daniel G. A. Smith
                              RHF Reference
                       32 Threads,  30517 MiB Core
         ---------------------------------------------------------

  ==> Geometry <==

    Molecular point group: c1
    Full point group: C1

    Geometry (in Angstrom), charge = 0, multiplicity = 1:

       Center              X                  Y                   Z               Mass       
    ------------   -----------------  -----------------  -----------------  -----------------
         F            0.427923822609    -0.751455200808     1.089889888066    18.998403162730
         F            1.416202822609     0.858971799192    -0.000003111934    18.998403162730
         F            0.427921822609    -0.751462200808    -1.089885111934    18.998403162730
         C           -0.946811177391     0.838021799192    -0.000002111934    12.000000000000
         C            0.313938322609     0.059413799192    -0.000000111934    12.000000000000
         C           -2.181295177391    -0.056766200808    -0.000000111934    12.000000000000
         H           -0.921452177391     1.482995799192     0.882662888066     1.007825032230
         H           -0.921452177391     1.482991799192    -0.882669111934     1.007825032230
         H           -2.195926177391    -0.694617200808     0.885909888066     1.007825032230
         H           -3.087572177391     0.552493799192    -0.000001111934     1.007825032230
         H           -2.195926177391    -0.694620200808    -0.885906111934     1.007825032230

  Running in c1 symmetry.

  Rotational constants: A =      0.17211  B =      0.09189  C =      0.09120 [cm^-1]
  Rotational constants: A =   5159.58582  B =   2754.75055  C =   2734.25043 [MHz]
  Nuclear repulsion =  271.533126659768016

  Charge       = 0
  Multiplicity = 1
  Electrons    = 50
  Nalpha       = 25
  Nbeta        = 25

  ==> Algorithm <==

  SCF Algorithm Type is DF.
  DIIS enabled.
  MOM disabled.
  Fractional occupation disabled.
  Guess Type is SAD.
  Energy threshold   = 1.00e-10
  Density threshold  = 1.00e-10
  Integral threshold = 1.00e-12

  ==> Primary Basis <==

  Basis Set: AUG-CC-PVTZ
    Blend: AUG-CC-PVTZ
    Number of shells: 129
    Number of basis functions: 391
    Number of Cartesian functions: 455
    Spherical Harmonics?: true
    Max angular momentum: 3

   => Loading Basis Set <=

    Name: (AUG-CC-PVTZ AUX)
    Role: JKFIT
    Keyword: DF_BASIS_SCF
    atoms 1-3  entry F          line   348 file /home1/07844/xy3866/miniconda3/envs/p4env/share/psi4/basis/aug-cc-pvtz-jkfit.gbs 
    atoms 4-6  entry C          line   162 file /home1/07844/xy3866/miniconda3/envs/p4env/share/psi4/basis/aug-cc-pvtz-jkfit.gbs 
    atoms 7-11 entry H          line    70 file /home1/07844/xy3866/miniconda3/envs/p4env/share/psi4/basis/aug-cc-pvtz-jkfit.gbs 

  ==> Integral Setup <==

  DFHelper Memory: AOs need 1.018 GiB; user supplied 22.352 GiB. Using in-core AOs.

  ==> MemDFJK: Density-Fitted J/K Matrices <==

    J tasked:                   Yes
    K tasked:                   Yes
    wK tasked:                   No
    OpenMP threads:              32
    Memory [MiB]:             22888
    Algorithm:                 Core
    Schwarz Cutoff:           1E-12
    Mask sparsity (%):       2.8571
    Fitting Condition:        1E-10

   => Auxiliary Basis Set <=

  Basis Set: (AUG-CC-PVTZ AUX)
    Blend: AUG-CC-PVTZ-JKFIT
    Number of shells: 250
    Number of basis functions: 854
    Number of Cartesian functions: 1061
    Spherical Harmonics?: true
    Max angular momentum: 4

  Minimum eigenvalue in the overlap matrix is 1.5800828504E-05.
  Reciprocal condition number of the overlap matrix is 1.0125124731E-06.
    Using symmetric orthogonalization.

  ==> Pre-Iterations <==

  SCF Guess: Superposition of Atomic Densities via on-the-fly atomic UHF (no occupation information).

   -------------------------
    Irrep   Nso     Nmo    
   -------------------------
     A        391     391 
   -------------------------
    Total     391     391
   -------------------------

  ==> Iterations <==

                           Total Energy        Delta E     RMS |[F,P]|

   @DF-RHF iter SAD:  -414.25505291288027   -4.14255e+02   0.00000e+00 
   @DF-RHF iter   1:  -414.82818756219791   -5.73135e-01   1.63469e-03 DIIS
   @DF-RHF iter   2:  -414.97498551935718   -1.46798e-01   8.77078e-04 DIIS
   @DF-RHF iter   3:  -415.01406205025671   -3.90765e-02   1.36875e-04 DIIS
   @DF-RHF iter   4:  -415.01624594075167   -2.18389e-03   5.24011e-05 DIIS
   @DF-RHF iter   5:  -415.01648226337250   -2.36323e-04   9.80213e-06 DIIS
   @DF-RHF iter   6:  -415.01649492551695   -1.26621e-05   1.72838e-06 DIIS
   @DF-RHF iter   7:  -415.01649535716507   -4.31648e-07   4.13343e-07 DIIS
   @DF-RHF iter   8:  -415.01649538079317   -2.36281e-08   1.36170e-07 DIIS
   @DF-RHF iter   9:  -415.01649538321539   -2.42221e-09   3.51512e-08 DIIS
   @DF-RHF iter  10:  -415.01649538342309   -2.07706e-10   6.61327e-09 DIIS
   @DF-RHF iter  11:  -415.01649538343094   -7.84439e-12   1.63845e-09 DIIS
   @DF-RHF iter  12:  -415.01649538343042    5.11591e-13   5.15908e-10 DIIS
   @DF-RHF iter  13:  -415.01649538343094   -5.11591e-13   1.79480e-10 DIIS
   @DF-RHF iter  14:  -415.01649538343162   -6.82121e-13   6.77588e-11 DIIS
  Energy and wave function converged.


  ==> Post-Iterations <==

    Orbital Energies [Eh]
    ---------------------

    Doubly Occupied:                                                      

       1A    -26.329930     2A    -26.329684     3A    -26.329662  
       4A    -11.501612     5A    -11.262699     6A    -11.240525  
       7A     -1.710445     8A     -1.619418     9A     -1.619096  
      10A     -1.104727    11A     -0.963773    12A     -0.881410  
      13A     -0.809183    14A     -0.806850    15A     -0.760651  
      16A     -0.704531    17A     -0.700150    18A     -0.657371  
      19A     -0.653778    20A     -0.640105    21A     -0.622808  
      22A     -0.606718    23A     -0.546987    24A     -0.531243  
      25A     -0.524539  

    Virtual:                                                              

      26A      0.026662    27A      0.039715    28A      0.040722  
      29A      0.048698    30A      0.062585    31A      0.078035  
      32A      0.094561    33A      0.098248    34A      0.098833  
      35A      0.121808    36A      0.127440    37A      0.134021  
      38A      0.137384    39A      0.150028    40A      0.150218  
      41A      0.174813    42A      0.199339    43A      0.200775  
      44A      0.215760    45A      0.221816    46A      0.228573  
      47A      0.238620    48A      0.259435    49A      0.275778  
      50A      0.276462    51A      0.282870    52A      0.291334  
      53A      0.299485    54A      0.306895    55A      0.308025  
      56A      0.320363    57A      0.331854    58A      0.336513  
      59A      0.345917    60A      0.352797    61A      0.356873  
      62A      0.360317    63A      0.366196    64A      0.369616  
      65A      0.377777    66A      0.403052    67A      0.403897  
      68A      0.405410    69A      0.418343    70A      0.419918  
      71A      0.427083    72A      0.435271    73A      0.443754  
      74A      0.451617    75A      0.466213    76A      0.472639  
      77A      0.487648    78A      0.497428    79A      0.502827  
      80A      0.508572    81A      0.511081    82A      0.514650  
      83A      0.528406    84A      0.537391    85A      0.539371  
      86A      0.564145    87A      0.580982    88A      0.586832  
      89A      0.592334    90A      0.597564    91A      0.621821  
      92A      0.624515    93A      0.677266    94A      0.677269  
      95A      0.734415    96A      0.741458    97A      0.769537  
      98A      0.784971    99A      0.809890   100A      0.813037  
     101A      0.813051   102A      0.820542   103A      0.843719  
     104A      0.849965   105A      0.863480   106A      0.869836  
     107A      0.873068   108A      0.895717   109A      0.911961  
     110A      0.925159   111A      0.939579   112A      0.952550  
     113A      0.959915   114A      0.982047   115A      0.982066  
     116A      0.996697   117A      1.001013   118A      1.014574  
     119A      1.022720   120A      1.034314   121A      1.053247  
     122A      1.068845   123A      1.074225   124A      1.080959  
     125A      1.090874   126A      1.111650   127A      1.117049  
     128A      1.124614   129A      1.140491   130A      1.148111  
     131A      1.149731   132A      1.161915   133A      1.180552  
     134A      1.192755   135A      1.194267   136A      1.208190  
     137A      1.221747   138A      1.242034   139A      1.243659  
     140A      1.249891   141A      1.295383   142A      1.301568  
     143A      1.317933   144A      1.325853   145A      1.331687  
     146A      1.346447   147A      1.351839   148A      1.366470  
     149A      1.396622   150A      1.408257   151A      1.418679  
     152A      1.443607   153A      1.454982   154A      1.462029  
     155A      1.464822   156A      1.512965   157A      1.522156  
     158A      1.533384   159A      1.552123   160A      1.581650  
     161A      1.581884   162A      1.605840   163A      1.619224  
     164A      1.628949   165A      1.639848   166A      1.658663  
     167A      1.665022   168A      1.687162   169A      1.693900  
     170A      1.700012   171A      1.710914   172A      1.739315  
     173A      1.753822   174A      1.766292   175A      1.772151  
     176A      1.791842   177A      1.801566   178A      1.816098  
     179A      1.831118   180A      1.866280   181A      1.886648  
     182A      1.886863   183A      1.916276   184A      1.939402  
     185A      1.953031   186A      1.960315   187A      1.964392  
     188A      1.989320   189A      1.991536   190A      2.029106  
     191A      2.035886   192A      2.040057   193A      2.077989  
     194A      2.100736   195A      2.177374   196A      2.193414  
     197A      2.204364   198A      2.220435   199A      2.229974  
     200A      2.249895   201A      2.256305   202A      2.332223  
     203A      2.354081   204A      2.360767   205A      2.402430  
     206A      2.423813   207A      2.439589   208A      2.442894  
     209A      2.606318   210A      2.652149   211A      2.804765  
     212A      2.840147   213A      2.861100   214A      2.868018  
     215A      2.899946   216A      2.904079   217A      2.913662  
     218A      2.933996   219A      2.944943   220A      3.021773  
     221A      3.046601   222A      3.047493   223A      3.069320  
     224A      3.097222   225A      3.127605   226A      3.135689  
     227A      3.151259   228A      3.196324   229A      3.213071  
     230A      3.224472   231A      3.225157   232A      3.261293  
     233A      3.275448   234A      3.292913   235A      3.316705  
     236A      3.336986   237A      3.393197   238A      3.398345  
     239A      3.428312   240A      3.444883   241A      3.486582  
     242A      3.491821   243A      3.502148   244A      3.522203  
     245A      3.531043   246A      3.544724   247A      3.569172  
     248A      3.588383   249A      3.620905   250A      3.631652  
     251A      3.664523   252A      3.676968   253A      3.702009  
     254A      3.719828   255A      3.743449   256A      3.752059  
     257A      3.760463   258A      3.782982   259A      3.795835  
     260A      3.802023   261A      3.829102   262A      3.847498  
     263A      3.863256   264A      3.915549   265A      3.921190  
     266A      3.928752   267A      3.952944   268A      3.962492  
     269A      4.002184   270A      4.016885   271A      4.026186  
     272A      4.036293   273A      4.049514   274A      4.060047  
     275A      4.127522   276A      4.154711   277A      4.176583  
     278A      4.195925   279A      4.200221   280A      4.221065  
     281A      4.234585   282A      4.249750   283A      4.287218  
     284A      4.299964   285A      4.344843   286A      4.394791  
     287A      4.427195   288A      4.439320   289A      4.448889  
     290A      4.489937   291A      4.514228   292A      4.566114  
     293A      4.583072   294A      4.587702   295A      4.626324  
     296A      4.654275   297A      4.684430   298A      4.698357  
     299A      4.742409   300A      4.763790   301A      4.793734  
     302A      4.829453   303A      4.843996   304A      4.858360  
     305A      4.875866   306A      4.913370   307A      4.926092  
     308A      4.967286   309A      4.986569   310A      5.011175  
     311A      5.066428   312A      5.079594   313A      5.133364  
     314A      5.167609   315A      5.182248   316A      5.210319  
     317A      5.268828   318A      5.302923   319A      5.356005  
     320A      5.400456   321A      5.424416   322A      5.428557  
     323A      5.526021   324A      5.557892   325A      5.617289  
     326A      5.630214   327A      5.662811   328A      5.708216  
     329A      5.762981   330A      5.788741   331A      5.843525  
     332A      5.885288   333A      5.901219   334A      5.910786  
     335A      5.964832   336A      6.004579   337A      6.017646  
     338A      6.103177   339A      6.144323   340A      6.203838  
     341A      6.228675   342A      6.256678   343A      6.433676  
     344A      6.712708   345A      6.777443   346A      6.836888  
     347A      7.022244   348A      7.355521   349A      7.369267  
     350A      8.957134   351A      8.958494   352A      8.985464  
     353A      9.012495   354A      9.024070   355A      9.028769  
     356A      9.199076   357A      9.203907   358A      9.289377  
     359A      9.300492   360A      9.311080   361A      9.364932  
     362A      9.374624   363A      9.377009   364A      9.413812  
     365A      9.454111   366A      9.460903   367A      9.467941  
     368A      9.492999   369A      9.496482   370A      9.517031  
     371A      9.549671   372A      9.565764   373A      9.582371  
     374A      9.604096   375A      9.618922   376A      9.646546  
     377A      9.714672   378A      9.731378   379A      9.739309  
     380A      9.753384   381A      9.908056   382A      9.958957  
     383A      9.968689   384A     10.186509   385A     10.191451  
     386A     15.711570   387A     15.970099   388A     15.990824  
     389A     17.800288   390A     18.096041   391A     19.053329  

    Final Occupation by Irrep:
              A 
    DOCC [    25 ]

  @DF-RHF Final Energy:  -415.01649538343162

   => Energetics <=

    Nuclear Repulsion Energy =            271.5331266597680155
    One-Electron Energy =               -1114.1834523648481081
    Two-Electron Energy =                 427.6338303216485315
    Total Energy =                       -415.0164953834316179

Computation Completed

*** tstop() called on c445-114.stampede2.tacc.utexas.edu at Sat Mar 20 12:33:00 2021
Module time:
	user time   =     177.68 seconds =       2.96 minutes
	system time =      14.27 seconds =       0.24 minutes
	total time  =         13 seconds =       0.22 minutes
Total time:
	user time   =     177.68 seconds =       2.96 minutes
	system time =      14.27 seconds =       0.24 minutes
	total time  =         13 seconds =       0.22 minutes
   => Loading Basis Set <=

    Name: (AUG-CC-PVTZ AUX)
    Role: RIFIT
    Keyword: DF_BASIS_MP2
    atoms 1-3  entry F          line   322 file /home1/07844/xy3866/miniconda3/envs/p4env/share/psi4/basis/aug-cc-pvtz-ri.gbs 
    atoms 4-6  entry C          line   148 file /home1/07844/xy3866/miniconda3/envs/p4env/share/psi4/basis/aug-cc-pvtz-ri.gbs 
    atoms 7-11 entry H          line    30 file /home1/07844/xy3866/miniconda3/envs/p4env/share/psi4/basis/aug-cc-pvtz-ri.gbs 


*** tstart() called on c445-114.stampede2.tacc.utexas.edu
*** at Sat Mar 20 12:33:00 2021


  //>>>>>>>>>>>>>>>>>>>>>>>>>>>>>>>>>>>//
  //               DFMP2               //
  //<<<<<<<<<<<<<<<<<<<<<<<<<<<<<<<<<<<//

	 --------------------------------------------------------
	                          DF-MP2                         
	      2nd-Order Density-Fitted Moller-Plesset Theory     
	              RMP2 Wavefunction,  32 Threads             
	                                                         
	        Rob Parrish, Justin Turney, Andy Simmonett,      
	           Ed Hohenstein, and C. David Sherrill          
	 --------------------------------------------------------

   => Auxiliary Basis Set <=

  Basis Set: (AUG-CC-PVTZ AUX)
    Blend: AUG-CC-PVTZ-RI
    Number of shells: 238
    Number of basis functions: 866
    Number of Cartesian functions: 1091
    Spherical Harmonics?: true
    Max angular momentum: 4

	 --------------------------------------------------------
	                 NBF =   391, NAUX =   866
	 --------------------------------------------------------
	   CLASS    FOCC     OCC    AOCC    AVIR     VIR    FVIR
	   PAIRS       0      25      25     366     366       0
	 --------------------------------------------------------

  DFHelper Memory: AOs need 1.030 GiB; user supplied 22.352 GiB. Using in-core AOs.


         ------------------------------------------------------------
                                     CPHF                           
                                  Rob Parrish                       
         ------------------------------------------------------------

  ==> Geometry <==

    Molecular point group: c1
    Full point group: C1

    Geometry (in Angstrom), charge = 0, multiplicity = 1:

       Center              X                  Y                   Z               Mass       
    ------------   -----------------  -----------------  -----------------  -----------------
         F            0.427923822609    -0.751455200808     1.089889888066    18.998403162730
         F            1.416202822609     0.858971799192    -0.000003111934    18.998403162730
         F            0.427921822609    -0.751462200808    -1.089885111934    18.998403162730
         C           -0.946811177391     0.838021799192    -0.000002111934    12.000000000000
         C            0.313938322609     0.059413799192    -0.000000111934    12.000000000000
         C           -2.181295177391    -0.056766200808    -0.000000111934    12.000000000000
         H           -0.921452177391     1.482995799192     0.882662888066     1.007825032230
         H           -0.921452177391     1.482991799192    -0.882669111934     1.007825032230
         H           -2.195926177391    -0.694617200808     0.885909888066     1.007825032230
         H           -3.087572177391     0.552493799192    -0.000001111934     1.007825032230
         H           -2.195926177391    -0.694620200808    -0.885906111934     1.007825032230

  Nuclear repulsion =  271.533126659768016
  Reference energy  = -415.016495383431618

  ==> Basis Set <==

  Basis Set: AUG-CC-PVTZ
    Blend: AUG-CC-PVTZ
    Number of shells: 129
    Number of basis functions: 391
    Number of Cartesian functions: 455
    Spherical Harmonics?: true
    Max angular momentum: 3

  ==> CGRSolver (by Rob Parrish) <==

   Number of roots    =         1
   Preconditioning    =    JACOBI
   Convergence cutoff =     1E-06
   Maximum iterations =       100

  ==> CPHFRHamiltonian (by Rob Parrish) <== 

  ==> MemDFJK: Density-Fitted J/K Matrices <==

    J tasked:                   Yes
    K tasked:                   Yes
    wK tasked:                   No
    OpenMP threads:              32
    Memory [MiB]:             22888
    Algorithm:                 Core
    Schwarz Cutoff:           1E-12
    Mask sparsity (%):       1.5463
    Fitting Condition:        1E-10

   => Auxiliary Basis Set <=

  Basis Set: (AUG-CC-PVTZ AUX)
    Blend: AUG-CC-PVTZ-JKFIT
    Number of shells: 250
    Number of basis functions: 854
    Number of Cartesian functions: 1061
    Spherical Harmonics?: true
    Max angular momentum: 4

  ==> CPHF Iterations <==

  => Iterations <=

             Iter  Converged  Remaining    Residual
  CGR           1          0          1   8.420E-02
  CGR           2          0          1   1.712E-02
  CGR           3          0          1   6.058E-03
  CGR           4          0          1   1.298E-03
  CGR           5          0          1   2.974E-04
  CGR           6          0          1   1.101E-04
  CGR           7          0          1   2.452E-05
  CGR           8          0          1   7.329E-06
  CGR           9          0          1   2.086E-06
  CGR          10          1          0   5.793E-07

    CGRSolver converged.

	-----------------------------------------------------------
	 ==================> DF-MP2 Energies <==================== 
	-----------------------------------------------------------
	 Reference Energy          =    -415.0164953834316179 [Eh]
	 Singles Energy            =      -0.0000000000000000 [Eh]
	 Same-Spin Energy          =      -0.3417353349369805 [Eh]
	 Opposite-Spin Energy      =      -1.0486965275929068 [Eh]
	 Correlation Energy        =      -1.3904318625298873 [Eh]
	 Total Energy              =    -416.4069272459615263 [Eh]
	-----------------------------------------------------------
	 ================> DF-SCS-MP2 Energies <================== 
	-----------------------------------------------------------
	 SCS Same-Spin Scale       =       0.3333333333333333 [-]
	 SCS Opposite-Spin Scale   =       1.2000000000000000 [-]
	 SCS Same-Spin Energy      =      -0.1139117783123268 [Eh]
	 SCS Opposite-Spin Energy  =      -1.2584358331114880 [Eh]
	 SCS Correlation Energy    =      -1.3723476114238149 [Eh]
	 SCS Total Energy          =    -416.3888429948554517 [Eh]
	-----------------------------------------------------------



Properties will be evaluated at   0.000000,   0.000000,  -0.000000 [a0]

Properties computed using the MP2 density matrix

  Nuclear Dipole Moment: [e a0]
     X:   -10.8827      Y:     2.6036      Z:    -0.0000

  Electronic Dipole Moment: [e a0]
     X:     9.9652      Y:    -2.1338      Z:     0.0000

  Dipole Moment: [e a0]
     X:    -0.9176      Y:     0.4698      Z:    -0.0000     Total:     1.0308

  Dipole Moment: [D]
     X:    -2.3322      Y:     1.1940      Z:    -0.0000     Total:     2.6201


*** tstop() called on c445-114.stampede2.tacc.utexas.edu at Sat Mar 20 12:34:05 2021
Module time:
	user time   =     445.02 seconds =       7.42 minutes
	system time =      16.61 seconds =       0.28 minutes
	total time  =         65 seconds =       1.08 minutes
Total time:
	user time   =     624.00 seconds =      10.40 minutes
	system time =      31.00 seconds =       0.52 minutes
	total time  =         78 seconds =       1.30 minutes

    Psi4 stopped on: Saturday, 20 March 2021 12:34PM
    Psi4 wall time for execution: 0:01:18.02

*** Psi4 exiting successfully. Buy a developer a beer!
