
    -----------------------------------------------------------------------
          Psi4: An Open-Source Ab Initio Electronic Structure Package
                               Psi4 1.3.2 release

                         Git: Rev {HEAD} ecbda83 


    R. M. Parrish, L. A. Burns, D. G. A. Smith, A. C. Simmonett,
    A. E. DePrince III, E. G. Hohenstein, U. Bozkaya, A. Yu. Sokolov,
    R. Di Remigio, R. M. Richard, J. F. Gonthier, A. M. James,
    H. R. McAlexander, A. Kumar, M. Saitow, X. Wang, B. P. Pritchard,
    P. Verma, H. F. Schaefer III, K. Patkowski, R. A. King, E. F. Valeev,
    F. A. Evangelista, J. M. Turney, T. D. Crawford, and C. D. Sherrill,
    J. Chem. Theory Comput. 13(7) pp 3185--3197 (2017).
    (doi: 10.1021/acs.jctc.7b00174)


                         Additional Contributions by
    P. Kraus, H. Kruse, M. H. Lechner, M. C. Schieber, R. A. Shaw,
    A. Alenaizan, R. Galvelis, Z. L. Glick, S. Lehtola, and J. P. Misiewicz

    -----------------------------------------------------------------------


    Psi4 started on: Sunday, 08 November 2020 09:53PM

    Process ID: 6125
    Host:       node37.bme.utexas.edu
    PSIDATADIR: /home/xy3866/psi4conda/share/psi4
    Memory:     500.0 MiB
    Threads:    8
    
  ==> Input File <==

--------------------------------------------------------------------------
#psi4
#
memory 32 gb

molecule  {
0 1
  N        1.2070330    -0.3594050    -0.0000050
  C       -1.2028230    -0.1434160    -0.0000110
  C        0.1842620     0.4168630     0.0000180
  H       -1.1533220    -1.2333450    -0.0000600
  H       -1.7556310     0.1970070    -0.8817940
  H       -1.7556310     0.1969280     0.8818020
  H        0.2601400     1.5131004    -0.1999590
  H        2.0665750     0.2014680     0.0000070
units angstrom
no_reorient  #important for SAPT in psi4, default
symmetry c1  #important for SAPT in psi4, default
}

set PROPERTIES_ORIGIN ["COM"]
properties('MP2/aug-cc-pvtz', properties = ['dipole'])
--------------------------------------------------------------------------

  Memory set to  29.802 GiB by Python driver.
    SCF Algorithm Type (re)set to DF.

*** tstart() called on node37.bme.utexas.edu
*** at Sun Nov  8 21:53:54 2020

   => Loading Basis Set <=

    Name: AUG-CC-PVTZ
    Role: ORBITAL
    Keyword: BASIS
    atoms 1   entry N          line   281 file /home/xy3866/psi4conda/share/psi4/basis/aug-cc-pvtz.gbs 
    atoms 2-3 entry C          line   235 file /home/xy3866/psi4conda/share/psi4/basis/aug-cc-pvtz.gbs 
    atoms 4-8 entry H          line    36 file /home/xy3866/psi4conda/share/psi4/basis/aug-cc-pvtz.gbs 


         ---------------------------------------------------------
                                   SCF
               by Justin Turney, Rob Parrish, Andy Simmonett
                          and Daniel G. A. Smith
                              RHF Reference
                        8 Threads,  30517 MiB Core
         ---------------------------------------------------------

  ==> Geometry <==

    Molecular point group: c1
    Full point group: C1

    Geometry (in Angstrom), charge = 0, multiplicity = 1:

       Center              X                  Y                   Z               Mass       
    ------------   -----------------  -----------------  -----------------  -----------------
         N            1.153056261600    -0.339206118746     0.004677731297    14.003074004430
         C           -1.256799738400    -0.123217118746     0.004671731297    12.000000000000
         C            0.130285261600     0.437061881254     0.004700731297    12.000000000000
         H           -1.207298738400    -1.213146118746     0.004622731297     1.007825032230
         H           -1.809607738400     0.217205881254    -0.877111268703     1.007825032230
         H           -1.809607738400     0.217126881254     0.886484731297     1.007825032230
         H            0.206163261600     1.533299281254    -0.195276268703     1.007825032230
         H            2.012598261600     0.221666881254     0.004689731297     1.007825032230

  Running in c1 symmetry.

  Rotational constants: A =      1.74925  B =      0.32661  C =      0.29031 [cm^-1]
  Rotational constants: A =  52441.06661  B =   9791.37658  C =   8703.16927 [MHz]
  Nuclear repulsion =   70.642397233146028

  Charge       = 0
  Multiplicity = 1
  Electrons    = 24
  Nalpha       = 12
  Nbeta        = 12

  ==> Algorithm <==

  SCF Algorithm Type is DF.
  DIIS enabled.
  MOM disabled.
  Fractional occupation disabled.
  Guess Type is SAD.
  Energy threshold   = 1.00e-10
  Density threshold  = 1.00e-10
  Integral threshold = 0.00e+00

  ==> Primary Basis <==

  Basis Set: AUG-CC-PVTZ
    Blend: AUG-CC-PVTZ
    Number of shells: 87
    Number of basis function: 253
    Number of Cartesian functions: 290
    Spherical Harmonics?: true
    Max angular momentum: 3

   => Loading Basis Set <=

    Name: (AUG-CC-PVTZ AUX)
    Role: JKFIT
    Keyword: DF_BASIS_SCF
    atoms 1   entry N          line   224 file /home/xy3866/psi4conda/share/psi4/basis/aug-cc-pvtz-jkfit.gbs 
    atoms 2-3 entry C          line   162 file /home/xy3866/psi4conda/share/psi4/basis/aug-cc-pvtz-jkfit.gbs 
    atoms 4-8 entry H          line    70 file /home/xy3866/psi4conda/share/psi4/basis/aug-cc-pvtz-jkfit.gbs 

  ==> Pre-Iterations <==

   -------------------------------------------------------
    Irrep   Nso     Nmo     Nalpha   Nbeta   Ndocc  Nsocc
   -------------------------------------------------------
     A        253     253       0       0       0       0
   -------------------------------------------------------
    Total     253     253      12      12      12       0
   -------------------------------------------------------

  ==> Integral Setup <==

  DFHelper Memory: AOs need 0.277 GiB; user supplied 22.352 GiB. Using in-core AOs.

  ==> MemDFJK: Density-Fitted J/K Matrices <==

    J tasked:                   Yes
    K tasked:                   Yes
    wK tasked:                   No
    OpenMP threads:               8
    Memory [MiB]:             22888
    Algorithm:                 Core
    Schwarz Cutoff:           1E-12
    Mask sparsity (%):       0.3000
    Fitting Condition:        1E-10

   => Auxiliary Basis Set <=

  Basis Set: (AUG-CC-PVTZ AUX)
    Blend: AUG-CC-PVTZ-JKFIT
    Number of shells: 160
    Number of basis function: 542
    Number of Cartesian functions: 668
    Spherical Harmonics?: true
    Max angular momentum: 4

  Minimum eigenvalue in the overlap matrix is 1.7603507459E-05.
  Using Symmetric Orthogonalization.

  SCF Guess: Superposition of Atomic Densities via on-the-fly atomic UHF.

  ==> Iterations <==

                           Total Energy        Delta E     RMS |[F,P]|

   @DF-RHF iter SAD:  -132.27188693660457   -1.32272e+02   0.00000e+00 
   @DF-RHF iter   1:  -132.98503685162814   -7.13150e-01   1.97008e-03 DIIS
   @DF-RHF iter   2:  -133.09004045669477   -1.05004e-01   1.09126e-03 DIIS
   @DF-RHF iter   3:  -133.12199032944127   -3.19499e-02   1.93773e-04 DIIS
   @DF-RHF iter   4:  -133.12382661785009   -1.83629e-03   9.41659e-05 DIIS
   @DF-RHF iter   5:  -133.12418063657580   -3.54019e-04   1.45410e-05 DIIS
   @DF-RHF iter   6:  -133.12420165076574   -2.10142e-05   5.91580e-06 DIIS
   @DF-RHF iter   7:  -133.12420426894960   -2.61818e-06   2.42860e-06 DIIS
   @DF-RHF iter   8:  -133.12420485513030   -5.86181e-07   7.56296e-07 DIIS
   @DF-RHF iter   9:  -133.12420491503511   -5.99048e-08   1.50199e-07 DIIS
   @DF-RHF iter  10:  -133.12420491762947   -2.59436e-09   4.27885e-08 DIIS
   @DF-RHF iter  11:  -133.12420491785764   -2.28169e-10   1.43360e-08 DIIS
   @DF-RHF iter  12:  -133.12420491789172   -3.40776e-11   5.42712e-09 DIIS
   @DF-RHF iter  13:  -133.12420491789692   -5.20117e-12   1.53435e-09 DIIS
   @DF-RHF iter  14:  -133.12420491789769   -7.67386e-13   5.10315e-10 DIIS
   @DF-RHF iter  15:  -133.12420491789757    1.13687e-13   1.40060e-10 DIIS
   @DF-RHF iter  16:  -133.12420491789740    1.70530e-13   3.43104e-11 DIIS
  Energy and wave function converged.


  ==> Post-Iterations <==

    Orbital Energies [Eh]
    ---------------------

    Doubly Occupied:                                                      

       1A    -15.554926     2A    -11.290572     3A    -11.228638  
       4A     -1.203904     5A     -0.992809     6A     -0.775341  
       7A     -0.688845     8A     -0.582351     9A     -0.564388  
      10A     -0.543802    11A     -0.431065    12A     -0.417957  

    Virtual:                                                              

      13A      0.027861    14A      0.038800    15A      0.045408  
      16A      0.046588    17A      0.064071    18A      0.095636  
      19A      0.097588    20A      0.111316    21A      0.124008  
      22A      0.126946    23A      0.133431    24A      0.141803  
      25A      0.142530    26A      0.165119    27A      0.180301  
      28A      0.183276    29A      0.192176    30A      0.225491  
      31A      0.227496    32A      0.256243    33A      0.266529  
      34A      0.277530    35A      0.294228    36A      0.311303  
      37A      0.316544    38A      0.324974    39A      0.333589  
      40A      0.337766    41A      0.351551    42A      0.357533  
      43A      0.364369    44A      0.373053    45A      0.393616  
      46A      0.403980    47A      0.416370    48A      0.420027  
      49A      0.427399    50A      0.433358    51A      0.450246  
      52A      0.466458    53A      0.474367    54A      0.479159  
      55A      0.492854    56A      0.514088    57A      0.535437  
      58A      0.536351    59A      0.547589    60A      0.567057  
      61A      0.576246    62A      0.598960    63A      0.624501  
      64A      0.649610    65A      0.659232    66A      0.679212  
      67A      0.709975    68A      0.732102    69A      0.744243  
      70A      0.787134    71A      0.805628    72A      0.810417  
      73A      0.833903    74A      0.843287    75A      0.851102  
      76A      0.860296    77A      0.881376    78A      0.890470  
      79A      0.921052    80A      0.931073    81A      0.935271  
      82A      0.946114    83A      0.954198    84A      0.959976  
      85A      0.974697    86A      0.988362    87A      1.000049  
      88A      1.025516    89A      1.030967    90A      1.038078  
      91A      1.061148    92A      1.067794    93A      1.099472  
      94A      1.107792    95A      1.117856    96A      1.125236  
      97A      1.143093    98A      1.165351    99A      1.182401  
     100A      1.194450   101A      1.204736   102A      1.226279  
     103A      1.235658   104A      1.258392   105A      1.267434  
     106A      1.278410   107A      1.294599   108A      1.311256  
     109A      1.370320   110A      1.400358   111A      1.409361  
     112A      1.432088   113A      1.456520   114A      1.477118  
     115A      1.511349   116A      1.533069   117A      1.554797  
     118A      1.571308   119A      1.599171   120A      1.601716  
     121A      1.634687   122A      1.659538   123A      1.675627  
     124A      1.686441   125A      1.705007   126A      1.726723  
     127A      1.749977   128A      1.764221   129A      1.786897  
     130A      1.848705   131A      1.860431   132A      1.867897  
     133A      1.908849   134A      1.926659   135A      1.938429  
     136A      1.952237   137A      2.004985   138A      2.008563  
     139A      2.039074   140A      2.071794   141A      2.080297  
     142A      2.133034   143A      2.155361   144A      2.169092  
     145A      2.198766   146A      2.244003   147A      2.254478  
     148A      2.273640   149A      2.318807   150A      2.355338  
     151A      2.373642   152A      2.377874   153A      2.435501  
     154A      2.452971   155A      2.483112   156A      2.602977  
     157A      2.675812   158A      2.726127   159A      2.804637  
     160A      2.986245   161A      3.080378   162A      3.128517  
     163A      3.196551   164A      3.291364   165A      3.324635  
     166A      3.406463   167A      3.422024   168A      3.448637  
     169A      3.515671   170A      3.536497   171A      3.546801  
     172A      3.581070   173A      3.615305   174A      3.638625  
     175A      3.650840   176A      3.690779   177A      3.742198  
     178A      3.794531   179A      3.805098   180A      3.832188  
     181A      3.892991   182A      3.894581   183A      3.919431  
     184A      3.942022   185A      3.957853   186A      4.003973  
     187A      4.028887   188A      4.043497   189A      4.061494  
     190A      4.097734   191A      4.139870   192A      4.172196  
     193A      4.215833   194A      4.231978   195A      4.262418  
     196A      4.291947   197A      4.330589   198A      4.336454  
     199A      4.357656   200A      4.409290   201A      4.443868  
     202A      4.484590   203A      4.512762   204A      4.575375  
     205A      4.640388   206A      4.679058   207A      4.742487  
     208A      4.788030   209A      4.791610   210A      4.806558  
     211A      4.827276   212A      4.886404   213A      4.930392  
     214A      4.934230   215A      4.992632   216A      5.014594  
     217A      5.084152   218A      5.107083   219A      5.122341  
     220A      5.133617   221A      5.177431   222A      5.202470  
     223A      5.273063   224A      5.326872   225A      5.371844  
     226A      5.435394   227A      5.456558   228A      5.499907  
     229A      5.548228   230A      5.552795   231A      5.612808  
     232A      5.688491   233A      5.710498   234A      5.801136  
     235A      5.828296   236A      5.881918   237A      5.956011  
     238A      6.024567   239A      6.083009   240A      6.087803  
     241A      6.170578   242A      6.173483   243A      6.361094  
     244A      6.395929   245A      6.553355   246A      6.617117  
     247A      6.691404   248A      6.721193   249A      6.846478  
     250A      7.548079   251A     16.002169   252A     16.686255  
     253A     18.098911  

    Final Occupation by Irrep:
              A 
    DOCC [    12 ]

  @DF-RHF Final Energy:  -133.12420491789740

   => Energetics <=

    Nuclear Repulsion Energy =             70.6423972331460277
    One-Electron Energy =                -318.9840084625397481
    Two-Electron Energy =                 115.2174063114963332
    Total Energy =                       -133.1242049178973730

Computation Completed

*** tstop() called on node37.bme.utexas.edu at Sun Nov  8 21:53:59 2020
Module time:
	user time   =      23.92 seconds =       0.40 minutes
	system time =       2.37 seconds =       0.04 minutes
	total time  =          5 seconds =       0.08 minutes
Total time:
	user time   =      23.92 seconds =       0.40 minutes
	system time =       2.37 seconds =       0.04 minutes
	total time  =          5 seconds =       0.08 minutes
   => Loading Basis Set <=

    Name: (AUG-CC-PVTZ AUX)
    Role: RIFIT
    Keyword: DF_BASIS_MP2
    atoms 1   entry N          line   206 file /home/xy3866/psi4conda/share/psi4/basis/aug-cc-pvtz-ri.gbs 
    atoms 2-3 entry C          line   148 file /home/xy3866/psi4conda/share/psi4/basis/aug-cc-pvtz-ri.gbs 
    atoms 4-8 entry H          line    30 file /home/xy3866/psi4conda/share/psi4/basis/aug-cc-pvtz-ri.gbs 


*** tstart() called on node37.bme.utexas.edu
*** at Sun Nov  8 21:53:59 2020


  //>>>>>>>>>>>>>>>>>>>>>>>>>>>>>>>>>>>//
  //               DFMP2               //
  //<<<<<<<<<<<<<<<<<<<<<<<<<<<<<<<<<<<//

	 --------------------------------------------------------
	                          DF-MP2                         
	      2nd-Order Density-Fitted Moller-Plesset Theory     
	              RMP2 Wavefunction,   8 Threads             
	                                                         
	        Rob Parrish, Justin Turney, Andy Simmonett,      
	           Ed Hohenstein, and C. David Sherrill          
	 --------------------------------------------------------

   => Auxiliary Basis Set <=

  Basis Set: (AUG-CC-PVTZ AUX)
    Blend: AUG-CC-PVTZ-RI
    Number of shells: 154
    Number of basis function: 548
    Number of Cartesian functions: 683
    Spherical Harmonics?: true
    Max angular momentum: 4

	 --------------------------------------------------------
	                 NBF =   253, NAUX =   548
	 --------------------------------------------------------
	   CLASS    FOCC     OCC    AOCC    AVIR     VIR    FVIR
	   PAIRS       0      12      12     241     241       0
	 --------------------------------------------------------

  DFHelper Memory: AOs need 0.277 GiB; user supplied 22.352 GiB. Using in-core AOs.


         ------------------------------------------------------------
                                     CPHF                           
                                  Rob Parrish                       
         ------------------------------------------------------------

  ==> Geometry <==

    Molecular point group: c1
    Full point group: C1

    Geometry (in Angstrom), charge = 0, multiplicity = 1:

       Center              X                  Y                   Z               Mass       
    ------------   -----------------  -----------------  -----------------  -----------------
         N            1.153056261600    -0.339206118746     0.004677731297    14.003074004430
         C           -1.256799738400    -0.123217118746     0.004671731297    12.000000000000
         C            0.130285261600     0.437061881254     0.004700731297    12.000000000000
         H           -1.207298738400    -1.213146118746     0.004622731297     1.007825032230
         H           -1.809607738400     0.217205881254    -0.877111268703     1.007825032230
         H           -1.809607738400     0.217126881254     0.886484731297     1.007825032230
         H            0.206163261600     1.533299281254    -0.195276268703     1.007825032230
         H            2.012598261600     0.221666881254     0.004689731297     1.007825032230

  Nuclear repulsion =   70.642397233146028
  Reference energy  = -133.124204917897401

  ==> Basis Set <==

  Basis Set: AUG-CC-PVTZ
    Blend: AUG-CC-PVTZ
    Number of shells: 87
    Number of basis function: 253
    Number of Cartesian functions: 290
    Spherical Harmonics?: true
    Max angular momentum: 3

  ==> CGRSolver (by Rob Parrish) <==

   Number of roots    =         1
   Preconditioning    =    JACOBI
   Convergence cutoff =     1E-06
   Maximum iterations =       100

  ==> CPHFRHamiltonian (by Rob Parrish) <== 

  ==> MemDFJK: Density-Fitted J/K Matrices <==

    J tasked:                   Yes
    K tasked:                   Yes
    wK tasked:                   No
    OpenMP threads:               8
    Memory [MiB]:             22888
    Algorithm:                 Core
    Schwarz Cutoff:           1E-12
    Mask sparsity (%):       0.3000
    Fitting Condition:        1E-10

   => Auxiliary Basis Set <=

  Basis Set: (AUG-CC-PVTZ AUX)
    Blend: AUG-CC-PVTZ-JKFIT
    Number of shells: 160
    Number of basis function: 542
    Number of Cartesian functions: 668
    Spherical Harmonics?: true
    Max angular momentum: 4

  ==> CPHF Iterations <==

  => Iterations <=

             Iter  Converged  Remaining    Residual
  CGR           1          0          1   8.592E-02
  CGR           2          0          1   2.010E-02
  CGR           3          0          1   7.445E-03
  CGR           4          0          1   2.071E-03
  CGR           5          0          1   6.536E-04
  CGR           6          0          1   2.737E-04
  CGR           7          0          1   8.087E-05
  CGR           8          0          1   3.006E-05
  CGR           9          0          1   9.871E-06
  CGR          10          0          1   2.870E-06
  CGR          11          1          0   6.657E-07

    CGRSolver converged.

	-----------------------------------------------------------
	 ==================> DF-MP2 Energies <==================== 
	-----------------------------------------------------------
	 Reference Energy          =    -133.1242049178974014 [Eh]
	 Singles Energy            =      -0.0000000000000000 [Eh]
	 Same-Spin Energy          =      -0.1342559508637605 [Eh]
	 Opposite-Spin Energy      =      -0.4735548373947734 [Eh]
	 Correlation Energy        =      -0.6078107882585339 [Eh]
	 Total Energy              =    -133.7320157061559485 [Eh]
	-----------------------------------------------------------
	 ================> DF-SCS-MP2 Energies <================== 
	-----------------------------------------------------------
	 SCS Same-Spin Scale       =       0.3333333333333333 [-]
	 SCS Opposite-Spin Scale   =       1.2000000000000000 [-]
	 SCS Same-Spin Energy      =      -0.0447519836212535 [Eh]
	 SCS Opposite-Spin Energy  =      -0.5682658048737280 [Eh]
	 SCS Correlation Energy    =      -0.6130177884949815 [Eh]
	 SCS Total Energy          =    -133.7372227063923731 [Eh]
	-----------------------------------------------------------



Properties will be evaluated at   0.000000,  -0.000000,   0.000000 [a0]

Properties computed using the MP2 density matrix

  Nuclear Dipole Moment: [e a0]
     X:    -2.4480      Y:     0.9161      Z:    -0.1656

  Electronic Dipole Moment: [e a0]
     X:     2.1297      Y:    -0.1720      Z:     0.1085

  Dipole Moment: [e a0]
     X:    -0.3184      Y:     0.7441      Z:    -0.0571     Total:     0.8113

  Dipole Moment: [D]
     X:    -0.8092      Y:     1.8912      Z:    -0.1451     Total:     2.0622


*** tstop() called on node37.bme.utexas.edu at Sun Nov  8 21:54:07 2020
Module time:
	user time   =      55.81 seconds =       0.93 minutes
	system time =       3.35 seconds =       0.06 minutes
	total time  =          8 seconds =       0.13 minutes
Total time:
	user time   =      80.50 seconds =       1.34 minutes
	system time =       5.79 seconds =       0.10 minutes
	total time  =         13 seconds =       0.22 minutes

    Psi4 stopped on: Sunday, 08 November 2020 09:54PM
    Psi4 wall time for execution: 0:00:13.22

*** Psi4 exiting successfully. Buy a developer a beer!
