59080482                                                                
Freq      RMP2-FC                                                     6-31G(d)            
Number of atoms                            I               18
Info1-9                                    I   N=           9
          30          28        1002           0           0         100
           6           2           1
Charge                                     I                1
Multiplicity                               I                1
Number of electrons                        I               48
Number of alpha electrons                  I               24
Number of beta electrons                   I               24
Number of basis functions                  I              114
Number of independent functions            I              114
Number of point charges in /Mol/           I                0
Number of translation vectors              I                0
Atomic numbers                             I   N=          18
           7           6           6           6           6           6
           1           1           1           1           1           1
           1           1           1           1           1           1
Nuclear charges                            R   N=          18
  7.00000000E+00  6.00000000E+00  6.00000000E+00  6.00000000E+00  6.00000000E+00
  6.00000000E+00  1.00000000E+00  1.00000000E+00  1.00000000E+00  1.00000000E+00
  1.00000000E+00  1.00000000E+00  1.00000000E+00  1.00000000E+00  1.00000000E+00
  1.00000000E+00  1.00000000E+00  1.00000000E+00
Current cartesian coordinates              R   N=          54
 -2.77490369E+00 -1.37124030E+00  3.18725401E-02  1.47207127E+00  4.76215611E-02
 -7.08761411E-01 -2.72008966E-02 -2.22503587E+00  2.28795947E-01 -5.46483735E-02
  2.25846906E+00  3.64485394E-01 -2.79282212E+00  1.52626967E+00 -1.33670759E-01
  4.23057649E+00 -2.26996165E-02  1.12059160E-01  1.37271552E+00  1.03722029E-01
 -2.78100866E+00  2.16373568E-01 -3.96408216E+00 -8.52980954E-01  3.51664357E-01
 -2.59667434E+00  2.22455525E+00  4.06509437E-01  4.06179606E+00 -5.29884463E-01
  2.99249535E-01  2.44633777E+00  2.39590268E+00 -3.80879065E+00 -1.99557180E+00
  1.55066827E+00 -3.61768239E+00 -2.14035367E+00 -1.53721548E+00 -4.16434762E+00
  2.25453522E+00  1.22108402E+00 -3.39893771E+00  2.01415844E+00 -2.04271625E+00
  5.19730752E+00 -1.68114888E+00 -6.50540805E-01  5.22055459E+00  1.65420654E+00
 -5.72247118E-01  4.38185148E+00 -6.59919440E-02  2.17382575E+00
Force Field                                I                0
Int Atom Types                             I   N=          18
           0           0           0           0           0           0
           0           0           0           0           0           0
           0           0           0           0           0           0
MM charges                                 R   N=          18
  0.00000000E+00  0.00000000E+00  0.00000000E+00  0.00000000E+00  0.00000000E+00
  0.00000000E+00  0.00000000E+00  0.00000000E+00  0.00000000E+00  0.00000000E+00
  0.00000000E+00  0.00000000E+00  0.00000000E+00  0.00000000E+00  0.00000000E+00
  0.00000000E+00  0.00000000E+00  0.00000000E+00
Integer atomic weights                     I   N=          18
          14          12          12          12          12          12
           1           1           1           1           1           1
           1           1           1           1           1           1
Real atomic weights                        R   N=          18
  1.40030740E+01  1.20000000E+01  1.20000000E+01  1.20000000E+01  1.20000000E+01
  1.20000000E+01  1.00782504E+00  1.00782504E+00  1.00782504E+00  1.00782504E+00
  1.00782504E+00  1.00782504E+00  1.00782504E+00  1.00782504E+00  1.00782504E+00
  1.00782504E+00  1.00782504E+00  1.00782504E+00
Atom fragment info                         I   N=          18
           0           0           0           0           0           0
           0           0           0           0           0           0
           0           0           0           0           0           0
Atom residue num                           I   N=          18
           0           0           0           0           0           0
           0           0           0           0           0           0
           0           0           0           0           0           0
Nuclear spins                              I   N=          18
           2           0           0           0           0           0
           1           1           1           1           1           1
           1           1           1           1           1           1
Nuclear ZEff                               R   N=          18
 -4.55000000E+00 -3.60000000E+00 -3.60000000E+00 -3.60000000E+00 -3.60000000E+00
 -3.60000000E+00 -1.00000000E+00 -1.00000000E+00 -1.00000000E+00 -1.00000000E+00
 -1.00000000E+00 -1.00000000E+00 -1.00000000E+00 -1.00000000E+00 -1.00000000E+00
 -1.00000000E+00 -1.00000000E+00 -1.00000000E+00
Nuclear QMom                               R   N=          18
  2.04400000E+00  0.00000000E+00  0.00000000E+00  0.00000000E+00  0.00000000E+00
  0.00000000E+00  0.00000000E+00  0.00000000E+00  0.00000000E+00  0.00000000E+00
  0.00000000E+00  0.00000000E+00  0.00000000E+00  0.00000000E+00  0.00000000E+00
  0.00000000E+00  0.00000000E+00  0.00000000E+00
Nuclear GFac                               R   N=          18
  4.03761000E-01  0.00000000E+00  0.00000000E+00  0.00000000E+00  0.00000000E+00
  0.00000000E+00  2.79284600E+00  2.79284600E+00  2.79284600E+00  2.79284600E+00
  2.79284600E+00  2.79284600E+00  2.79284600E+00  2.79284600E+00  2.79284600E+00
  2.79284600E+00  2.79284600E+00  2.79284600E+00
MicOpt                                     I   N=          18
          -1          -1          -1          -1          -1          -1
          -1          -1          -1          -1          -1          -1
          -1          -1          -1          -1          -1          -1
Number of contracted shells                I               48
Number of primitive shells                 I              114
Pure/Cartesian d shells                    I                1
Pure/Cartesian f shells                    I                0
Highest angular momentum                   I                2
Largest degree of contraction              I                6
Shell types                                I   N=          48
           0          -1          -1           2           0          -1
          -1           2           0          -1          -1           2
           0          -1          -1           2           0          -1
          -1           2           0          -1          -1           2
           0           0           0           0           0           0
           0           0           0           0           0           0
           0           0           0           0           0           0
           0           0           0           0           0           0
Number of primitives per shell             I   N=          48
           6           3           1           1           6           3
           1           1           6           3           1           1
           6           3           1           1           6           3
           1           1           6           3           1           1
           3           1           3           1           3           1
           3           1           3           1           3           1
           3           1           3           1           3           1
           3           1           3           1           3           1
Shell to atom map                          I   N=          48
           1           1           1           1           2           2
           2           2           3           3           3           3
           4           4           4           4           5           5
           5           5           6           6           6           6
           7           7           8           8           9           9
          10          10          11          11          12          12
          13          13          14          14          15          15
          16          16          17          17          18          18
Primitive exponents                        R   N=         114
  4.17351146E+03  6.27457911E+02  1.42902093E+02  4.02343293E+01  1.28202129E+01
  4.39043701E+00  1.16263619E+01  2.71627981E+00  7.72218397E-01  2.12031498E-01
  8.00000000E-01  3.04752488E+03  4.57369518E+02  1.03948685E+02  2.92101553E+01
  9.28666296E+00  3.16392696E+00  7.86827235E+00  1.88128854E+00  5.44249258E-01
  1.68714478E-01  8.00000000E-01  3.04752488E+03  4.57369518E+02  1.03948685E+02
  2.92101553E+01  9.28666296E+00  3.16392696E+00  7.86827235E+00  1.88128854E+00
  5.44249258E-01  1.68714478E-01  8.00000000E-01  3.04752488E+03  4.57369518E+02
  1.03948685E+02  2.92101553E+01  9.28666296E+00  3.16392696E+00  7.86827235E+00
  1.88128854E+00  5.44249258E-01  1.68714478E-01  8.00000000E-01  3.04752488E+03
  4.57369518E+02  1.03948685E+02  2.92101553E+01  9.28666296E+00  3.16392696E+00
  7.86827235E+00  1.88128854E+00  5.44249258E-01  1.68714478E-01  8.00000000E-01
  3.04752488E+03  4.57369518E+02  1.03948685E+02  2.92101553E+01  9.28666296E+00
  3.16392696E+00  7.86827235E+00  1.88128854E+00  5.44249258E-01  1.68714478E-01
  8.00000000E-01  1.87311370E+01  2.82539436E+00  6.40121692E-01  1.61277759E-01
  1.87311370E+01  2.82539436E+00  6.40121692E-01  1.61277759E-01  1.87311370E+01
  2.82539436E+00  6.40121692E-01  1.61277759E-01  1.87311370E+01  2.82539436E+00
  6.40121692E-01  1.61277759E-01  1.87311370E+01  2.82539436E+00  6.40121692E-01
  1.61277759E-01  1.87311370E+01  2.82539436E+00  6.40121692E-01  1.61277759E-01
  1.87311370E+01  2.82539436E+00  6.40121692E-01  1.61277759E-01  1.87311370E+01
  2.82539436E+00  6.40121692E-01  1.61277759E-01  1.87311370E+01  2.82539436E+00
  6.40121692E-01  1.61277759E-01  1.87311370E+01  2.82539436E+00  6.40121692E-01
  1.61277759E-01  1.87311370E+01  2.82539436E+00  6.40121692E-01  1.61277759E-01
  1.87311370E+01  2.82539436E+00  6.40121692E-01  1.61277759E-01
Contraction coefficients                   R   N=         114
  1.83477216E-03  1.39946270E-02  6.85865518E-02  2.32240873E-01  4.69069948E-01
  3.60455199E-01 -1.14961182E-01 -1.69117479E-01  1.14585195E+00  1.00000000E+00
  1.00000000E+00  1.83473713E-03  1.40373228E-02  6.88426223E-02  2.32184443E-01
  4.67941348E-01  3.62311985E-01 -1.19332420E-01 -1.60854152E-01  1.14345644E+00
  1.00000000E+00  1.00000000E+00  1.83473713E-03  1.40373228E-02  6.88426223E-02
  2.32184443E-01  4.67941348E-01  3.62311985E-01 -1.19332420E-01 -1.60854152E-01
  1.14345644E+00  1.00000000E+00  1.00000000E+00  1.83473713E-03  1.40373228E-02
  6.88426223E-02  2.32184443E-01  4.67941348E-01  3.62311985E-01 -1.19332420E-01
 -1.60854152E-01  1.14345644E+00  1.00000000E+00  1.00000000E+00  1.83473713E-03
  1.40373228E-02  6.88426223E-02  2.32184443E-01  4.67941348E-01  3.62311985E-01
 -1.19332420E-01 -1.60854152E-01  1.14345644E+00  1.00000000E+00  1.00000000E+00
  1.83473713E-03  1.40373228E-02  6.88426223E-02  2.32184443E-01  4.67941348E-01
  3.62311985E-01 -1.19332420E-01 -1.60854152E-01  1.14345644E+00  1.00000000E+00
  1.00000000E+00  3.34946043E-02  2.34726953E-01  8.13757326E-01  1.00000000E+00
  3.34946043E-02  2.34726953E-01  8.13757326E-01  1.00000000E+00  3.34946043E-02
  2.34726953E-01  8.13757326E-01  1.00000000E+00  3.34946043E-02  2.34726953E-01
  8.13757326E-01  1.00000000E+00  3.34946043E-02  2.34726953E-01  8.13757326E-01
  1.00000000E+00  3.34946043E-02  2.34726953E-01  8.13757326E-01  1.00000000E+00
  3.34946043E-02  2.34726953E-01  8.13757326E-01  1.00000000E+00  3.34946043E-02
  2.34726953E-01  8.13757326E-01  1.00000000E+00  3.34946043E-02  2.34726953E-01
  8.13757326E-01  1.00000000E+00  3.34946043E-02  2.34726953E-01  8.13757326E-01
  1.00000000E+00  3.34946043E-02  2.34726953E-01  8.13757326E-01  1.00000000E+00
  3.34946043E-02  2.34726953E-01  8.13757326E-01  1.00000000E+00
P(S=P) Contraction coefficients            R   N=         114
  0.00000000E+00  0.00000000E+00  0.00000000E+00  0.00000000E+00  0.00000000E+00
  0.00000000E+00  6.75797439E-02  3.23907296E-01  7.40895140E-01  1.00000000E+00
  0.00000000E+00  0.00000000E+00  0.00000000E+00  0.00000000E+00  0.00000000E+00
  0.00000000E+00  0.00000000E+00  6.89990666E-02  3.16423961E-01  7.44308291E-01
  1.00000000E+00  0.00000000E+00  0.00000000E+00  0.00000000E+00  0.00000000E+00
  0.00000000E+00  0.00000000E+00  0.00000000E+00  6.89990666E-02  3.16423961E-01
  7.44308291E-01  1.00000000E+00  0.00000000E+00  0.00000000E+00  0.00000000E+00
  0.00000000E+00  0.00000000E+00  0.00000000E+00  0.00000000E+00  6.89990666E-02
  3.16423961E-01  7.44308291E-01  1.00000000E+00  0.00000000E+00  0.00000000E+00
  0.00000000E+00  0.00000000E+00  0.00000000E+00  0.00000000E+00  0.00000000E+00
  6.89990666E-02  3.16423961E-01  7.44308291E-01  1.00000000E+00  0.00000000E+00
  0.00000000E+00  0.00000000E+00  0.00000000E+00  0.00000000E+00  0.00000000E+00
  0.00000000E+00  6.89990666E-02  3.16423961E-01  7.44308291E-01  1.00000000E+00
  0.00000000E+00  0.00000000E+00  0.00000000E+00  0.00000000E+00  0.00000000E+00
  0.00000000E+00  0.00000000E+00  0.00000000E+00  0.00000000E+00  0.00000000E+00
  0.00000000E+00  0.00000000E+00  0.00000000E+00  0.00000000E+00  0.00000000E+00
  0.00000000E+00  0.00000000E+00  0.00000000E+00  0.00000000E+00  0.00000000E+00
  0.00000000E+00  0.00000000E+00  0.00000000E+00  0.00000000E+00  0.00000000E+00
  0.00000000E+00  0.00000000E+00  0.00000000E+00  0.00000000E+00  0.00000000E+00
  0.00000000E+00  0.00000000E+00  0.00000000E+00  0.00000000E+00  0.00000000E+00
  0.00000000E+00  0.00000000E+00  0.00000000E+00  0.00000000E+00  0.00000000E+00
  0.00000000E+00  0.00000000E+00  0.00000000E+00  0.00000000E+00  0.00000000E+00
  0.00000000E+00  0.00000000E+00  0.00000000E+00  0.00000000E+00
Coordinates of each shell                  R   N=         144
 -2.77490369E+00 -1.37124030E+00  3.18725401E-02 -2.77490369E+00 -1.37124030E+00
  3.18725401E-02 -2.77490369E+00 -1.37124030E+00  3.18725401E-02 -2.77490369E+00
 -1.37124030E+00  3.18725401E-02  1.47207127E+00  4.76215611E-02 -7.08761411E-01
  1.47207127E+00  4.76215611E-02 -7.08761411E-01  1.47207127E+00  4.76215611E-02
 -7.08761411E-01  1.47207127E+00  4.76215611E-02 -7.08761411E-01 -2.72008966E-02
 -2.22503587E+00  2.28795947E-01 -2.72008966E-02 -2.22503587E+00  2.28795947E-01
 -2.72008966E-02 -2.22503587E+00  2.28795947E-01 -2.72008966E-02 -2.22503587E+00
  2.28795947E-01 -5.46483735E-02  2.25846906E+00  3.64485394E-01 -5.46483735E-02
  2.25846906E+00  3.64485394E-01 -5.46483735E-02  2.25846906E+00  3.64485394E-01
 -5.46483735E-02  2.25846906E+00  3.64485394E-01 -2.79282212E+00  1.52626967E+00
 -1.33670759E-01 -2.79282212E+00  1.52626967E+00 -1.33670759E-01 -2.79282212E+00
  1.52626967E+00 -1.33670759E-01 -2.79282212E+00  1.52626967E+00 -1.33670759E-01
  4.23057649E+00 -2.26996165E-02  1.12059160E-01  4.23057649E+00 -2.26996165E-02
  1.12059160E-01  4.23057649E+00 -2.26996165E-02  1.12059160E-01  4.23057649E+00
 -2.26996165E-02  1.12059160E-01  1.37271552E+00  1.03722029E-01 -2.78100866E+00
  1.37271552E+00  1.03722029E-01 -2.78100866E+00  2.16373568E-01 -3.96408216E+00
 -8.52980954E-01  2.16373568E-01 -3.96408216E+00 -8.52980954E-01  3.51664357E-01
 -2.59667434E+00  2.22455525E+00  3.51664357E-01 -2.59667434E+00  2.22455525E+00
  4.06509437E-01  4.06179606E+00 -5.29884463E-01  4.06509437E-01  4.06179606E+00
 -5.29884463E-01  2.99249535E-01  2.44633777E+00  2.39590268E+00  2.99249535E-01
  2.44633777E+00  2.39590268E+00 -3.80879065E+00 -1.99557180E+00  1.55066827E+00
 -3.80879065E+00 -1.99557180E+00  1.55066827E+00 -3.61768239E+00 -2.14035367E+00
 -1.53721548E+00 -3.61768239E+00 -2.14035367E+00 -1.53721548E+00 -4.16434762E+00
  2.25453522E+00  1.22108402E+00 -4.16434762E+00  2.25453522E+00  1.22108402E+00
 -3.39893771E+00  2.01415844E+00 -2.04271625E+00 -3.39893771E+00  2.01415844E+00
 -2.04271625E+00  5.19730752E+00 -1.68114888E+00 -6.50540805E-01  5.19730752E+00
 -1.68114888E+00 -6.50540805E-01  5.22055459E+00  1.65420654E+00 -5.72247118E-01
  5.22055459E+00  1.65420654E+00 -5.72247118E-01  4.38185148E+00 -6.59919440E-02
  2.17382575E+00  4.38185148E+00 -6.59919440E-02  2.17382575E+00
Constraint Structure                       R   N=          54
 -2.77490369E+00 -1.37124030E+00  3.18725401E-02  1.47207127E+00  4.76215611E-02
 -7.08761411E-01 -2.72008966E-02 -2.22503587E+00  2.28795947E-01 -5.46483735E-02
  2.25846906E+00  3.64485394E-01 -2.79282212E+00  1.52626967E+00 -1.33670759E-01
  4.23057649E+00 -2.26996165E-02  1.12059160E-01  1.37271552E+00  1.03722029E-01
 -2.78100866E+00  2.16373568E-01 -3.96408216E+00 -8.52980954E-01  3.51664357E-01
 -2.59667434E+00  2.22455525E+00  4.06509437E-01  4.06179606E+00 -5.29884463E-01
  2.99249535E-01  2.44633777E+00  2.39590268E+00 -3.80879065E+00 -1.99557180E+00
  1.55066827E+00 -3.61768239E+00 -2.14035367E+00 -1.53721548E+00 -4.16434762E+00
  2.25453522E+00  1.22108402E+00 -3.39893771E+00  2.01415844E+00 -2.04271625E+00
  5.19730752E+00 -1.68114888E+00 -6.50540805E-01  5.22055459E+00  1.65420654E+00
 -5.72247118E-01  4.38185148E+00 -6.59919440E-02  2.17382575E+00
Num ILSW                                   I              100
ILSW                                       I   N=         100
           0           1           0           0           2           0
           0           0           0           0           0          -1
           0           0           0           0           0           0
           0           0           0           0           1           0
           1           0           0           0           0           0
           0           0      100000           0          -1           0
           0           0           0           0           0           0
           0           0           0           1           1           0
           0           0           1           0           0           0
           0           0           4          40           0           0
           0           0           0           0           0           0
           0           0           0           0           0           0
           0           0           0           0           0           0
           0           0           0           0           0           0
           0           0           0           0           0           0
           0           0           0           0           0           0
           0           0           0           0
Num RLSW                                   I               40
RLSW                                       R   N=          40
  1.00000000E+00  1.00000000E+00  1.00000000E+00  1.00000000E+00  1.00000000E+00
  0.00000000E+00  0.00000000E+00  1.00000000E+00  0.00000000E+00  0.00000000E+00
  0.00000000E+00  0.00000000E+00  1.00000000E+00  0.00000000E+00  0.00000000E+00
  0.00000000E+00  0.00000000E+00  1.00000000E+00  0.00000000E+00  0.00000000E+00
  0.00000000E+00  0.00000000E+00  1.00000000E+00  0.00000000E+00  0.00000000E+00
  0.00000000E+00  0.00000000E+00  1.00000000E+00  0.00000000E+00  0.00000000E+00
  0.00000000E+00  0.00000000E+00  0.00000000E+00  0.00000000E+00  0.00000000E+00
  0.00000000E+00  0.00000000E+00  0.00000000E+00  1.00000000E+00  1.00000000E+00
MxBond                                     I                4
NBond                                      I   N=          18
           4           4           4           4           4           4
           1           1           1           1           1           1
           1           1           1           1           1           1
IBond                                      I   N=          72
           3           5          12          13           3           4
           6           7           1           2           8           9
           2           5          10          11           1           4
          14          15           2          16          17          18
           2           0           0           0           3           0
           0           0           3           0           0           0
           4           0           0           0           4           0
           0           0           1           0           0           0
           1           0           0           0           5           0
           0           0           5           0           0           0
           6           0           0           0           6           0
           0           0           6           0           0           0
RBond                                      R   N=          72
  1.00000000E+00  1.00000000E+00  1.00000000E+00  1.00000000E+00  1.00000000E+00
  1.00000000E+00  1.00000000E+00  1.00000000E+00  1.00000000E+00  1.00000000E+00
  1.00000000E+00  1.00000000E+00  1.00000000E+00  1.00000000E+00  1.00000000E+00
  1.00000000E+00  1.00000000E+00  1.00000000E+00  1.00000000E+00  1.00000000E+00
  1.00000000E+00  1.00000000E+00  1.00000000E+00  1.00000000E+00  1.00000000E+00
  0.00000000E+00  0.00000000E+00  0.00000000E+00  1.00000000E+00  0.00000000E+00
  0.00000000E+00  0.00000000E+00  1.00000000E+00  0.00000000E+00  0.00000000E+00
  0.00000000E+00  1.00000000E+00  0.00000000E+00  0.00000000E+00  0.00000000E+00
  1.00000000E+00  0.00000000E+00  0.00000000E+00  0.00000000E+00  1.00000000E+00
  0.00000000E+00  0.00000000E+00  0.00000000E+00  1.00000000E+00  0.00000000E+00
  0.00000000E+00  0.00000000E+00  1.00000000E+00  0.00000000E+00  0.00000000E+00
  0.00000000E+00  1.00000000E+00  0.00000000E+00  0.00000000E+00  0.00000000E+00
  1.00000000E+00  0.00000000E+00  0.00000000E+00  0.00000000E+00  1.00000000E+00
  0.00000000E+00  0.00000000E+00  0.00000000E+00  1.00000000E+00  0.00000000E+00
  0.00000000E+00  0.00000000E+00
Virial Ratio                               R      2.001584059139148E+00
SCF Energy                                 R     -2.505652390310498E+02
MP2 Energy                                 R     -2.513769616179336E+02
Total Energy                               R     -2.513769616179336E+02
Post-SCF wavefunction norm                 R      1.589427199123320E+00
RMS Force                                  R      3.816584875872390E-07
RMS Density                                R      5.876336629577492E-10
External E-field                           R   N=          35
  0.00000000E+00  0.00000000E+00  0.00000000E+00  0.00000000E+00  0.00000000E+00
  0.00000000E+00  0.00000000E+00  0.00000000E+00  0.00000000E+00  0.00000000E+00
  0.00000000E+00  0.00000000E+00  0.00000000E+00  0.00000000E+00  0.00000000E+00
  0.00000000E+00  0.00000000E+00  0.00000000E+00  0.00000000E+00  0.00000000E+00
  0.00000000E+00  0.00000000E+00  0.00000000E+00  0.00000000E+00  0.00000000E+00
  0.00000000E+00  0.00000000E+00  0.00000000E+00  0.00000000E+00  0.00000000E+00
  0.00000000E+00  0.00000000E+00  0.00000000E+00  0.00000000E+00  0.00000000E+00
IOpCl                                      I                0
IROHF                                      I                0
Alpha Orbital Energies                     R   N=         114
 -1.58750241E+01 -1.14672978E+01 -1.14636545E+01 -1.14053569E+01 -1.13990176E+01
 -1.13609287E+01 -1.49808820E+00 -1.26791884E+00 -1.19745813E+00 -1.10087228E+00
 -1.02640359E+00 -9.78650314E-01 -9.38429763E-01 -8.95998241E-01 -8.30635891E-01
 -7.94322915E-01 -7.57097628E-01 -7.41496639E-01 -7.13885880E-01 -7.05800320E-01
 -6.81274497E-01 -6.56413758E-01 -6.39019303E-01 -6.30065939E-01 -5.42320103E-03
  3.10004715E-02  6.69403757E-02  1.00190876E-01  1.17670756E-01  1.28561942E-01
  1.31659523E-01  1.42471294E-01  1.55666464E-01  1.69588939E-01  1.80907980E-01
  1.93128753E-01  2.01048399E-01  2.17584152E-01  2.44875906E-01  2.68101831E-01
  2.74665839E-01  2.82105829E-01  5.14840852E-01  5.42377841E-01  5.51757757E-01
  5.71828489E-01  5.88401008E-01  6.03271792E-01  6.94685492E-01  7.00541359E-01
  7.41397966E-01  7.58268926E-01  7.73398742E-01  7.90135194E-01  8.17888549E-01
  8.35330492E-01  8.70188747E-01  9.11783597E-01  9.24487684E-01  9.33027843E-01
  9.46804120E-01  9.64610133E-01  9.70673664E-01  9.75088583E-01  9.92736497E-01
  1.00739026E+00  1.02386541E+00  1.04012008E+00  1.04450440E+00  1.06221465E+00
  1.09220404E+00  1.11497187E+00  1.26546544E+00  1.36526763E+00  1.37758632E+00
  1.43345871E+00  1.50022809E+00  1.67804806E+00  1.69622602E+00  1.80211606E+00
  1.85732773E+00  1.88317941E+00  1.89005909E+00  1.98483512E+00  1.99933611E+00
  2.01571789E+00  2.04568856E+00  2.08453182E+00  2.11884874E+00  2.15249003E+00
  2.17770960E+00  2.20419580E+00  2.24578027E+00  2.28491208E+00  2.33537329E+00
  2.36376898E+00  2.39918112E+00  2.46673012E+00  2.50310397E+00  2.55866623E+00
  2.61864594E+00  2.66550061E+00  2.72956902E+00  2.78608424E+00  2.79215295E+00
  2.82941428E+00  2.92700721E+00  3.01280075E+00  4.09413842E+00  4.44427460E+00
  4.47401158E+00  4.58725148E+00  4.74283072E+00  4.86843481E+00
Alpha MO coefficients                      R   N=       12996
  9.95039980E-01  2.52326108E-02 -1.49085942E-04 -1.17853537E-04 -1.29596977E-05
 -3.59038950E-03 -4.84700973E-04 -3.12378111E-04  1.84860136E-05 -3.37747910E-03
 -3.39737642E-03 -3.24726855E-03  4.06823878E-05 -1.33808822E-05  1.18798266E-05
  3.88638980E-06  2.55172047E-05  3.79968985E-05  4.15136129E-05 -3.99363153E-06
 -4.20879296E-04  8.58718288E-05  2.38968728E-04 -1.33921040E-04 -1.10149937E-05
 -4.15934192E-06 -1.64196779E-05 -2.05871699E-05  1.88613026E-07  6.78837364E-06
 -3.88222013E-05 -4.30397007E-05 -2.94060256E-04  8.12147153E-05 -2.72407860E-05
  1.92593226E-03 -5.38871445E-04  4.58461874E-04 -4.62108977E-05 -4.01107734E-06
 -7.47707512E-05 -1.08169164E-04 -4.39260787E-05  8.48704239E-06 -1.55716655E-05
  1.00618498E-05  5.40301975E-05  5.70623907E-05  1.71068450E-05  2.97383424E-06
 -5.97458925E-04  1.90458961E-04  2.16632991E-04  8.54001319E-05 -6.95583818E-06
  7.07400843E-06 -1.03476828E-05 -1.86320684E-05  7.47473026E-07 -8.12070572E-06
 -3.87474796E-05 -4.02310401E-05 -2.18330487E-06 -3.14848325E-04  2.67423363E-05
  1.86566547E-03  2.68782549E-04 -5.89566845E-04  4.20651804E-06 -8.53464257E-05
  1.08047177E-05 -1.06545186E-04 -1.75944876E-05  9.41722905E-06 -1.25823546E-05
 -5.01344129E-06 -2.35276740E-05 -2.81067272E-06  7.76925477E-06  1.92959965E-06
  1.26474228E-04 -9.50508241E-05 -9.24944518E-05  3.18960986E-06  8.23942085E-06
 -9.77320201E-06 -8.82449360E-06  3.59739588E-06 -1.59386827E-06  1.22143083E-05
  2.29516972E-05 -8.97160994E-05 -8.41937746E-05 -8.22106386E-05 -1.04845588E-04
 -1.71428763E-04  1.06001407E-05  5.34157529E-06  4.03828919E-05 -5.55152809E-05
  3.49128825E-04  3.75883171E-04  3.61252334E-04  3.84507622E-04 -8.54116829E-05
 -1.01345294E-04 -1.06863470E-04 -1.63652464E-04 -2.54443843E-05  1.11489069E-05
  9.45240380E-06  1.60722946E-05 -1.19587684E-05  9.35943180E-06 -1.90155376E-04
  9.01744177E-05  1.64613772E-05  1.00640605E-04 -1.16829482E-06  3.35733563E-03
 -1.72336785E-04  1.11297513E-03 -1.72578136E-04 -1.61365569E-04 -7.50302381E-04
 -6.16307606E-06 -1.92118554E-06 -1.52782592E-05  4.79951917E-05 -1.00555721E-04
 -1.51560579E-04  1.20189979E-04 -2.93208494E-05  6.19217938E-05 -6.39532296E-04
 -1.21011594E-03 -4.23613164E-05 -8.57382776E-04  8.72046929E-05 -9.34454923E-06
 -1.67600116E-05 -3.06743017E-05 -1.22857158E-05  1.20119241E-05 -1.90215550E-03
 -2.25395751E-04  5.38673705E-05 -5.22105986E-05 -1.14607281E-05  1.83852843E-04
  2.27428471E-05  1.93239279E-04  3.65731602E-04  3.80677013E-05  3.10207642E-05
 -6.87459171E-05 -2.32621014E-05  1.11019479E-05  1.43971480E-06  4.38722333E-03
  1.12385348E-04 -8.37452564E-05 -4.99508484E-06 -8.09063099E-06  4.31257262E-03
 -1.78414367E-03 -6.01884075E-04 -1.72654900E-04 -3.66033842E-04 -2.09079731E-04
 -1.37242557E-04 -9.52221879E-05 -3.10925615E-05 -6.88733155E-05  9.95890782E-01
  2.81311722E-02  5.22929201E-05 -9.95367583E-04 -3.01308308E-05 -1.62491946E-02
 -1.27221580E-03  1.11340557E-03  2.17799817E-04 -1.50795779E-03 -1.74118256E-03
 -1.39378809E-03 -3.74378533E-05 -5.52673105E-05  2.64348124E-05 -2.82385785E-05
 -1.53511713E-04 -3.05714312E-05 -1.85821298E-05 -1.33505606E-05  1.44043659E-03
 -6.81960204E-04  1.87391451E-04 -8.82215774E-06  1.11030394E-05 -4.33328120E-05
 -5.10821692E-05 -1.08440598E-05 -7.52244015E-06 -1.04055750E-05 -1.31451285E-04
 -2.89640669E-04  4.54129181E-05  1.19863597E-04 -3.62408639E-05 -1.91864360E-04
 -1.30050091E-04 -4.06653419E-05 -1.98806399E-04 -2.22133766E-05 -1.80276240E-04
  1.38874153E-04 -1.87819642E-04  8.34001053E-05  1.46658413E-04  2.28146878E-03
  2.55095549E-04  2.79102647E-03 -3.11092020E-05  9.36656613E-05 -7.42768519E-05
 -9.54683317E-06 -5.59762735E-05 -1.07716224E-04 -1.95440244E-04  8.77825211E-05
  8.66548134E-05 -1.38716045E-05 -8.68193135E-06  3.42067204E-03  1.03162176E-03
 -3.53504468E-04  2.00899269E-04 -7.21198892E-04 -1.98984221E-04 -1.25960724E-05
  2.11075139E-04 -5.12929281E-05  2.43581176E-05  5.21322538E-03  2.20972693E-04
 -5.53563985E-05 -1.21459137E-04  3.96547941E-05  3.45285239E-03 -1.11246865E-03
 -1.59088099E-03  2.01582194E-04 -2.55061335E-04 -2.86545323E-04 -1.39101591E-04
 -9.08168641E-05  8.61646011E-05  3.89229232E-05  9.95885119E-01  2.81889969E-02
 -9.41125521E-04  3.34372235E-04  4.07814619E-05 -1.62160081E-02  5.86640182E-04
 -1.54744610E-03 -7.80896130E-05 -1.70342157E-03 -1.48149035E-03 -1.43213038E-03
  3.75810061E-05  5.08509712E-06  8.36788529E-05 -1.29928171E-04 -3.51456733E-04
 -7.09331505E-06  9.16551797E-05 -5.27223015E-05  7.70174207E-04 -6.69790273E-05
 -9.36245416E-04  5.75926022E-04 -7.61273312E-05  1.10413592E-04 -7.02265774E-05
  2.17966582E-05 -1.36688098E-05 -2.07801888E-05  1.86760870E-03 -9.41920105E-05