
    -----------------------------------------------------------------------
          Psi4: An Open-Source Ab Initio Electronic Structure Package
                               Psi4 1.3.2 release

                         Git: Rev {HEAD} ecbda83 


    R. M. Parrish, L. A. Burns, D. G. A. Smith, A. C. Simmonett,
    A. E. DePrince III, E. G. Hohenstein, U. Bozkaya, A. Yu. Sokolov,
    R. Di Remigio, R. M. Richard, J. F. Gonthier, A. M. James,
    H. R. McAlexander, A. Kumar, M. Saitow, X. Wang, B. P. Pritchard,
    P. Verma, H. F. Schaefer III, K. Patkowski, R. A. King, E. F. Valeev,
    F. A. Evangelista, J. M. Turney, T. D. Crawford, and C. D. Sherrill,
    J. Chem. Theory Comput. 13(7) pp 3185--3197 (2017).
    (doi: 10.1021/acs.jctc.7b00174)


                         Additional Contributions by
    P. Kraus, H. Kruse, M. H. Lechner, M. C. Schieber, R. A. Shaw,
    A. Alenaizan, R. Galvelis, Z. L. Glick, S. Lehtola, and J. P. Misiewicz

    -----------------------------------------------------------------------


    Psi4 started on: Friday, 06 November 2020 06:28AM

    Process ID: 9465
    Host:       node37.bme.utexas.edu
    PSIDATADIR: /home/xy3866/psi4conda/share/psi4
    Memory:     500.0 MiB
    Threads:    8
    
  ==> Input File <==

--------------------------------------------------------------------------
#psi4
#
memory 32 gb

molecule  {
0 1
  O        0.0000100    -1.3813680    -0.3010540
  C        1.1670970    -0.7307880     0.2026760
  C        1.1670830     0.7308060    -0.2026730
  O       -0.0000090     1.3813690     0.3010510
  C       -1.1670960     0.7307910    -0.2026650
  C       -1.1670820    -0.7308090     0.2026660
  H        1.1827784    -0.7981826     1.3012410
  H        2.0246160    -1.2633060    -0.2188690
  H        2.0245970     1.2633380     0.2188660
  H        1.1989010     0.8085710    -1.3002050
  H       -1.1989250     0.8085650    -1.3001950
  H       -2.0246200     1.2632970     0.2188880
  H       -2.0246020    -1.2633280    -0.2188810
  H       -1.1989070    -0.8085810     1.3001960
units angstrom
no_reorient  #important for SAPT in psi4, default
symmetry c1  #important for SAPT in psi4, default
}

set PROPERTIES_ORIGIN ["COM"]
properties('MP2/aug-cc-pvtz', properties = ['dipole'])
--------------------------------------------------------------------------

  Memory set to  29.802 GiB by Python driver.
    SCF Algorithm Type (re)set to DF.

*** tstart() called on node37.bme.utexas.edu
*** at Fri Nov  6 06:28:51 2020

   => Loading Basis Set <=

    Name: AUG-CC-PVTZ
    Role: ORBITAL
    Keyword: BASIS
    atoms 1, 4     entry O          line   327 file /home/xy3866/psi4conda/share/psi4/basis/aug-cc-pvtz.gbs 
    atoms 2-3, 5-6 entry C          line   235 file /home/xy3866/psi4conda/share/psi4/basis/aug-cc-pvtz.gbs 
    atoms 7-14     entry H          line    36 file /home/xy3866/psi4conda/share/psi4/basis/aug-cc-pvtz.gbs 


         ---------------------------------------------------------
                                   SCF
               by Justin Turney, Rob Parrish, Andy Simmonett
                          and Daniel G. A. Smith
                              RHF Reference
                        8 Threads,  30517 MiB Core
         ---------------------------------------------------------

  ==> Geometry <==

    Molecular point group: c1
    Full point group: C1

    Geometry (in Angstrom), charge = 0, multiplicity = 1:

       Center              X                  Y                   Z               Mass       
    ------------   -----------------  -----------------  -----------------  -----------------
         O            0.000194527221    -1.381486912870    -0.301065915186    15.994914619570
         C            1.167281527221    -0.730906912870     0.202664084814    12.000000000000
         C            1.167267527221     0.730687087130    -0.202684915186    12.000000000000
         O            0.000175527221     1.381250087130     0.301039084814    15.994914619570
         C           -1.166911472779     0.730672087130    -0.202676915186    12.000000000000
         C           -1.166897472779    -0.730927912870     0.202654084814    12.000000000000
         H            1.182962927221    -0.798301512870     1.301229084814     1.007825032230
         H            2.024800527221    -1.263424912870    -0.218880915186     1.007825032230
         H            2.024781527221     1.263219087130     0.218854084814     1.007825032230
         H            1.199085527221     0.808452087130    -1.300216915186     1.007825032230
         H           -1.198740472779     0.808446087130    -1.300206915186     1.007825032230
         H           -2.024435472779     1.263178087130     0.218876084814     1.007825032230
         H           -2.024417472779    -1.263446912870    -0.218892915186     1.007825032230
         H           -1.198722472779    -0.808699912870     1.300184084814     1.007825032230

  Running in c1 symmetry.

  Rotational constants: A =      0.16954  B =      0.15665  C =      0.09187 [cm^-1]
  Rotational constants: A =   5082.79097  B =   4696.30832  C =   2754.04362 [MHz]
  Nuclear repulsion =  264.281460942174817

  Charge       = 0
  Multiplicity = 1
  Electrons    = 48
  Nalpha       = 24
  Nbeta        = 24

  ==> Algorithm <==

  SCF Algorithm Type is DF.
  DIIS enabled.
  MOM disabled.
  Fractional occupation disabled.
  Guess Type is SAD.
  Energy threshold   = 1.00e-10
  Density threshold  = 1.00e-10
  Integral threshold = 0.00e+00

  ==> Primary Basis <==

  Basis Set: AUG-CC-PVTZ
    Blend: AUG-CC-PVTZ
    Number of shells: 156
    Number of basis function: 460
    Number of Cartesian functions: 530
    Spherical Harmonics?: true
    Max angular momentum: 3

   => Loading Basis Set <=

    Name: (AUG-CC-PVTZ AUX)
    Role: JKFIT
    Keyword: DF_BASIS_SCF
    atoms 1, 4     entry O          line   286 file /home/xy3866/psi4conda/share/psi4/basis/aug-cc-pvtz-jkfit.gbs 
    atoms 2-3, 5-6 entry C          line   162 file /home/xy3866/psi4conda/share/psi4/basis/aug-cc-pvtz-jkfit.gbs 
    atoms 7-14     entry H          line    70 file /home/xy3866/psi4conda/share/psi4/basis/aug-cc-pvtz-jkfit.gbs 

  ==> Pre-Iterations <==

   -------------------------------------------------------
    Irrep   Nso     Nmo     Nalpha   Nbeta   Ndocc  Nsocc
   -------------------------------------------------------
     A        460     460       0       0       0       0
   -------------------------------------------------------
    Total     460     460      24      24      24       0
   -------------------------------------------------------

  ==> Integral Setup <==

  DFHelper Memory: AOs need 1.614 GiB; user supplied 22.352 GiB. Using in-core AOs.

  ==> MemDFJK: Density-Fitted J/K Matrices <==

    J tasked:                   Yes
    K tasked:                   Yes
    wK tasked:                   No
    OpenMP threads:               8
    Memory [MiB]:             22888
    Algorithm:                 Core
    Schwarz Cutoff:           1E-12
    Mask sparsity (%):       0.8214
    Fitting Condition:        1E-10

   => Auxiliary Basis Set <=

  Basis Set: (AUG-CC-PVTZ AUX)
    Blend: AUG-CC-PVTZ-JKFIT
    Number of shells: 292
    Number of basis function: 992
    Number of Cartesian functions: 1226
    Spherical Harmonics?: true
    Max angular momentum: 4

  Minimum eigenvalue in the overlap matrix is 3.5172540725E-06.
  Using Symmetric Orthogonalization.

  SCF Guess: Superposition of Atomic Densities via on-the-fly atomic UHF.

  ==> Iterations <==

                           Total Energy        Delta E     RMS |[F,P]|

   @DF-RHF iter SAD:  -305.46274040793242   -3.05463e+02   0.00000e+00 
   @DF-RHF iter   1:  -305.77982386777080   -3.17083e-01   1.11095e-03 DIIS
   @DF-RHF iter   2:  -305.91247389723861   -1.32650e-01   5.45508e-04 DIIS
   @DF-RHF iter   3:  -305.93756258378085   -2.50887e-02   1.43006e-04 DIIS
   @DF-RHF iter   4:  -305.94018777513452   -2.62519e-03   3.62488e-05 DIIS
   @DF-RHF iter   5:  -305.94035786498875   -1.70090e-04   1.15091e-05 DIIS
   @DF-RHF iter   6:  -305.94037441238646   -1.65474e-05   2.37535e-06 DIIS
   @DF-RHF iter   7:  -305.94037571016696   -1.29778e-06   5.10657e-07 DIIS
   @DF-RHF iter   8:  -305.94037577706558   -6.68986e-08   1.26318e-07 DIIS
   @DF-RHF iter   9:  -305.94037578212658   -5.06100e-09   2.80601e-08 DIIS
   @DF-RHF iter  10:  -305.94037578237356   -2.46985e-10   5.54223e-09 DIIS
   @DF-RHF iter  11:  -305.94037578237953   -5.96856e-12   2.48297e-09 DIIS
   @DF-RHF iter  12:  -305.94037578238255   -3.01270e-12   7.54394e-10 DIIS
   @DF-RHF iter  13:  -305.94037578238186    6.82121e-13   2.28908e-10 DIIS
   @DF-RHF iter  14:  -305.94037578238090    9.66338e-13   7.73964e-11 DIIS
  Energy and wave function converged.


  ==> Post-Iterations <==

    Orbital Energies [Eh]
    ---------------------

    Doubly Occupied:                                                      

       1A    -20.561389     2A    -20.561150     3A    -11.278357  
       4A    -11.278317     5A    -11.277700     6A    -11.277627  
       7A     -1.396484     8A     -1.354292     9A     -1.046121  
      10A     -0.951972    11A     -0.888013    12A     -0.798490  
      13A     -0.696968    14A     -0.650600    15A     -0.649361  
      16A     -0.636551    17A     -0.633318    18A     -0.554677  
      19A     -0.553971    20A     -0.512014    21A     -0.511088  
      22A     -0.461097    23A     -0.459813    24A     -0.398367  

    Virtual:                                                              

      25A      0.031211    26A      0.035365    27A      0.038994  
      28A      0.044477    29A      0.053289    30A      0.056199  
      31A      0.056502    32A      0.080244    33A      0.089684  
      34A      0.096091    35A      0.112371    36A      0.113626  
      37A      0.120501    38A      0.127212    39A      0.133985  
      40A      0.136808    41A      0.138577    42A      0.139216  
      43A      0.148754    44A      0.161643    45A      0.164061  
      46A      0.171900    47A      0.188626    48A      0.202460  
      49A      0.212832    50A      0.215603    51A      0.224022  
      52A      0.247800    53A      0.254329    54A      0.266217  
      55A      0.267379    56A      0.271192    57A      0.281835  
      58A      0.291089    59A      0.297061    60A      0.302329  
      61A      0.303584    62A      0.316395    63A      0.323413  
      64A      0.323663    65A      0.336145    66A      0.342096  
      67A      0.350436    68A      0.353690    69A      0.360117  
      70A      0.364877    71A      0.377897    72A      0.378018  
      73A      0.381059    74A      0.384141    75A      0.399382  
      76A      0.403263    77A      0.409924    78A      0.423726  
      79A      0.427622    80A      0.435376    81A      0.442939  
      82A      0.455863    83A      0.459792    84A      0.463214  
      85A      0.468285    86A      0.469734    87A      0.480082  
      88A      0.492670    89A      0.496196    90A      0.496526  
      91A      0.498455    92A      0.513854    93A      0.518398  
      94A      0.521132    95A      0.523113    96A      0.536743  
      97A      0.543917    98A      0.548601    99A      0.562334  
     100A      0.563591   101A      0.566616   102A      0.574052  
     103A      0.584169   104A      0.591184   105A      0.591445  
     106A      0.610815   107A      0.626206   108A      0.627814  
     109A      0.650466   110A      0.650759   111A      0.657878  
     112A      0.680729   113A      0.690513   114A      0.696926  
     115A      0.722856   116A      0.723614   117A      0.747763  
     118A      0.768234   119A      0.773900   120A      0.792165  
     121A      0.803849   122A      0.824830   123A      0.833887  
     124A      0.842806   125A      0.847267   126A      0.850229  
     127A      0.856118   128A      0.865331   129A      0.870010  
     130A      0.876531   131A      0.880416   132A      0.914257  
     133A      0.915527   134A      0.917972   135A      0.946238  
     136A      0.948931   137A      0.966644   138A      0.976890  
     139A      0.978021   140A      0.979593   141A      0.980271  
     142A      1.004685   143A      1.014446   144A      1.014987  
     145A      1.021592   146A      1.024825   147A      1.027817  
     148A      1.051125   149A      1.056171   150A      1.083332  
     151A      1.092088   152A      1.094579   153A      1.106331  
     154A      1.108991   155A      1.117937   156A      1.125178  
     157A      1.141838   158A      1.142160   159A      1.155576  
     160A      1.161614   161A      1.165666   162A      1.179752  
     163A      1.186153   164A      1.190662   165A      1.198451  
     166A      1.198883   167A      1.201899   168A      1.207701  
     169A      1.225281   170A      1.234971   171A      1.248484  
     172A      1.276414   173A      1.277799   174A      1.289127  
     175A      1.307632   176A      1.309743   177A      1.317019  
     178A      1.322322   179A      1.342995   180A      1.365864  
     181A      1.390552   182A      1.416234   183A      1.417896  
     184A      1.424487   185A      1.442964   186A      1.447677  
     187A      1.449936   188A      1.457404   189A      1.467422  
     190A      1.469650   191A      1.518506   192A      1.520192  
     193A      1.524423   194A      1.539799   195A      1.540798  
     196A      1.546330   197A      1.576758   198A      1.603128  
     199A      1.619539   200A      1.620464   201A      1.632493  
     202A      1.661548   203A      1.664325   204A      1.677611  
     205A      1.678801   206A      1.682176   207A      1.683419  
     208A      1.687914   209A      1.704816   210A      1.715400  
     211A      1.724225   212A      1.731759   213A      1.745943  
     214A      1.760906   215A      1.780743   216A      1.796311  
     217A      1.811576   218A      1.824761   219A      1.831490  
     220A      1.858896   221A      1.892988   222A      1.894602  
     223A      1.911604   224A      1.913141   225A      1.915879  
     226A      1.919795   227A      1.921858   228A      1.927804  
     229A      1.947729   230A      1.964409   231A      1.965263  
     232A      1.995080   233A      1.996314   234A      2.008545  
     235A      2.016262   236A      2.057568   237A      2.060557  
     238A      2.086440   239A      2.110751   240A      2.119685  
     241A      2.132814   242A      2.148915   243A      2.150640  
     244A      2.158953   245A      2.179451   246A      2.187924  
     247A      2.220603   248A      2.221589   249A      2.251107  
     250A      2.273711   251A      2.288717   252A      2.321488  
     253A      2.336046   254A      2.344343   255A      2.355276  
     256A      2.377955   257A      2.420345   258A      2.456680  
     259A      2.498479   260A      2.509934   261A      2.551161  
     262A      2.556165   263A      2.607571   264A      2.619502  
     265A      2.657956   266A      2.682232   267A      2.710217  
     268A      2.762311   269A      2.787221   270A      2.804852  
     271A      2.841786   272A      2.882517   273A      2.895535  
     274A      2.911387   275A      2.917397   276A      2.929918  
     277A      2.946097   278A      2.960215   279A      2.967207  
     280A      2.999124   281A      3.021626   282A      3.027508  
     283A      3.086314   284A      3.128269   285A      3.139924  
     286A      3.193328   287A      3.195800   288A      3.248400  
     289A      3.273376   290A      3.290277   291A      3.298611  
     292A      3.344599   293A      3.354092   294A      3.376449  
     295A      3.448614   296A      3.464827   297A      3.500185  
     298A      3.504068   299A      3.543007   300A      3.574896  
     301A      3.606472   302A      3.638136   303A      3.643202  
     304A      3.672181   305A      3.680383   306A      3.696853  
     307A      3.707518   308A      3.734995   309A      3.751424  
     310A      3.764004   311A      3.767809   312A      3.769859  
     313A      3.785317   314A      3.796121   315A      3.866206  
     316A      3.867414   317A      3.870610   318A      3.899525  
     319A      3.919805   320A      3.920261   321A      3.959963  
     322A      3.961076   323A      3.975311   324A      4.004798  
     325A      4.016649   326A      4.029082   327A      4.031753  
     328A      4.041687   329A      4.059234   330A      4.080738  
     331A      4.085469   332A      4.105598   333A      4.121769  
     334A      4.127221   335A      4.134025   336A      4.170564  
     337A      4.216658   338A      4.217981   339A      4.250263  
     340A      4.263506   341A      4.285925   342A      4.321302  
     343A      4.328587   344A      4.332969   345A      4.372848  
     346A      4.382605   347A      4.391994   348A      4.399366  
     349A      4.404887   350A      4.420615   351A      4.439980  
     352A      4.462219   353A      4.488055   354A      4.489882  
     355A      4.509906   356A      4.528436   357A      4.530505  
     358A      4.543798   359A      4.585828   360A      4.623666  
     361A      4.638591   362A      4.682542   363A      4.711088  
     364A      4.743469   365A      4.761287   366A      4.766568  
     367A      4.794664   368A      4.876047   369A      4.877545  
     370A      4.892275   371A      4.920770   372A      4.930152  
     373A      4.957949   374A      4.971058   375A      4.982206  
     376A      5.014941   377A      5.019688   378A      5.057652  
     379A      5.069263   380A      5.092786   381A      5.100858  
     382A      5.157069   383A      5.169969   384A      5.198863  
     385A      5.228622   386A      5.232505   387A      5.247522  
     388A      5.269269   389A      5.322861   390A      5.335076  
     391A      5.362386   392A      5.388869   393A      5.408824  
     394A      5.424925   395A      5.441311   396A      5.447294  
     397A      5.472851   398A      5.480677   399A      5.528440  
     400A      5.552414   401A      5.561789   402A      5.593797  
     403A      5.609432   404A      5.656355   405A      5.660249  
     406A      5.664142   407A      5.733184   408A      5.751956  
     409A      5.788408   410A      5.816343   411A      5.879961  
     412A      5.967197   413A      5.988352   414A      5.999420  
     415A      6.026000   416A      6.045912   417A      6.110541  
     418A      6.172664   419A      6.174241   420A      6.205287  
     421A      6.332807   422A      6.343279   423A      6.370988  
     424A      6.562041   425A      6.712828   426A      6.721998  
     427A      6.728067   428A      6.796555   429A      6.825229  
     430A      6.937071   431A      6.999387   432A      7.058365  
     433A      7.074768   434A      7.094780   435A      7.238501  
     436A      7.240812   437A      7.275313   438A      7.282191  
     439A      7.432066   440A      7.467921   441A      7.484714  
     442A      7.505963   443A      7.586569   444A      7.654898  
     445A      7.747544   446A      7.764783   447A      7.811607  
     448A      7.813857   449A      7.982204   450A      7.986548  
     451A      8.336914   452A      8.353932   453A      8.406248  
     454A      8.488294   455A     15.345643   456A     15.450080  
     457A     17.453876   458A     18.024938   459A     18.535633  
     460A     18.800150  

    Final Occupation by Irrep:
              A 
    DOCC [    24 ]

  @DF-RHF Final Energy:  -305.94037578238090

   => Energetics <=

    Nuclear Repulsion Energy =            264.2814609421748173
    One-Electron Energy =                -941.6681975335690140
    Two-Electron Energy =                 371.4463608090132993
    Total Energy =                       -305.9403757823808974

Computation Completed

*** tstop() called on node37.bme.utexas.edu at Fri Nov  6 06:29:05 2020
Module time:
	user time   =      91.18 seconds =       1.52 minutes
	system time =       6.61 seconds =       0.11 minutes
	total time  =         14 seconds =       0.23 minutes
Total time:
	user time   =      91.18 seconds =       1.52 minutes
	system time =       6.61 seconds =       0.11 minutes
	total time  =         14 seconds =       0.23 minutes
   => Loading Basis Set <=

    Name: (AUG-CC-PVTZ AUX)
    Role: RIFIT
    Keyword: DF_BASIS_MP2
    atoms 1, 4     entry O          line   264 file /home/xy3866/psi4conda/share/psi4/basis/aug-cc-pvtz-ri.gbs 
    atoms 2-3, 5-6 entry C          line   148 file /home/xy3866/psi4conda/share/psi4/basis/aug-cc-pvtz-ri.gbs 
    atoms 7-14     entry H          line    30 file /home/xy3866/psi4conda/share/psi4/basis/aug-cc-pvtz-ri.gbs 


*** tstart() called on node37.bme.utexas.edu
*** at Fri Nov  6 06:29:05 2020


  //>>>>>>>>>>>>>>>>>>>>>>>>>>>>>>>>>>>//
  //               DFMP2               //
  //<<<<<<<<<<<<<<<<<<<<<<<<<<<<<<<<<<<//

	 --------------------------------------------------------
	                          DF-MP2                         
	      2nd-Order Density-Fitted Moller-Plesset Theory     
	              RMP2 Wavefunction,   8 Threads             
	                                                         
	        Rob Parrish, Justin Turney, Andy Simmonett,      
	           Ed Hohenstein, and C. David Sherrill          
	 --------------------------------------------------------

   => Auxiliary Basis Set <=

  Basis Set: (AUG-CC-PVTZ AUX)
    Blend: AUG-CC-PVTZ-RI
    Number of shells: 280
    Number of basis function: 1004
    Number of Cartesian functions: 1256
    Spherical Harmonics?: true
    Max angular momentum: 4

	 --------------------------------------------------------
	                 NBF =   460, NAUX =  1004
	 --------------------------------------------------------
	   CLASS    FOCC     OCC    AOCC    AVIR     VIR    FVIR
	   PAIRS       0      24      24     436     436       0
	 --------------------------------------------------------

  DFHelper Memory: AOs need 1.614 GiB; user supplied 22.352 GiB. Using in-core AOs.


         ------------------------------------------------------------
                                     CPHF                           
                                  Rob Parrish                       
         ------------------------------------------------------------

  ==> Geometry <==

    Molecular point group: c1
    Full point group: C1

    Geometry (in Angstrom), charge = 0, multiplicity = 1:

       Center              X                  Y                   Z               Mass       
    ------------   -----------------  -----------------  -----------------  -----------------
         O            0.000194527221    -1.381486912870    -0.301065915186    15.994914619570
         C            1.167281527221    -0.730906912870     0.202664084814    12.000000000000
         C            1.167267527221     0.730687087130    -0.202684915186    12.000000000000
         O            0.000175527221     1.381250087130     0.301039084814    15.994914619570
         C           -1.166911472779     0.730672087130    -0.202676915186    12.000000000000
         C           -1.166897472779    -0.730927912870     0.202654084814    12.000000000000
         H            1.182962927221    -0.798301512870     1.301229084814     1.007825032230
         H            2.024800527221    -1.263424912870    -0.218880915186     1.007825032230
         H            2.024781527221     1.263219087130     0.218854084814     1.007825032230
         H            1.199085527221     0.808452087130    -1.300216915186     1.007825032230
         H           -1.198740472779     0.808446087130    -1.300206915186     1.007825032230
         H           -2.024435472779     1.263178087130     0.218876084814     1.007825032230
         H           -2.024417472779    -1.263446912870    -0.218892915186     1.007825032230
         H           -1.198722472779    -0.808699912870     1.300184084814     1.007825032230

  Nuclear repulsion =  264.281460942174817
  Reference energy  = -305.940375782380897

  ==> Basis Set <==

  Basis Set: AUG-CC-PVTZ
    Blend: AUG-CC-PVTZ
    Number of shells: 156
    Number of basis function: 460
    Number of Cartesian functions: 530
    Spherical Harmonics?: true
    Max angular momentum: 3

  ==> CGRSolver (by Rob Parrish) <==

   Number of roots    =         1
   Preconditioning    =    JACOBI
   Convergence cutoff =     1E-06
   Maximum iterations =       100

  ==> CPHFRHamiltonian (by Rob Parrish) <== 

  ==> MemDFJK: Density-Fitted J/K Matrices <==

    J tasked:                   Yes
    K tasked:                   Yes
    wK tasked:                   No
    OpenMP threads:               8
    Memory [MiB]:             22888
    Algorithm:                 Core
    Schwarz Cutoff:           1E-12
    Mask sparsity (%):       0.8214
    Fitting Condition:        1E-10

   => Auxiliary Basis Set <=

  Basis Set: (AUG-CC-PVTZ AUX)
    Blend: AUG-CC-PVTZ-JKFIT
    Number of shells: 292
    Number of basis function: 992
    Number of Cartesian functions: 1226
    Spherical Harmonics?: true
    Max angular momentum: 4

  ==> CPHF Iterations <==

  => Iterations <=

             Iter  Converged  Remaining    Residual
  CGR           1          0          1   8.440E-02
  CGR           2          0          1   1.796E-02
  CGR           3          0          1   6.820E-03
  CGR           4          0          1   1.923E-03
  CGR           5          0          1   4.701E-04
  CGR           6          0          1   9.511E-05
  CGR           7          0          1   1.955E-05
  CGR           8          0          1   4.512E-06
  CGR           9          0          1   1.608E-06
  CGR          10          1          0   5.380E-07

    CGRSolver converged.

	-----------------------------------------------------------
	 ==================> DF-MP2 Energies <==================== 
	-----------------------------------------------------------
	 Reference Energy          =    -305.9403757823808974 [Eh]
	 Singles Energy            =      -0.0000000000000000 [Eh]
	 Same-Spin Energy          =      -0.2982809891682410 [Eh]
	 Opposite-Spin Energy      =      -0.9805058569876838 [Eh]
	 Correlation Energy        =      -1.2787868461559249 [Eh]
	 Total Energy              =    -307.2191626285368216 [Eh]
	-----------------------------------------------------------
	 ================> DF-SCS-MP2 Energies <================== 
	-----------------------------------------------------------
	 SCS Same-Spin Scale       =       0.3333333333333333 [-]
	 SCS Opposite-Spin Scale   =       1.2000000000000000 [-]
	 SCS Same-Spin Energy      =      -0.0994269963894137 [Eh]
	 SCS Opposite-Spin Energy  =      -1.1766070283852206 [Eh]
	 SCS Correlation Energy    =      -1.2760340247746342 [Eh]
	 SCS Total Energy          =    -307.2164098071555145 [Eh]
	-----------------------------------------------------------



Properties will be evaluated at   0.000000,   0.000000,   0.000000 [a0]

Properties computed using the MP2 density matrix

  Nuclear Dipole Moment: [e a0]
     X:    -0.0138      Y:     0.0088      Z:     0.0009

  Electronic Dipole Moment: [e a0]
     X:     0.0127      Y:    -0.0077      Z:    -0.0021

  Dipole Moment: [e a0]
     X:    -0.0011      Y:     0.0011      Z:    -0.0012     Total:     0.0020

  Dipole Moment: [D]
     X:    -0.0027      Y:     0.0029      Z:    -0.0031     Total:     0.0050


*** tstop() called on node37.bme.utexas.edu at Fri Nov  6 06:29:52 2020
Module time:
	user time   =     277.35 seconds =       4.62 minutes
	system time =      15.73 seconds =       0.26 minutes
	total time  =         47 seconds =       0.78 minutes
Total time:
	user time   =     368.67 seconds =       6.14 minutes
	system time =      22.34 seconds =       0.37 minutes
	total time  =         61 seconds =       1.02 minutes

    Psi4 stopped on: Friday, 06 November 2020 06:29AM
    Psi4 wall time for execution: 0:01:00.93

*** Psi4 exiting successfully. Buy a developer a beer!
