
    -----------------------------------------------------------------------
          Psi4: An Open-Source Ab Initio Electronic Structure Package
                               Psi4 1.4a3.dev225 

                         Git: Rev {master} 7105e37 


    D. G. A. Smith, L. A. Burns, A. C. Simmonett, R. M. Parrish,
    M. C. Schieber, R. Galvelis, P. Kraus, H. Kruse, R. Di Remigio,
    A. Alenaizan, A. M. James, S. Lehtola, J. P. Misiewicz, M. Scheurer,
    R. A. Shaw, J. B. Schriber, Y. Xie, Z. L. Glick, D. A. Sirianni,
    J. S. O'Brien, J. M. Waldrop, A. Kumar, E. G. Hohenstein,
    B. P. Pritchard, B. R. Brooks, H. F. Schaefer III, A. Yu. Sokolov,
    K. Patkowski, A. E. DePrince III, U. Bozkaya, R. A. King,
    F. A. Evangelista, J. M. Turney, T. D. Crawford, C. D. Sherrill,
    J. Chem. Phys. 152(18) 184108 (2020). https://doi.org/10.1063/5.0006002

                            Additional Code Authors
    E. T. Seidl, C. L. Janssen, E. F. Valeev, M. L. Leininger,
    J. F. Gonthier, R. M. Richard, H. R. McAlexander, M. Saitow, X. Wang,
    P. Verma, and M. H. Lechner

             Previous Authors, Complete List of Code Contributors,
                       and Citations for Specific Modules
    https://github.com/psi4/psi4/blob/master/codemeta.json
    https://github.com/psi4/psi4/graphs/contributors
    http://psicode.org/psi4manual/master/introduction.html#citing-psifour

    -----------------------------------------------------------------------


    Psi4 started on: Saturday, 27 February 2021 01:53PM

    Process ID: 81917
    Host:       c419-063.stampede2.tacc.utexas.edu
    PSIDATADIR: /home1/07844/xy3866/miniconda3/envs/p4env/share/psi4
    Memory:     500.0 MiB
    Threads:    32
    
  ==> Input File <==

--------------------------------------------------------------------------
#psi4
#
memory 32 gb

molecule  {
0 1
  N       -0.5376934     1.1556277    -0.2928558
  N        1.0085960    -0.7184190    -0.0133500
  C       -1.7100270     0.3982770    -0.1243180
  C        0.8049200     0.5981430    -0.1551110
  C        3.4026260    -0.3179870     0.1123840
  C        1.8688800     1.5249980    -0.1805650
  C        3.1641670     1.0570110    -0.0435420
  C       -2.8187550     1.1723340     0.2577460
  C       -1.8866400    -0.9712620    -0.3801370
  C        2.2803750    -1.1431010     0.1169750
  C        4.7931030    -0.8701860     0.2621020
  C       -4.0754850     0.5909990     0.4048790
  C       -3.1483220    -1.5428300    -0.2100850
  C       -4.2492880    -0.7746780     0.1720620
  H       -0.5683120     2.0807040    -0.2404560
  H        1.6730390     2.5885970    -0.3025930
  H        3.9969070     1.7590030    -0.0564670
  H       -2.6877930     2.2355590     0.4578160
  H       -1.0395640    -1.5738120    -0.6782690
  H        2.3962560    -2.2212150     0.2333330
  H        5.4095350    -0.6367030    -0.6119800
  H        5.2936270    -0.4518060     1.1412500
  H        4.7686350    -1.9575490     0.3752240
  H       -4.9184630     1.2095470     0.7042290
  H       -3.2707080    -2.6065070    -0.4021260
  H       -5.2268190    -1.2338160     0.2940590
units angstrom
no_reorient  #important for SAPT in psi4, default
symmetry c1  #important for SAPT in psi4, default
}

set PROPERTIES_ORIGIN ["COM"]
properties('MP2/aug-cc-pvtz', properties = ['dipole'])
--------------------------------------------------------------------------

  Memory set to  29.802 GiB by Python driver.
    SCF Algorithm Type (re)set to DF.

*** tstart() called on c419-063.stampede2.tacc.utexas.edu
*** at Sat Feb 27 13:53:34 2021

   => Loading Basis Set <=

    Name: AUG-CC-PVTZ
    Role: ORBITAL
    Keyword: BASIS
    atoms 1-2   entry N          line   285 file /home1/07844/xy3866/miniconda3/envs/p4env/share/psi4/basis/aug-cc-pvtz.gbs 
    atoms 3-14  entry C          line   239 file /home1/07844/xy3866/miniconda3/envs/p4env/share/psi4/basis/aug-cc-pvtz.gbs 
    atoms 15-26 entry H          line    40 file /home1/07844/xy3866/miniconda3/envs/p4env/share/psi4/basis/aug-cc-pvtz.gbs 


         ---------------------------------------------------------
                                   SCF
               by Justin Turney, Rob Parrish, Andy Simmonett
                          and Daniel G. A. Smith
                              RHF Reference
                       32 Threads,  30517 MiB Core
         ---------------------------------------------------------

  ==> Geometry <==

    Molecular point group: c1
    Full point group: C1

    Geometry (in Angstrom), charge = 0, multiplicity = 1:

       Center              X                  Y                   Z               Mass       
    ------------   -----------------  -----------------  -----------------  -----------------
         N           -0.502781205239     1.144934812148    -0.289716364421    14.003074004430
         N            1.043508194761    -0.729111887852    -0.010210564421    14.003074004430
         C           -1.675114805239     0.387584112148    -0.121178564421    12.000000000000
         C            0.839832194761     0.587450112148    -0.151971564421    12.000000000000
         C            3.437538194761    -0.328679887852     0.115523435579    12.000000000000
         C            1.903792194761     1.514305112148    -0.177425564421    12.000000000000
         C            3.199079194761     1.046318112148    -0.040402564421    12.000000000000
         C           -2.783842805239     1.161641112148     0.260885435579    12.000000000000
         C           -1.851727805239    -0.981954887852    -0.376997564421    12.000000000000
         C            2.315287194761    -1.153793887852     0.120114435579    12.000000000000
         C            4.828015194761    -0.880878887852     0.265241435579    12.000000000000
         C           -4.040572805239     0.580306112148     0.408018435579    12.000000000000
         C           -3.113409805239    -1.553522887852    -0.206945564421    12.000000000000
         C           -4.214375805239    -0.785370887852     0.175201435579    12.000000000000
         H           -0.533399805239     2.070011112148    -0.237316564421     1.007825032230
         H            1.707951194761     2.577904112148    -0.299453564421     1.007825032230
         H            4.031819194761     1.748310112148    -0.053327564421     1.007825032230
         H           -2.652880805239     2.224866112148     0.460955435579     1.007825032230
         H           -1.004651805239    -1.584504887852    -0.675129564421     1.007825032230
         H            2.431168194761    -2.231907887852     0.236472435579     1.007825032230
         H            5.444447194761    -0.647395887852    -0.608840564421     1.007825032230
         H            5.328539194761    -0.462498887852     1.144389435579     1.007825032230
         H            4.803547194761    -1.968241887852     0.378363435579     1.007825032230
         H           -4.883550805239     1.198854112148     0.707368435579     1.007825032230
         H           -3.235795805239    -2.617199887852    -0.398986564421     1.007825032230
         H           -5.191906805239    -1.244508887852     0.297198435579     1.007825032230

  Running in c1 symmetry.

  Rotational constants: A =      0.07652  B =      0.01079  C =      0.00959 [cm^-1]
  Rotational constants: A =   2293.99873  B =    323.57833  C =    287.47396 [MHz]
  Nuclear repulsion =  789.514081702700992

  Charge       = 0
  Multiplicity = 1
  Electrons    = 98
  Nalpha       = 49
  Nbeta        = 49

  ==> Algorithm <==

  SCF Algorithm Type is DF.
  DIIS enabled.
  MOM disabled.
  Fractional occupation disabled.
  Guess Type is SAD.
  Energy threshold   = 1.00e-10
  Density threshold  = 1.00e-10
  Integral threshold = 1.00e-12

  ==> Primary Basis <==

  Basis Set: AUG-CC-PVTZ
    Blend: AUG-CC-PVTZ
    Number of shells: 304
    Number of basis functions: 920
    Number of Cartesian functions: 1070
    Spherical Harmonics?: true
    Max angular momentum: 3

   => Loading Basis Set <=

    Name: (AUG-CC-PVTZ AUX)
    Role: JKFIT
    Keyword: DF_BASIS_SCF
    atoms 1-2   entry N          line   224 file /home1/07844/xy3866/miniconda3/envs/p4env/share/psi4/basis/aug-cc-pvtz-jkfit.gbs 
    atoms 3-14  entry C          line   162 file /home1/07844/xy3866/miniconda3/envs/p4env/share/psi4/basis/aug-cc-pvtz-jkfit.gbs 
    atoms 15-26 entry H          line    70 file /home1/07844/xy3866/miniconda3/envs/p4env/share/psi4/basis/aug-cc-pvtz-jkfit.gbs 

  ==> Integral Setup <==

  DFHelper Memory: AOs need 10.319 GiB; user supplied 22.352 GiB. Using in-core AOs.

  ==> MemDFJK: Density-Fitted J/K Matrices <==

    J tasked:                   Yes
    K tasked:                   Yes
    wK tasked:                   No
    OpenMP threads:              32
    Memory [MiB]:             22888
    Algorithm:                 Core
    Schwarz Cutoff:           1E-12
    Mask sparsity (%):      21.6857
    Fitting Condition:        1E-10

   => Auxiliary Basis Set <=

  Basis Set: (AUG-CC-PVTZ AUX)
    Blend: AUG-CC-PVTZ-JKFIT
    Number of shells: 588
    Number of basis functions: 2008
    Number of Cartesian functions: 2494
    Spherical Harmonics?: true
    Max angular momentum: 4

  Minimum eigenvalue in the overlap matrix is 5.7141599039E-07.
  Reciprocal condition number of the overlap matrix is 2.9332073657E-08.
    Using symmetric orthogonalization.

  ==> Pre-Iterations <==

  SCF Guess: Superposition of Atomic Densities via on-the-fly atomic UHF (no occupation information).

   -------------------------
    Irrep   Nso     Nmo    
   -------------------------
     A        920     920 
   -------------------------
    Total     920     920
   -------------------------

  ==> Iterations <==

                           Total Energy        Delta E     RMS |[F,P]|

   @DF-RHF iter SAD:  -569.89266264077492   -5.69893e+02   0.00000e+00 
   @DF-RHF iter   1:  -570.09961171125735   -2.06949e-01   8.69759e-04 DIIS
   @DF-RHF iter   2:  -570.41810533415230   -3.18494e-01   3.93185e-04 DIIS
   @DF-RHF iter   3:  -570.48166348687096   -6.35582e-02   9.06010e-05 DIIS
   @DF-RHF iter   4:  -570.48621155967658   -4.54807e-03   4.17170e-05 DIIS
   @DF-RHF iter   5:  -570.48703504478635   -8.23485e-04   7.34476e-06 DIIS
   @DF-RHF iter   6:  -570.48707740320197   -4.23584e-05   2.97407e-06 DIIS
   @DF-RHF iter   7:  -570.48708478954518   -7.38634e-06   1.05956e-06 DIIS
   @DF-RHF iter   8:  -570.48708604511137   -1.25557e-06   4.22683e-07 DIIS
   @DF-RHF iter   9:  -570.48708626762834   -2.22517e-07   1.76467e-07 DIIS
   @DF-RHF iter  10:  -570.48708631432999   -4.67016e-08   8.09768e-08 DIIS
   @DF-RHF iter  11:  -570.48708632561829   -1.12883e-08   3.68973e-08 DIIS
   @DF-RHF iter  12:  -570.48708632856460   -2.94631e-09   1.71846e-08 DIIS
   @DF-RHF iter  13:  -570.48708632911598   -5.51381e-10   5.00434e-09 DIIS
   @DF-RHF iter  14:  -570.48708632914759   -3.16049e-11   1.99713e-09 DIIS
   @DF-RHF iter  15:  -570.48708632915384   -6.25278e-12   7.19099e-10 DIIS
   @DF-RHF iter  16:  -570.48708632915179    2.04636e-12   3.74780e-10 DIIS
   @DF-RHF iter  17:  -570.48708632915213   -3.41061e-13   1.86969e-10 DIIS
   @DF-RHF iter  18:  -570.48708632915282   -6.82121e-13   8.48407e-11 DIIS
  Energy and wave function converged.


  ==> Post-Iterations <==

    Orbital Energies [Eh]
    ---------------------

    Doubly Occupied:                                                      

       1A    -15.580474     2A    -15.560715     3A    -11.327835  
       4A    -11.278590     5A    -11.275692     6A    -11.260250  
       7A    -11.242266     8A    -11.240388     9A    -11.231695  
      10A    -11.230642    11A    -11.229145    12A    -11.223508  
      13A    -11.218578    14A    -11.217771    15A     -1.285566  
      16A     -1.224429    17A     -1.129445    18A     -1.100237  
      19A     -1.047062    20A     -1.005620    21A     -0.990720  
      22A     -0.939872    23A     -0.868415    24A     -0.838273  
      25A     -0.819217    26A     -0.804577    27A     -0.726327  
      28A     -0.712598    29A     -0.668988    30A     -0.663416  
      31A     -0.638187    32A     -0.621197    33A     -0.598558  
      34A     -0.591158    35A     -0.584285    36A     -0.578490  
      37A     -0.568802    38A     -0.560260    39A     -0.549914  
      40A     -0.521304    41A     -0.512013    42A     -0.501783  
      43A     -0.485438    44A     -0.451104    45A     -0.416181  
      46A     -0.383592    47A     -0.336788    48A     -0.328675  
      49A     -0.278594  

    Virtual:                                                              

      50A      0.022997    51A      0.027567    52A      0.032732  
      53A      0.039085    54A      0.039611    55A      0.043858  
      56A      0.051057    57A      0.053017    58A      0.059032  
      59A      0.065025    60A      0.072325    61A      0.076390  
      62A      0.083807    63A      0.087916    64A      0.090286  
      65A      0.094784    66A      0.099878    67A      0.107037  
      68A      0.109625    69A      0.110148    70A      0.112669  
      71A      0.115106    72A      0.115724    73A      0.119952  
      74A      0.120885    75A      0.123785    76A      0.127298  
      77A      0.131410    78A      0.133317    79A      0.134418  
      80A      0.136097    81A      0.139413    82A      0.141698  
      83A      0.146959    84A      0.150198    85A      0.153444  
      86A      0.154021    87A      0.158163    88A      0.162778  
      89A      0.166316    90A      0.167687    91A      0.171181  
      92A      0.173695    93A      0.182566    94A      0.183994  
      95A      0.185702    96A      0.190629    97A      0.194707  
      98A      0.207584    99A      0.212939   100A      0.213476  
     101A      0.215584   102A      0.225144   103A      0.230931  
     104A      0.235973   105A      0.239070   106A      0.240935  
     107A      0.246175   108A      0.249623   109A      0.254381  
     110A      0.257001   111A      0.261534   112A      0.266721  
     113A      0.269957   114A      0.271962   115A      0.272574  
     116A      0.276844   117A      0.284250   118A      0.286567  
     119A      0.292251   120A      0.298028   121A      0.300861  
     122A      0.302529   123A      0.307883   124A      0.308863  
     125A      0.312352   126A      0.319750   127A      0.322486  
     128A      0.324642   129A      0.328737   130A      0.332417  
     131A      0.334905   132A      0.338327   133A      0.341391  
     134A      0.343581   135A      0.345158   136A      0.349477  
     137A      0.352228   138A      0.353317   139A      0.359389  
     140A      0.364775   141A      0.369678   142A      0.376176  
     143A      0.380219   144A      0.383256   145A      0.389188  
     146A      0.391230   147A      0.395372   148A      0.398006  
     149A      0.398576   150A      0.405720   151A      0.409254  
     152A      0.413560   153A      0.420156   154A      0.424183  
     155A      0.429039   156A      0.431415   157A      0.434119  
     158A      0.439314   159A      0.443029   160A      0.447424  
     161A      0.448756   162A      0.450540   163A      0.457013  
     164A      0.459392   165A      0.462596   166A      0.463308  
     167A      0.470584   168A      0.471530   169A      0.473472  
     170A      0.475056   171A      0.476205   172A      0.480288  
     173A      0.484174   174A      0.489459   175A      0.492738  
     176A      0.496562   177A      0.498324   178A      0.499145  
     179A      0.503352   180A      0.505765   181A      0.509987  
     182A      0.510955   183A      0.513132   184A      0.514467  
     185A      0.520294   186A      0.522313   187A      0.527886  
     188A      0.530993   189A      0.532415   190A      0.534173  
     191A      0.543387   192A      0.544196   193A      0.546293  
     194A      0.551266   195A      0.552751   196A      0.556643  
     197A      0.558285   198A      0.561292   199A      0.562962  
     200A      0.566740   201A      0.572621   202A      0.576470  
     203A      0.580166   204A      0.583694   205A      0.592538  
     206A      0.594197   207A      0.595907   208A      0.610062  
     209A      0.612741   210A      0.620825   211A      0.627753  
     212A      0.630890   213A      0.636953   214A      0.641456  
     215A      0.645400   216A      0.650646   217A      0.654578  
     218A      0.660881   219A      0.665416   220A      0.667789  
     221A      0.674268   222A      0.676368   223A      0.688432  
     224A      0.693522   225A      0.700725   226A      0.705901  
     227A      0.710226   228A      0.713608   229A      0.719068  
     230A      0.720455   231A      0.723718   232A      0.728326  
     233A      0.735881   234A      0.737979   235A      0.742351  
     236A      0.748246   237A      0.750733   238A      0.753924  
     239A      0.760295   240A      0.763164   241A      0.772951  
     242A      0.781570   243A      0.785667   244A      0.798016  
     245A      0.802930   246A      0.807984   247A      0.816768  
     248A      0.819013   249A      0.824662   250A      0.829022  
     251A      0.832639   252A      0.839402   253A      0.848686  
     254A      0.851698   255A      0.853236   256A      0.855318  
     257A      0.859844   258A      0.863399   259A      0.869255  
     260A      0.871736   261A      0.876521   262A      0.882843  
     263A      0.883900   264A      0.884962   265A      0.889838  
     266A      0.895498   267A      0.898374   268A      0.902695  
     269A      0.907774   270A      0.910179   271A      0.913158  
     272A      0.918465   273A      0.921667   274A      0.924716  
     275A      0.929363   276A      0.934297   277A      0.935899  
     278A      0.936591   279A      0.943667   280A      0.949418  
     281A      0.952004   282A      0.954964   283A      0.955847  
     284A      0.962431   285A      0.966908   286A      0.969331  
     287A      0.977780   288A      0.979813   289A      0.985551  
     290A      0.990037   291A      0.997631   292A      1.002165  
     293A      1.005165   294A      1.010580   295A      1.019147  
     296A      1.020397   297A      1.023008   298A      1.027316  
     299A      1.031820   300A      1.036980   301A      1.044737  
     302A      1.049021   303A      1.050083   304A      1.056985  
     305A      1.060204   306A      1.063267   307A      1.068740  
     308A      1.071893   309A      1.073602   310A      1.077788  
     311A      1.081030   312A      1.086240   313A      1.087453  
     314A      1.091435   315A      1.096633   316A      1.100273  
     317A      1.106146   318A      1.111570   319A      1.112760  
     320A      1.118696   321A      1.119516   322A      1.121846  
     323A      1.124263   324A      1.128670   325A      1.132398  
     326A      1.135541   327A      1.140941   328A      1.146436  
     329A      1.152244   330A      1.163208   331A      1.164574  
     332A      1.168789   333A      1.172250   334A      1.176010  
     335A      1.181385   336A      1.184518   337A      1.188872  
     338A      1.194663   339A      1.199278   340A      1.200891  
     341A      1.206305   342A      1.207631   343A      1.209624  
     344A      1.218381   345A      1.220614   346A      1.225976  
     347A      1.230289   348A      1.232701   349A      1.234724  
     350A      1.237652   351A      1.241710   352A      1.247706  
     353A      1.248929   354A      1.256770   355A      1.259813  
     356A      1.268759   357A      1.272066   358A      1.282982  
     359A      1.285672   360A      1.292297   361A      1.299047  
     362A      1.302600   363A      1.308062   364A      1.311303  
     365A      1.329688   366A      1.335275   367A      1.338156  
     368A      1.348708   369A      1.352608   370A      1.355689  
     371A      1.365963   372A      1.367413   373A      1.370334  
     374A      1.378869   375A      1.385079   376A      1.393035  
     377A      1.393510   378A      1.402598   379A      1.406166  
     380A      1.409625   381A      1.413370   382A      1.423277  
     383A      1.429565   384A      1.433581   385A      1.437930  
     386A      1.441495   387A      1.449770   388A      1.455425  
     389A      1.464863   390A      1.468787   391A      1.478085  
     392A      1.479535   393A      1.484463   394A      1.494922  
     395A      1.497431   396A      1.502384   397A      1.510020  
     398A      1.523905   399A      1.533986   400A      1.534445  
     401A      1.542876   402A      1.547635   403A      1.551756  
     404A      1.556597   405A      1.561799   406A      1.572038  
     407A      1.577019   408A      1.585091   409A      1.589727  
     410A      1.597719   411A      1.607146   412A      1.612161  
     413A      1.620039   414A      1.624724   415A      1.632011  
     416A      1.634485   417A      1.644562   418A      1.650823  
     419A      1.656743   420A      1.661037   421A      1.666053  
     422A      1.669608   423A      1.678894   424A      1.692089  
     425A      1.693824   426A      1.697900   427A      1.713064  
     428A      1.719364   429A      1.728618   430A      1.731131  
     431A      1.735862   432A      1.738604   433A      1.741855  
     434A      1.750599   435A      1.756201   436A      1.763659  
     437A      1.773300   438A      1.780590   439A      1.787099  
     440A      1.793858   441A      1.796298   442A      1.803886  
     443A      1.813039   444A      1.819628   445A      1.827064  
     446A      1.830500   447A      1.837471   448A      1.848533  
     449A      1.854239   450A      1.859287   451A      1.861152  
     452A      1.871464   453A      1.879024   454A      1.883792  
     455A      1.892361   456A      1.895519   457A      1.903444  
     458A      1.917209   459A      1.920330   460A      1.925538  
     461A      1.932909   462A      1.934273   463A      1.936507  
     464A      1.945268   465A      1.949061   466A      1.953469  
     467A      1.965475   468A      1.975790   469A      1.982647  
     470A      1.985748   471A      1.996312   472A      2.003816  
     473A      2.015616   474A      2.017259   475A      2.027882  
     476A      2.035330   477A      2.039263   478A      2.043249  
     479A      2.049570   480A      2.055361   481A      2.059373  
     482A      2.069080   483A      2.077708   484A      2.082402  
     485A      2.085470   486A      2.090006   487A      2.097433  
     488A      2.105138   489A      2.113620   490A      2.117027  
     491A      2.126670   492A      2.127044   493A      2.138333  
     494A      2.141758   495A      2.149371   496A      2.156387  
     497A      2.157252   498A      2.163217   499A      2.182261  
     500A      2.187663   501A      2.198022   502A      2.203899  
     503A      2.209700   504A      2.215950   505A      2.220807  
     506A      2.231883   507A      2.243588   508A      2.258523  
     509A      2.259560   510A      2.265605   511A      2.271265  
     512A      2.281352   513A      2.283303   514A      2.295251  
     515A      2.299775   516A      2.311703   517A      2.314953  
     518A      2.323124   519A      2.329256   520A      2.340143  
     521A      2.344760   522A      2.354268   523A      2.363462  
     524A      2.380606   525A      2.382764   526A      2.391822  
     527A      2.406926   528A      2.413572   529A      2.422984  
     530A      2.425908   531A      2.432838   532A      2.435756  
     533A      2.437584   534A      2.456994   535A      2.462619  
     536A      2.476298   537A      2.480035   538A      2.493091  
     539A      2.499562   540A      2.509297   541A      2.517420  
     542A      2.537720   543A      2.551205   544A      2.562426  
     545A      2.572546   546A      2.584761   547A      2.588751  
     548A      2.598054   549A      2.624700   550A      2.636299  
     551A      2.646218   552A      2.665124   553A      2.683074  
     554A      2.698544   555A      2.706946   556A      2.721745  
     557A      2.739806   558A      2.754164   559A      2.756587  
     560A      2.766278   561A      2.789046   562A      2.798519  
     563A      2.809710   564A      2.818940   565A      2.821670  
     566A      2.843264   567A      2.862019   568A      2.872629  
     569A      2.880782   570A      2.920697   571A      2.930844  
     572A      2.933332   573A      2.976915   574A      2.981488  
     575A      2.984980   576A      3.039344   577A      3.057140  
     578A      3.086276   579A      3.105808   580A      3.122108  
     581A      3.140388   582A      3.162136   583A      3.200935  
     584A      3.215508   585A      3.216166   586A      3.228261  
     587A      3.237351   588A      3.246260   589A      3.258585  
     590A      3.267872   591A      3.271730   592A      3.305043  
     593A      3.309060   594A      3.320244   595A      3.327592  
     596A      3.338645   597A      3.367656   598A      3.374778  
     599A      3.381774   600A      3.385980   601A      3.389136  
     602A      3.398959   603A      3.400292   604A      3.406699  
     605A      3.433627   606A      3.443547   607A      3.446213  
     608A      3.451109   609A      3.456975   610A      3.468740  
     611A      3.472091   612A      3.475481   613A      3.486630  
     614A      3.490726   615A      3.501361   616A      3.507581  
     617A      3.533222   618A      3.536403   619A      3.545843  
     620A      3.553093   621A      3.558559   622A      3.569451  
     623A      3.569624   624A      3.579170   625A      3.582730  
     626A      3.586477   627A      3.600682   628A      3.606997  
     629A      3.613112   630A      3.623940   631A      3.632572  
     632A      3.644505   633A      3.648110   634A      3.652565  
     635A      3.665622   636A      3.669911   637A      3.672503  
     638A      3.680594   639A      3.685920   640A      3.697699  
     641A      3.702854   642A      3.712959   643A      3.722126  
     644A      3.740490   645A      3.744075   646A      3.746563  
     647A      3.761152   648A      3.764438   649A      3.771437  
     650A      3.776567   651A      3.786307   652A      3.796577  
     653A      3.803004   654A      3.815205   655A      3.820984  
     656A      3.834660   657A      3.856378   658A      3.858565  
     659A      3.861003   660A      3.876103   661A      3.886289  
     662A      3.888606   663A      3.891856   664A      3.898277  
     665A      3.900546   666A      3.906694   667A      3.926159  
     668A      3.927082   669A      3.937381   670A      3.943160  
     671A      3.951413   672A      3.957431   673A      3.964739  
     674A      3.967351   675A      3.973269   676A      3.983494  
     677A      3.988676   678A      3.997338   679A      4.003716  
     680A      4.005913   681A      4.014415   682A      4.019947  
     683A      4.024055   684A      4.030801   685A      4.049175  
     686A      4.054063   687A      4.058632   688A      4.082403  
     689A      4.084634   690A      4.092646   691A      4.103610  
     692A      4.109118   693A      4.116684   694A      4.123500  
     695A      4.133731   696A      4.139107   697A      4.141683  
     698A      4.147941   699A      4.152517   700A      4.157137  
     701A      4.167784   702A      4.173859   703A      4.184788  
     704A      4.197751   705A      4.206579   706A      4.212312  
     707A      4.225625   708A      4.244359   709A      4.246824  
     710A      4.253413   711A      4.258391   712A      4.267163  
     713A      4.274261   714A      4.278332   715A      4.290454  
     716A      4.294645   717A      4.304596   718A      4.311369  
     719A      4.319738   720A      4.328539   721A      4.349623  
     722A      4.353508   723A      4.363829   724A      4.370912  
     725A      4.379390   726A      4.381932   727A      4.392118  
     728A      4.402186   729A      4.410998   730A      4.413748  
     731A      4.423116   732A      4.429436   733A      4.439482  
     734A      4.449865   735A      4.451035   736A      4.460248  
     737A      4.465238   738A      4.473779   739A      4.479712  
     740A      4.490371   741A      4.496179   742A      4.498587  
     743A      4.510729   744A      4.520422   745A      4.529169  
     746A      4.540388   747A      4.542308   748A      4.553913  
     749A      4.561644   750A      4.579201   751A      4.582766  
     752A      4.595423   753A      4.603044   754A      4.628137  
     755A      4.636014   756A      4.658177   757A      4.663424  
     758A      4.682444   759A      4.685926   760A      4.693001  
     761A      4.712299   762A      4.717001   763A      4.729191  
     764A      4.737061   765A      4.744496   766A      4.753844  
     767A      4.760389   768A      4.784497   769A      4.797159  
     770A      4.800611   771A      4.815008   772A      4.832591  
     773A      4.833040   774A      4.859339   775A      4.869461  
     776A      4.881476   777A      4.902822   778A      4.905145  
     779A      4.918594   780A      4.931714   781A      4.938751  
     782A      4.948658   783A      4.954739   784A      4.965938  
     785A      4.980118   786A      4.985439   787A      4.998590  
     788A      5.016216   789A      5.030383   790A      5.051461  
     791A      5.061002   792A      5.070394   793A      5.074379  
     794A      5.086438   795A      5.087616   796A      5.096353  
     797A      5.114950   798A      5.118089   799A      5.124289  
     800A      5.130168   801A      5.139502   802A      5.154694  
     803A      5.161119   804A      5.168129   805A      5.174475  
     806A      5.187887   807A      5.193263   808A      5.200341  
     809A      5.210970   810A      5.211973   811A      5.230797  
     812A      5.245168   813A      5.264423   814A      5.271919  
     815A      5.291537   816A      5.301508   817A      5.307892  
     818A      5.322581   819A      5.323154   820A      5.343089  
     821A      5.349059   822A      5.355637   823A      5.376312  
     824A      5.385676   825A      5.400537   826A      5.415598  
     827A      5.426268   828A      5.449353   829A      5.469740  
     830A      5.491180   831A      5.491793   832A      5.535815  
     833A      5.542768   834A      5.546139   835A      5.569821  
     836A      5.579460   837A      5.583829   838A      5.591701  
     839A      5.609095   840A      5.620535   841A      5.624375  
     842A      5.662315   843A      5.678655   844A      5.694353  
     845A      5.696049   846A      5.722646   847A      5.757851  
     848A      5.772110   849A      5.775135   850A      5.799153  
     851A      5.805306   852A      5.827572   853A      5.837011  
     854A      5.844539   855A      5.869548   856A      5.884369  
     857A      5.914430   858A      5.922776   859A      5.936245  
     860A      5.954055   861A      5.967616   862A      5.988749  
     863A      5.999268   864A      6.071832   865A      6.105212  
     866A      6.118224   867A      6.151277   868A      6.168409  
     869A      6.178435   870A      6.189908   871A      6.204372  
     872A      6.224450   873A      6.264599   874A      6.280123  
     875A      6.287179   876A      6.309015   877A      6.341451  
     878A      6.371439   879A      6.385419   880A      6.422656  
     881A      6.453930   882A      6.496343   883A      6.516964  
     884A      6.525200   885A      6.558180   886A      6.624021  
     887A      6.669867   888A      6.708916   889A      6.750544  
     890A      6.757093   891A      6.776116   892A      6.815921  
     893A      6.829971   894A      6.910379   895A      6.926104  
     896A      6.953791   897A      6.984193   898A      7.011914  
     899A      7.067152   900A      7.087400   901A      7.156427  
     902A      7.296180   903A      7.359200   904A      7.415051  
     905A      7.596909   906A      7.842017   907A     15.870781  
     908A     16.188177   909A     16.389558   910A     16.415252  
     911A     17.926393   912A     18.291980   913A     18.670835  
     914A     19.005938   915A     19.623352   916A     19.957836  
     917A     20.072900   918A     20.585695   919A     20.606227  
     920A     21.120469  

    Final Occupation by Irrep:
              A 
    DOCC [    49 ]

  @DF-RHF Final Energy:  -570.48708632915282

   => Energetics <=

    Nuclear Repulsion Energy =            789.5140817027009916
    One-Electron Energy =               -2339.1050647583128921
    Two-Electron Energy =                 979.1038967264591975
    Total Energy =                       -570.4870863291528167

Computation Completed

*** tstop() called on c419-063.stampede2.tacc.utexas.edu at Sat Feb 27 13:54:52 2021
Module time:
	user time   =    1580.09 seconds =      26.33 minutes
	system time =      72.23 seconds =       1.20 minutes
	total time  =         78 seconds =       1.30 minutes
Total time:
	user time   =    1580.09 seconds =      26.33 minutes
	system time =      72.23 seconds =       1.20 minutes
	total time  =         78 seconds =       1.30 minutes
   => Loading Basis Set <=

    Name: (AUG-CC-PVTZ AUX)
    Role: RIFIT
    Keyword: DF_BASIS_MP2
    atoms 1-2   entry N          line   206 file /home1/07844/xy3866/miniconda3/envs/p4env/share/psi4/basis/aug-cc-pvtz-ri.gbs 
    atoms 3-14  entry C          line   148 file /home1/07844/xy3866/miniconda3/envs/p4env/share/psi4/basis/aug-cc-pvtz-ri.gbs 
    atoms 15-26 entry H          line    30 file /home1/07844/xy3866/miniconda3/envs/p4env/share/psi4/basis/aug-cc-pvtz-ri.gbs 


*** tstart() called on c419-063.stampede2.tacc.utexas.edu
*** at Sat Feb 27 13:54:54 2021


  //>>>>>>>>>>>>>>>>>>>>>>>>>>>>>>>>>>>//
  //               DFMP2               //
  //<<<<<<<<<<<<<<<<<<<<<<<<<<<<<<<<<<<//

	 --------------------------------------------------------
	                          DF-MP2                         
	      2nd-Order Density-Fitted Moller-Plesset Theory     
	              RMP2 Wavefunction,  32 Threads             
	                                                         
	        Rob Parrish, Justin Turney, Andy Simmonett,      
	           Ed Hohenstein, and C. David Sherrill          
	 --------------------------------------------------------

   => Auxiliary Basis Set <=

  Basis Set: (AUG-CC-PVTZ AUX)
    Blend: AUG-CC-PVTZ-RI
    Number of shells: 560
    Number of basis functions: 2036
    Number of Cartesian functions: 2564
    Spherical Harmonics?: true
    Max angular momentum: 4

	 --------------------------------------------------------
	                 NBF =   920, NAUX =  2036
	 --------------------------------------------------------
	   CLASS    FOCC     OCC    AOCC    AVIR     VIR    FVIR
	   PAIRS       0      49      49     871     871       0
	 --------------------------------------------------------

  DFHelper Memory: AOs need 11.172 GiB; user supplied 22.352 GiB. Using in-core AOs.


         ------------------------------------------------------------
                                     CPHF                           
                                  Rob Parrish                       
         ------------------------------------------------------------

  ==> Geometry <==

    Molecular point group: c1
    Full point group: C1

    Geometry (in Angstrom), charge = 0, multiplicity = 1:

       Center              X                  Y                   Z               Mass       
    ------------   -----------------  -----------------  -----------------  -----------------
         N           -0.502781205239     1.144934812148    -0.289716364421    14.003074004430
         N            1.043508194761    -0.729111887852    -0.010210564421    14.003074004430
         C           -1.675114805239     0.387584112148    -0.121178564421    12.000000000000
         C            0.839832194761     0.587450112148    -0.151971564421    12.000000000000
         C            3.437538194761    -0.328679887852     0.115523435579    12.000000000000
         C            1.903792194761     1.514305112148    -0.177425564421    12.000000000000
         C            3.199079194761     1.046318112148    -0.040402564421    12.000000000000
         C           -2.783842805239     1.161641112148     0.260885435579    12.000000000000
         C           -1.851727805239    -0.981954887852    -0.376997564421    12.000000000000
         C            2.315287194761    -1.153793887852     0.120114435579    12.000000000000
         C            4.828015194761    -0.880878887852     0.265241435579    12.000000000000
         C           -4.040572805239     0.580306112148     0.408018435579    12.000000000000
         C           -3.113409805239    -1.553522887852    -0.206945564421    12.000000000000
         C           -4.214375805239    -0.785370887852     0.175201435579    12.000000000000
         H           -0.533399805239     2.070011112148    -0.237316564421     1.007825032230
         H            1.707951194761     2.577904112148    -0.299453564421     1.007825032230
         H            4.031819194761     1.748310112148    -0.053327564421     1.007825032230
         H           -2.652880805239     2.224866112148     0.460955435579     1.007825032230
         H           -1.004651805239    -1.584504887852    -0.675129564421     1.007825032230
         H            2.431168194761    -2.231907887852     0.236472435579     1.007825032230
         H            5.444447194761    -0.647395887852    -0.608840564421     1.007825032230
         H            5.328539194761    -0.462498887852     1.144389435579     1.007825032230
         H            4.803547194761    -1.968241887852     0.378363435579     1.007825032230
         H           -4.883550805239     1.198854112148     0.707368435579     1.007825032230
         H           -3.235795805239    -2.617199887852    -0.398986564421     1.007825032230
         H           -5.191906805239    -1.244508887852     0.297198435579     1.007825032230

  Nuclear repulsion =  789.514081702700992
  Reference energy  = -570.487086329152817

  ==> Basis Set <==

  Basis Set: AUG-CC-PVTZ
    Blend: AUG-CC-PVTZ
    Number of shells: 304
    Number of basis functions: 920
    Number of Cartesian functions: 1070
    Spherical Harmonics?: true
    Max angular momentum: 3

  ==> CGRSolver (by Rob Parrish) <==

   Number of roots    =         1
   Preconditioning    =    JACOBI
   Convergence cutoff =     1E-06
   Maximum iterations =       100

  ==> CPHFRHamiltonian (by Rob Parrish) <== 

  ==> MemDFJK: Density-Fitted J/K Matrices <==

    J tasked:                   Yes
    K tasked:                   Yes
    wK tasked:                   No
    OpenMP threads:              32
    Memory [MiB]:             22888
    Algorithm:                 Core
    Schwarz Cutoff:           1E-12
    Mask sparsity (%):      14.9504
    Fitting Condition:        1E-10

   => Auxiliary Basis Set <=

  Basis Set: (AUG-CC-PVTZ AUX)
    Blend: AUG-CC-PVTZ-JKFIT
    Number of shells: 588
    Number of basis functions: 2008
    Number of Cartesian functions: 2494
    Spherical Harmonics?: true
    Max angular momentum: 4

  ==> CPHF Iterations <==

  => Iterations <=

             Iter  Converged  Remaining    Residual
  CGR           1          0          1   9.452E-02
  CGR           2          0          1   3.589E-02
  CGR           3          0          1   2.181E-02
  CGR           4          0          1   8.288E-03
  CGR           5          0          1   3.415E-03
  CGR           6          0          1   1.498E-03
  CGR           7          0          1   4.337E-04
  CGR           8          0          1   1.426E-04
  CGR           9          0          1   5.071E-05
  CGR          10          0          1   2.368E-05
  CGR          11          0          1   1.208E-05
  CGR          12          0          1   4.364E-06
  CGR          13          0          1   1.738E-06
  CGR          14          1          0   4.987E-07

    CGRSolver converged.

	-----------------------------------------------------------
	 ==================> DF-MP2 Energies <==================== 
	-----------------------------------------------------------
	 Reference Energy          =    -570.4870863291528167 [Eh]
	 Singles Energy            =      -0.0000000000000000 [Eh]
	 Same-Spin Energy          =      -0.6358606583209538 [Eh]
	 Opposite-Spin Energy      =      -1.9704190354042481 [Eh]
	 Correlation Energy        =      -2.6062796937252020 [Eh]
	 Total Energy              =    -573.0933660228780582 [Eh]
	-----------------------------------------------------------
	 ================> DF-SCS-MP2 Energies <================== 
	-----------------------------------------------------------
	 SCS Same-Spin Scale       =       0.3333333333333333 [-]
	 SCS Opposite-Spin Scale   =       1.2000000000000000 [-]
	 SCS Same-Spin Energy      =      -0.2119535527736513 [Eh]
	 SCS Opposite-Spin Energy  =      -2.3645028424850976 [Eh]
	 SCS Correlation Energy    =      -2.5764563952587487 [Eh]
	 SCS Total Energy          =    -573.0635427244116045 [Eh]
	-----------------------------------------------------------



Properties will be evaluated at   0.000000,  -0.000000,  -0.000000 [a0]

Properties computed using the MP2 density matrix

  Nuclear Dipole Moment: [e a0]
     X:     5.8532      Y:    -0.8790      Z:     0.8931

  Electronic Dipole Moment: [e a0]
     X:    -4.9180      Y:     1.5714      Z:    -0.8314

  Dipole Moment: [e a0]
     X:     0.9352      Y:     0.6924      Z:     0.0616     Total:     1.1653

  Dipole Moment: [D]
     X:     2.3770      Y:     1.7600      Z:     0.1566     Total:     2.9618


*** tstop() called on c419-063.stampede2.tacc.utexas.edu at Sat Feb 27 14:03:19 2021
Module time:
	user time   =    5496.52 seconds =      91.61 minutes
	system time =     110.44 seconds =       1.84 minutes
	total time  =        505 seconds =       8.42 minutes
Total time:
	user time   =    7077.94 seconds =     117.97 minutes
	system time =     182.69 seconds =       3.04 minutes
	total time  =        585 seconds =       9.75 minutes

    Psi4 stopped on: Saturday, 27 February 2021 02:03PM
    Psi4 wall time for execution: 0:09:47.26

*** Psi4 exiting successfully. Buy a developer a beer!
