
    -----------------------------------------------------------------------
          Psi4: An Open-Source Ab Initio Electronic Structure Package
                               Psi4 1.4a3.dev225 

                         Git: Rev {master} 7105e37 


    D. G. A. Smith, L. A. Burns, A. C. Simmonett, R. M. Parrish,
    M. C. Schieber, R. Galvelis, P. Kraus, H. Kruse, R. Di Remigio,
    A. Alenaizan, A. M. James, S. Lehtola, J. P. Misiewicz, M. Scheurer,
    R. A. Shaw, J. B. Schriber, Y. Xie, Z. L. Glick, D. A. Sirianni,
    J. S. O'Brien, J. M. Waldrop, A. Kumar, E. G. Hohenstein,
    B. P. Pritchard, B. R. Brooks, H. F. Schaefer III, A. Yu. Sokolov,
    K. Patkowski, A. E. DePrince III, U. Bozkaya, R. A. King,
    F. A. Evangelista, J. M. Turney, T. D. Crawford, C. D. Sherrill,
    J. Chem. Phys. 152(18) 184108 (2020). https://doi.org/10.1063/5.0006002

                            Additional Code Authors
    E. T. Seidl, C. L. Janssen, E. F. Valeev, M. L. Leininger,
    J. F. Gonthier, R. M. Richard, H. R. McAlexander, M. Saitow, X. Wang,
    P. Verma, and M. H. Lechner

             Previous Authors, Complete List of Code Contributors,
                       and Citations for Specific Modules
    https://github.com/psi4/psi4/blob/master/codemeta.json
    https://github.com/psi4/psi4/graphs/contributors
    http://psicode.org/psi4manual/master/introduction.html#citing-psifour

    -----------------------------------------------------------------------


    Psi4 started on: Thursday, 01 April 2021 11:51AM

    Process ID: 35246
    Host:       c453-033.stampede2.tacc.utexas.edu
    PSIDATADIR: /home1/07844/xy3866/miniconda3/envs/p4env/share/psi4
    Memory:     500.0 MiB
    Threads:    8
    
  ==> Input File <==

--------------------------------------------------------------------------
#psi4
#
memory 32 gb

molecule  {
0 1
  N       -0.4914050     1.0723760    -0.3164170
  N        1.0085960    -0.7184190    -0.0133500
  C       -1.7100270     0.3982770    -0.1243180
  C        0.8049200     0.5981430    -0.1551110
  C        3.4026260    -0.3179870     0.1123840
  C        1.8688800     1.5249980    -0.1805650
  C        3.1641670     1.0570110    -0.0435420
  C       -2.8187550     1.1723340     0.2577460
  C       -1.8866400    -0.9712620    -0.3801370
  C        2.2803750    -1.1431010     0.1169750
  C        4.7746075    -0.8628409     0.2601105
  C       -4.0754850     0.5909990     0.4048790
  C       -3.1483220    -1.5428300    -0.2100850
  C       -4.2492880    -0.7746780     0.1720620
  H       -0.5683120     2.0807040    -0.2404560
  H        1.6730390     2.5885970    -0.3025930
  H        3.9969070     1.7590030    -0.0564670
  H       -2.6877930     2.2355590     0.4578160
  H       -1.0395640    -1.5738120    -0.6782690
  H        2.3962560    -2.2212150     0.2333330
  H        5.4095350    -0.6367030    -0.6119800
  H        5.2936270    -0.4518060     1.1412500
  H        4.7686350    -1.9575490     0.3752240
  H       -4.9184630     1.2095470     0.7042290
  H       -3.2707080    -2.6065070    -0.4021260
  H       -5.2268190    -1.2338160     0.2940590
units angstrom
no_reorient  #important for SAPT in psi4, default
symmetry c1  #important for SAPT in psi4, default
}

set PROPERTIES_ORIGIN ["COM"]
properties('MP2/aug-cc-pvtz', properties = ['dipole'])
--------------------------------------------------------------------------

  Memory set to  29.802 GiB by Python driver.
    SCF Algorithm Type (re)set to DF.

*** tstart() called on c453-033.stampede2.tacc.utexas.edu
*** at Thu Apr  1 11:51:29 2021

   => Loading Basis Set <=

    Name: AUG-CC-PVTZ
    Role: ORBITAL
    Keyword: BASIS
    atoms 1-2   entry N          line   285 file /home1/07844/xy3866/miniconda3/envs/p4env/share/psi4/basis/aug-cc-pvtz.gbs 
    atoms 3-14  entry C          line   239 file /home1/07844/xy3866/miniconda3/envs/p4env/share/psi4/basis/aug-cc-pvtz.gbs 
    atoms 15-26 entry H          line    40 file /home1/07844/xy3866/miniconda3/envs/p4env/share/psi4/basis/aug-cc-pvtz.gbs 


         ---------------------------------------------------------
                                   SCF
               by Justin Turney, Rob Parrish, Andy Simmonett
                          and Daniel G. A. Smith
                              RHF Reference
                        8 Threads,  30517 MiB Core
         ---------------------------------------------------------

  ==> Geometry <==

    Molecular point group: c1
    Full point group: C1

    Geometry (in Angstrom), charge = 0, multiplicity = 1:

       Center              X                  Y                   Z               Mass       
    ------------   -----------------  -----------------  -----------------  -----------------
         N           -0.458808034890     1.067536660398    -0.311355635392    14.003074004430
         N            1.041192965110    -0.723258339602    -0.008288635392    14.003074004430
         C           -1.677430034890     0.393437660398    -0.119256635392    12.000000000000
         C            0.837516965110     0.593303660398    -0.150049635392    12.000000000000
         C            3.435222965110    -0.322826339602     0.117445364608    12.000000000000
         C            1.901476965110     1.520158660398    -0.175503635392    12.000000000000
         C            3.196763965110     1.052171660398    -0.038480635392    12.000000000000
         C           -2.786158034890     1.167494660398     0.262807364608    12.000000000000
         C           -1.854043034890    -0.976101339602    -0.375075635392    12.000000000000
         C            2.312971965110    -1.147940339602     0.122036364608    12.000000000000
         C            4.807204465110    -0.867680239602     0.265171864608    12.000000000000
         C           -4.042888034890     0.586159660398     0.409940364608    12.000000000000
         C           -3.115725034890    -1.547669339602    -0.205023635392    12.000000000000
         C           -4.216691034890    -0.779517339602     0.177123364608    12.000000000000
         H           -0.535715034890     2.075864660398    -0.235394635392     1.007825032230
         H            1.705635965110     2.583757660398    -0.297531635392     1.007825032230
         H            4.029503965110     1.754163660398    -0.051405635392     1.007825032230
         H           -2.655196034890     2.230719660398     0.462877364608     1.007825032230
         H           -1.006967034890    -1.578651339602    -0.673207635392     1.007825032230
         H            2.428852965110    -2.226054339602     0.238394364608     1.007825032230
         H            5.442131965110    -0.641542339602    -0.606918635392     1.007825032230
         H            5.326223965110    -0.456645339602     1.146311364608     1.007825032230
         H            4.801231965110    -1.962388339602     0.380285364608     1.007825032230
         H           -4.885866034890     1.204707660398     0.709290364608     1.007825032230
         H           -3.238111034890    -2.611346339602    -0.397064635392     1.007825032230
         H           -5.194222034890    -1.238655339602     0.299120364608     1.007825032230

  Running in c1 symmetry.

  Rotational constants: A =      0.07742  B =      0.01081  C =      0.00962 [cm^-1]
  Rotational constants: A =   2320.99937  B =    324.10977  C =    288.37539 [MHz]
  Nuclear repulsion =  791.128920349231635

  Charge       = 0
  Multiplicity = 1
  Electrons    = 98
  Nalpha       = 49
  Nbeta        = 49

  ==> Algorithm <==

  SCF Algorithm Type is DF.
  DIIS enabled.
  MOM disabled.
  Fractional occupation disabled.
  Guess Type is SAD.
  Energy threshold   = 1.00e-10
  Density threshold  = 1.00e-10
  Integral threshold = 1.00e-12

  ==> Primary Basis <==

  Basis Set: AUG-CC-PVTZ
    Blend: AUG-CC-PVTZ
    Number of shells: 304
    Number of basis functions: 920
    Number of Cartesian functions: 1070
    Spherical Harmonics?: true
    Max angular momentum: 3

   => Loading Basis Set <=

    Name: (AUG-CC-PVTZ AUX)
    Role: JKFIT
    Keyword: DF_BASIS_SCF
    atoms 1-2   entry N          line   224 file /home1/07844/xy3866/miniconda3/envs/p4env/share/psi4/basis/aug-cc-pvtz-jkfit.gbs 
    atoms 3-14  entry C          line   162 file /home1/07844/xy3866/miniconda3/envs/p4env/share/psi4/basis/aug-cc-pvtz-jkfit.gbs 
    atoms 15-26 entry H          line    70 file /home1/07844/xy3866/miniconda3/envs/p4env/share/psi4/basis/aug-cc-pvtz-jkfit.gbs 

  ==> Integral Setup <==

  DFHelper Memory: AOs need 10.174 GiB; user supplied 22.352 GiB. Using in-core AOs.

  ==> MemDFJK: Density-Fitted J/K Matrices <==

    J tasked:                   Yes
    K tasked:                   Yes
    wK tasked:                   No
    OpenMP threads:               8
    Memory [MiB]:             22888
    Algorithm:                 Core
    Schwarz Cutoff:           1E-12
    Mask sparsity (%):      21.6321
    Fitting Condition:        1E-10

   => Auxiliary Basis Set <=

  Basis Set: (AUG-CC-PVTZ AUX)
    Blend: AUG-CC-PVTZ-JKFIT
    Number of shells: 588
    Number of basis functions: 2008
    Number of Cartesian functions: 2494
    Spherical Harmonics?: true
    Max angular momentum: 4

  Minimum eigenvalue in the overlap matrix is 5.7057706358E-07.
  Reciprocal condition number of the overlap matrix is 2.9253468318E-08.
    Using symmetric orthogonalization.

  ==> Pre-Iterations <==

  SCF Guess: Superposition of Atomic Densities via on-the-fly atomic UHF (no occupation information).

   -------------------------
    Irrep   Nso     Nmo    
   -------------------------
     A        920     920 
   -------------------------
    Total     920     920
   -------------------------

  ==> Iterations <==

                           Total Energy        Delta E     RMS |[F,P]|

   @DF-RHF iter SAD:  -569.99300890822883   -5.69993e+02   0.00000e+00 
   @DF-RHF iter   1:  -570.10386475414521   -1.10856e-01   8.73517e-04 DIIS
   @DF-RHF iter   2:  -570.42680498468349   -3.22940e-01   3.99403e-04 DIIS
   @DF-RHF iter   3:  -570.49279907350319   -6.59941e-02   9.05421e-05 DIIS
   @DF-RHF iter   4:  -570.49738232764435   -4.58325e-03   4.18231e-05 DIIS
   @DF-RHF iter   5:  -570.49820073640842   -8.18409e-04   7.46512e-06 DIIS
   @DF-RHF iter   6:  -570.49824495370376   -4.42173e-05   3.07357e-06 DIIS
   @DF-RHF iter   7:  -570.49825288842680   -7.93472e-06   1.11659e-06 DIIS
   @DF-RHF iter   8:  -570.49825433961064   -1.45118e-06   4.78385e-07 DIIS
   @DF-RHF iter   9:  -570.49825464246464   -3.02854e-07   2.11035e-07 DIIS
   @DF-RHF iter  10:  -570.49825471865051   -7.61859e-08   1.00619e-07 DIIS
   @DF-RHF iter  11:  -570.49825473904809   -2.03976e-08   4.30361e-08 DIIS
   @DF-RHF iter  12:  -570.49825474281238   -3.76428e-09   1.76443e-08 DIIS
   @DF-RHF iter  13:  -570.49825474331840   -5.06020e-10   5.08000e-09 DIIS
   @DF-RHF iter  14:  -570.49825474334932   -3.09228e-11   2.09400e-09 DIIS
   @DF-RHF iter  15:  -570.49825474335626   -6.93490e-12   8.96218e-10 DIIS
   @DF-RHF iter  16:  -570.49825474335751   -1.25056e-12   4.72522e-10 DIIS
   @DF-RHF iter  17:  -570.49825474335762   -1.13687e-13   2.42239e-10 DIIS
   @DF-RHF iter  18:  -570.49825474335682    7.95808e-13   8.91534e-11 DIIS
  Energy and wave function converged.


  ==> Post-Iterations <==

    Orbital Energies [Eh]
    ---------------------

    Doubly Occupied:                                                      

       1A    -15.589249     2A    -15.553804     3A    -11.323140  
       4A    -11.281006     5A    -11.272852     6A    -11.258531  
       7A    -11.239006     8A    -11.234399     9A    -11.233785  
      10A    -11.230360    11A    -11.229518    12A    -11.228664  
      13A    -11.221506    14A    -11.218481    15A     -1.293253  
      16A     -1.220328    17A     -1.132911    18A     -1.098508  
      19A     -1.046931    20A     -1.008121    21A     -0.993511  
      22A     -0.934293    23A     -0.868846    24A     -0.840852  
      25A     -0.821230    26A     -0.798039    27A     -0.723750  
      28A     -0.715796    29A     -0.670854    30A     -0.653940  
      31A     -0.638790    32A     -0.621363    33A     -0.595685  
      34A     -0.594026    35A     -0.588138    36A     -0.579513  
      37A     -0.568256    38A     -0.562906    39A     -0.544204  
      40A     -0.521253    41A     -0.510860    42A     -0.504129  
      43A     -0.487408    44A     -0.453826    45A     -0.414558  
      46A     -0.381419    47A     -0.336394    48A     -0.330505  
      49A     -0.276871  

    Virtual:                                                              

      50A      0.023180    51A      0.027725    52A      0.032524  
      53A      0.038944    54A      0.039648    55A      0.044658  
      56A      0.050955    57A      0.053021    58A      0.058877  
      59A      0.064931    60A      0.072506    61A      0.076088  
      62A      0.084525    63A      0.088527    64A      0.090164  
      65A      0.094322    66A      0.099559    67A      0.107276  
      68A      0.108481    69A      0.109192    70A      0.112934  
      71A      0.115298    72A      0.115833    73A      0.119549  
      74A      0.120781    75A      0.123738    76A      0.127139  
      77A      0.131359    78A      0.133121    79A      0.134145  
      80A      0.136375    81A      0.139546    82A      0.141413  
      83A      0.147813    84A      0.149890    85A      0.152980  
      86A      0.154287    87A      0.158055    88A      0.162329  
      89A      0.166232    90A      0.168357    91A      0.171443  
      92A      0.173943    93A      0.182498    94A      0.183343  
      95A      0.186353    96A      0.190723    97A      0.194635  
      98A      0.207787    99A      0.212068   100A      0.212787  
     101A      0.215407   102A      0.223828   103A      0.230452  
     104A      0.235598   105A      0.239448   106A      0.240206  
     107A      0.246816   108A      0.249973   109A      0.254570  
     110A      0.257138   111A      0.261731   112A      0.266670  
     113A      0.269936   114A      0.272496   115A      0.272926  
     116A      0.278782   117A      0.283622   118A      0.286553  
     119A      0.291661   120A      0.297651   121A      0.301105  
     122A      0.302170   123A      0.307618   124A      0.309698  
     125A      0.313096   126A      0.318171   127A      0.322564  
     128A      0.324042   129A      0.328391   130A      0.331670  
     131A      0.333462   132A      0.337512   133A      0.340545  
     134A      0.343001   135A      0.344686   136A      0.350166  
     137A      0.351999   138A      0.354015   139A      0.358701  
     140A      0.364657   141A      0.369820   142A      0.376354  
     143A      0.380481   144A      0.383325   145A      0.387683  
     146A      0.392934   147A      0.397605   148A      0.398314  
     149A      0.399537   150A      0.407436   151A      0.409000  
     152A      0.417974   153A      0.418075   154A      0.425156  
     155A      0.428395   156A      0.429507   157A      0.432739  
     158A      0.439573   159A      0.442649   160A      0.446430  
     161A      0.451299   162A      0.452671   163A      0.456936  
     164A      0.460031   165A      0.462382   166A      0.464542  
     167A      0.470335   168A      0.471571   169A      0.472975  
     170A      0.474080   171A      0.475790   172A      0.480379  
     173A      0.484759   174A      0.488353   175A      0.492910  
     176A      0.497315   177A      0.499722   178A      0.500526  
     179A      0.503180   180A      0.505451   181A      0.509453  
     182A      0.510843   183A      0.512742   184A      0.515553  
     185A      0.519881   186A      0.522716   187A      0.528627  
     188A      0.532158   189A      0.533502   190A      0.534749  
     191A      0.543934   192A      0.545515   193A      0.546304  
     194A      0.552101   195A      0.555779   196A      0.556302  
     197A      0.558686   198A      0.562025   199A      0.563633  
     200A      0.566826   201A      0.575503   202A      0.578351  
     203A      0.580605   204A      0.583060   205A      0.593164  
     206A      0.595022   207A      0.602564   208A      0.612952  
     209A      0.615626   210A      0.622169   211A      0.628570  
     212A      0.629266   213A      0.637684   214A      0.641213  
     215A      0.645546   216A      0.649186   217A      0.655108  
     218A      0.661683   219A      0.664535   220A      0.667312  
     221A      0.673797   222A      0.677145   223A      0.687955  
     224A      0.692693   225A      0.700384   226A      0.705704  
     227A      0.710374   228A      0.712146   229A      0.720163  
     230A      0.721972   231A      0.723765   232A      0.727221  
     233A      0.735488   234A      0.737985   235A      0.747143  
     236A      0.748051   237A      0.749129   238A      0.754558  
     239A      0.759550   240A      0.764326   241A      0.769292  
     242A      0.780428   243A      0.786188   244A      0.799080  
     245A      0.803641   246A      0.805778   247A      0.814318  
     248A      0.818531   249A      0.825314   250A      0.828504  
     251A      0.832988   252A      0.840801   253A      0.848445  
     254A      0.850624   255A      0.852320   256A      0.853256  
     257A      0.860391   258A      0.863872   259A      0.868924  
     260A      0.871728   261A      0.876511   262A      0.882938  
     263A      0.883077   264A      0.886254   265A      0.889762  
     266A      0.894970   267A      0.898838   268A      0.902637  
     269A      0.906715   270A      0.909672   271A      0.913272  
     272A      0.918092   273A      0.922824   274A      0.925854  
     275A      0.928961   276A      0.933439   277A      0.936294  
     278A      0.936774   279A      0.943755   280A      0.949256  
     281A      0.952244   282A      0.953914   283A      0.955793  
     284A      0.961510   285A      0.967536   286A      0.969709  
     287A      0.977588   288A      0.980475   289A      0.985641  
     290A      0.989441   291A      0.996813   292A      1.001591  
     293A      1.006180   294A      1.010500   295A      1.019700  
     296A      1.020515   297A      1.025444   298A      1.028436  
     299A      1.033832   300A      1.037218   301A      1.046786  
     302A      1.049635   303A      1.052869   304A      1.055884  
     305A      1.059204   306A      1.063855   307A      1.068236  
     308A      1.070750   309A      1.075845   310A      1.080328  
     311A      1.082357   312A      1.086382   313A      1.087448  
     314A      1.092387   315A      1.095705   316A      1.099904  
     317A      1.104667   318A      1.109261   319A      1.110120  
     320A      1.115794   321A      1.121566   322A      1.122888  
     323A      1.124093   324A      1.129240   325A      1.133808  
     326A      1.136724   327A      1.138726   328A      1.146593  
     329A      1.150777   330A      1.161589   331A      1.164587  
     332A      1.169270   333A      1.172218   334A      1.174631  
     335A      1.180752   336A      1.185128   337A      1.188938  
     338A      1.194454   339A      1.197924   340A      1.201004  
     341A      1.205073   342A      1.208041   343A      1.209494  
     344A      1.218537   345A      1.219682   346A      1.225370  
     347A      1.231438   348A      1.232529   349A      1.235159  
     350A      1.237499   351A      1.241891   352A      1.246776  
     353A      1.248712   354A      1.256553   355A      1.259814  
     356A      1.265891   357A      1.271910   358A      1.281262  
     359A      1.283467   360A      1.292149   361A      1.299479  
     362A      1.300999   363A      1.307327   364A      1.311695  
     365A      1.326705   366A      1.335905   367A      1.341380  
     368A      1.346145   369A      1.351427   370A      1.355181  
     371A      1.364073   372A      1.367511   373A      1.371183  
     374A      1.378591   375A      1.386470   376A      1.392356  
     377A      1.393917   378A      1.404279   379A      1.404785  
     380A      1.409708   381A      1.418393   382A      1.423566  
     383A      1.429137   384A      1.432253   385A      1.437227  
     386A      1.441640   387A      1.448614   388A      1.458275  
     389A      1.463034   390A      1.469569   391A      1.478145  
     392A      1.481073   393A      1.483430   394A      1.492780  
     395A      1.496258   396A      1.502420   397A      1.508199  
     398A      1.524156   399A      1.533268   400A      1.534721  
     401A      1.541794   402A      1.548653   403A      1.552486  
     404A      1.555248   405A      1.559299   406A      1.571231  
     407A      1.578083   408A      1.583395   409A      1.592329  
     410A      1.597783   411A      1.608827   412A      1.609822  
     413A      1.621104   414A      1.622736   415A      1.634134  
     416A      1.635858   417A      1.642908   418A      1.650769  
     419A      1.658563   420A      1.664480   421A      1.668092  
     422A      1.669667   423A      1.678556   424A      1.692974  
     425A      1.694588   426A      1.701226   427A      1.714785  
     428A      1.721419   429A      1.726669   430A      1.733171  
     431A      1.734600   432A      1.740036   433A      1.743125  
     434A      1.751326   435A      1.759542   436A      1.767686  
     437A      1.775497   438A      1.782190   439A      1.788728  
     440A      1.795013   441A      1.796399   442A      1.803481  
     443A      1.813437   444A      1.819496   445A      1.826256  
     446A      1.834138   447A      1.837827   448A      1.849765  
     449A      1.855325   450A      1.860860   451A      1.865401  
     452A      1.871350   453A      1.876137   454A      1.883811  
     455A      1.893009   456A      1.896449   457A      1.906249  
     458A      1.919123   459A      1.920123   460A      1.927054  
     461A      1.933237   462A      1.934524   463A      1.938380  
     464A      1.946013   465A      1.951274   466A      1.955662  
     467A      1.968387   468A      1.976371   469A      1.983421  
     470A      1.985072   471A      1.999722   472A      2.005767  
     473A      2.013354   474A      2.018093   475A      2.026543  
     476A      2.037418   477A      2.040382   478A      2.043879  
     479A      2.052951   480A      2.054558   481A      2.059108  
     482A      2.071810   483A      2.074832   484A      2.082588  
     485A      2.088092   486A      2.090553   487A      2.099381  
     488A      2.105546   489A      2.109341   490A      2.117316  
     491A      2.124652   492A      2.130988   493A      2.138474  
     494A      2.144609   495A      2.151673   496A      2.154061  
     497A      2.159664   498A      2.163150   499A      2.181415  
     500A      2.188176   501A      2.193803   502A      2.201988  
     503A      2.209005   504A      2.211823   505A      2.222178  
     506A      2.234813   507A      2.246109   508A      2.256800  
     509A      2.261893   510A      2.266788   511A      2.269435  
     512A      2.274256   513A      2.285197   514A      2.285494  
     515A      2.293724   516A      2.306929   517A      2.317701  
     518A      2.328372   519A      2.329389   520A      2.338231  
     521A      2.341715   522A      2.356569   523A      2.366297  
     524A      2.370823   525A      2.384746   526A      2.385851  
     527A      2.404664   528A      2.408784   529A      2.420517  
     530A      2.425763   531A      2.432123   532A      2.433701  
     533A      2.441134   534A      2.453025   535A      2.465596  
     536A      2.476940   537A      2.477899   538A      2.492672  
     539A      2.498050   540A      2.512602   541A      2.519299  
     542A      2.545469   543A      2.553960   544A      2.563130  
     545A      2.579168   546A      2.586198   547A      2.591673  
     548A      2.604707   549A      2.625168   550A      2.638120  
     551A      2.654532   552A      2.669365   553A      2.681060  
     554A      2.698932   555A      2.707457   556A      2.725137  
     557A      2.727987   558A      2.753854   559A      2.759060  
     560A      2.766245   561A      2.796677   562A      2.800952  
     563A      2.808833   564A      2.819848   565A      2.828119  
     566A      2.839867   567A      2.852053   568A      2.876157  
     569A      2.878455   570A      2.926094   571A      2.935074  
     572A      2.939724   573A      2.978467   574A      2.992461  
     575A      2.999303   576A      3.052285   577A      3.058383  
     578A      3.093777   579A      3.117093   580A      3.119897  
     581A      3.150363   582A      3.173778   583A      3.205722  
     584A      3.211598   585A      3.217112   586A      3.235159  
     587A      3.241080   588A      3.248215   589A      3.260711  
     590A      3.274136   591A      3.277173   592A      3.310972  
     593A      3.313177   594A      3.322703   595A      3.331493  
     596A      3.337888   597A      3.370870   598A      3.374285  
     599A      3.385350   600A      3.389824   601A      3.391360  
     602A      3.397165   603A      3.401943   604A      3.418792  
     605A      3.431235   606A      3.441004   607A      3.451087  
     608A      3.452605   609A      3.456764   610A      3.467628  
     611A      3.472598   612A      3.482288   613A      3.492232  
     614A      3.498916   615A      3.504692   616A      3.513442  
     617A      3.532373   618A      3.538062   619A      3.543955  
     620A      3.554970   621A      3.562261   622A      3.569281  
     623A      3.570127   624A      3.578994   625A      3.582469  
     626A      3.593765   627A      3.601715   628A      3.608484  
     629A      3.615754   630A      3.629309   631A      3.630651  
     632A      3.640582   633A      3.653666   634A      3.656744  
     635A      3.669660   636A      3.674332   637A      3.676703  
     638A      3.681237   639A      3.684875   640A      3.691650  
     641A      3.701269   642A      3.714461   643A      3.725131  
     644A      3.736077   645A      3.748132   646A      3.755340  
     647A      3.765223   648A      3.769321   649A      3.774664  
     650A      3.779653   651A      3.788556   652A      3.800672  
     653A      3.805425   654A      3.817253   655A      3.818474  
     656A      3.842501   657A      3.855591   658A      3.859945  
     659A      3.864588   660A      3.871461   661A      3.882535  
     662A      3.889829   663A      3.894103   664A      3.897768  
     665A      3.903175   666A      3.907764   667A      3.922095  
     668A      3.927576   669A      3.935899   670A      3.944330  
     671A      3.951032   672A      3.957247   673A      3.964659  
     674A      3.968170   675A      3.972359   676A      3.982586  
     677A      3.991349   678A      3.998824   679A      4.000674  
     680A      4.002674   681A      4.012942   682A      4.020013  
     683A      4.024664   684A      4.036385   685A      4.046778  
     686A      4.054095   687A      4.058141   688A      4.084996  
     689A      4.085818   690A      4.091332   691A      4.099621  
     692A      4.109919   693A      4.122217   694A      4.122661  
     695A      4.139110   696A      4.143195   697A      4.143793  
     698A      4.153417   699A      4.157061   700A      4.160882  
     701A      4.169094   702A      4.180910   703A      4.188591  
     704A      4.199595   705A      4.213416   706A      4.215306  
     707A      4.229870   708A      4.236159   709A      4.248047  
     710A      4.254573   711A      4.258771   712A      4.268546  
     713A      4.277115   714A      4.279423   715A      4.291782  
     716A      4.299990   717A      4.306761   718A      4.315491  
     719A      4.318965   720A      4.332997   721A      4.347278  
     722A      4.353560   723A      4.364767   724A      4.374304  
     725A      4.381541   726A      4.396065   727A      4.399823  
     728A      4.402630   729A      4.411803   730A      4.415062  
     731A      4.426021   732A      4.431292   733A      4.443374  
     734A      4.445238   735A      4.455481   736A      4.458139  
     737A      4.469255   738A      4.475138   739A      4.481867  
     740A      4.492598   741A      4.495899   742A      4.498731  
     743A      4.506859   744A      4.523600   745A      4.530302  
     746A      4.539060   747A      4.552503   748A      4.557218  
     749A      4.567311   750A      4.588403   751A      4.593858  
     752A      4.597483   753A      4.603014   754A      4.630989  
     755A      4.636042   756A      4.657685   757A      4.660646  
     758A      4.684710   759A      4.690858   760A      4.696841  
     761A      4.714825   762A      4.720943   763A      4.729633  
     764A      4.742324   765A      4.744920   766A      4.759922  
     767A      4.764574   768A      4.786774   769A      4.793673  
     770A      4.799639   771A      4.806578   772A      4.821736  
     773A      4.826914   774A      4.856562   775A      4.866610  
     776A      4.882987   777A      4.904100   778A      4.914190  
     779A      4.919804   780A      4.929529   781A      4.937214  
     782A      4.948098   783A      4.956627   784A      4.959333  
     785A      4.971928   786A      4.984546   787A      4.998329  
     788A      5.018502   789A      5.027200   790A      5.051165  
     791A      5.064881   792A      5.069512   793A      5.075348  
     794A      5.082547   795A      5.088232   796A      5.091746  
     797A      5.104638   798A      5.115745   799A      5.120839  
     800A      5.128420   801A      5.140548   802A      5.144318  
     803A      5.151648   804A      5.164643   805A      5.165485  
     806A      5.179143   807A      5.185739   808A      5.199812  
     809A      5.211048   810A      5.216357   811A      5.231132  
     812A      5.236824   813A      5.249190   814A      5.267553  
     815A      5.275332   816A      5.290915   817A      5.309827  
     818A      5.314734   819A      5.322679   820A      5.328073  
     821A      5.346825   822A      5.351659   823A      5.366028  
     824A      5.374486   825A      5.392757   826A      5.399867  
     827A      5.422658   828A      5.439886   829A      5.470205  
     830A      5.473863   831A      5.495094   832A      5.523120  
     833A      5.533296   834A      5.537926   835A      5.540950  
     836A      5.571458   837A      5.585771   838A      5.593250  
     839A      5.600627   840A      5.619888   841A      5.628970  
     842A      5.663470   843A      5.681331   844A      5.698783  
     845A      5.705187   846A      5.736296   847A      5.748627  
     848A      5.769813   849A      5.777178   850A      5.794407  
     851A      5.809240   852A      5.828360   853A      5.836775  
     854A      5.847001   855A      5.878478   856A      5.892822  
     857A      5.922739   858A      5.926868   859A      5.945771  
     860A      5.965430   861A      5.975017   862A      5.991368  
     863A      6.004784   864A      6.066035   865A      6.088253  
     866A      6.130477   867A      6.152368   868A      6.162671  
     869A      6.178716   870A      6.194293   871A      6.207957  
     872A      6.215076   873A      6.234415   874A      6.262936  
     875A      6.280812   876A      6.301537   877A      6.328559  
     878A      6.350168   879A      6.371609   880A      6.411048  
     881A      6.445087   882A      6.479918   883A      6.506629  
     884A      6.526373   885A      6.563743   886A      6.624433  
     887A      6.647666   888A      6.720393   889A      6.723398  
     890A      6.763257   891A      6.795592   892A      6.825961  
     893A      6.837457   894A      6.873580   895A      6.918922  
     896A      6.958210   897A      6.987634   898A      7.011164  
     899A      7.047458   900A      7.109165   901A      7.175765  
     902A      7.197156   903A      7.303126   904A      7.426681  
     905A      7.563458   906A      7.732962   907A     16.014188  
     908A     16.214839   909A     16.346335   910A     16.562413  
     911A     17.548629   912A     18.305970   913A     18.756674  
     914A     18.998583   915A     19.698310   916A     19.954218  
     917A     20.097018   918A     20.355392   919A     20.666619  
     920A     21.399678  

    Final Occupation by Irrep:
              A 
    DOCC [    49 ]

  @DF-RHF Final Energy:  -570.49825474335682

   => Energetics <=

    Nuclear Repulsion Energy =            791.1289203492316346
    One-Electron Energy =               -2342.3632207306723103
    Two-Electron Energy =                 980.7360456380839651
    Total Energy =                       -570.4982547433568243

Computation Completed

*** tstop() called on c453-033.stampede2.tacc.utexas.edu at Thu Apr  1 11:54:08 2021
Module time:
	user time   =    1033.09 seconds =      17.22 minutes
	system time =      20.63 seconds =       0.34 minutes
	total time  =        159 seconds =       2.65 minutes
Total time:
	user time   =    1033.09 seconds =      17.22 minutes
	system time =      20.63 seconds =       0.34 minutes
	total time  =        159 seconds =       2.65 minutes
   => Loading Basis Set <=

    Name: (AUG-CC-PVTZ AUX)
    Role: RIFIT
    Keyword: DF_BASIS_MP2
    atoms 1-2   entry N          line   206 file /home1/07844/xy3866/miniconda3/envs/p4env/share/psi4/basis/aug-cc-pvtz-ri.gbs 
    atoms 3-14  entry C          line   148 file /home1/07844/xy3866/miniconda3/envs/p4env/share/psi4/basis/aug-cc-pvtz-ri.gbs 
    atoms 15-26 entry H          line    30 file /home1/07844/xy3866/miniconda3/envs/p4env/share/psi4/basis/aug-cc-pvtz-ri.gbs 


*** tstart() called on c453-033.stampede2.tacc.utexas.edu
*** at Thu Apr  1 11:54:09 2021


  //>>>>>>>>>>>>>>>>>>>>>>>>>>>>>>>>>>>//
  //               DFMP2               //
  //<<<<<<<<<<<<<<<<<<<<<<<<<<<<<<<<<<<//

	 --------------------------------------------------------
	                          DF-MP2                         
	      2nd-Order Density-Fitted Moller-Plesset Theory     
	              RMP2 Wavefunction,   8 Threads             
	                                                         
	        Rob Parrish, Justin Turney, Andy Simmonett,      
	           Ed Hohenstein, and C. David Sherrill          
	 --------------------------------------------------------

   => Auxiliary Basis Set <=

  Basis Set: (AUG-CC-PVTZ AUX)
    Blend: AUG-CC-PVTZ-RI
    Number of shells: 560
    Number of basis functions: 2036
    Number of Cartesian functions: 2564
    Spherical Harmonics?: true
    Max angular momentum: 4

	 --------------------------------------------------------
	                 NBF =   920, NAUX =  2036
	 --------------------------------------------------------
	   CLASS    FOCC     OCC    AOCC    AVIR     VIR    FVIR
	   PAIRS       0      49      49     871     871       0
	 --------------------------------------------------------

  DFHelper Memory: AOs need 11.025 GiB; user supplied 22.352 GiB. Using in-core AOs.


         ------------------------------------------------------------
                                     CPHF                           
                                  Rob Parrish                       
         ------------------------------------------------------------

  ==> Geometry <==

    Molecular point group: c1
    Full point group: C1

    Geometry (in Angstrom), charge = 0, multiplicity = 1:

       Center              X                  Y                   Z               Mass       
    ------------   -----------------  -----------------  -----------------  -----------------
         N           -0.458808034890     1.067536660398    -0.311355635392    14.003074004430
         N            1.041192965110    -0.723258339602    -0.008288635392    14.003074004430
         C           -1.677430034890     0.393437660398    -0.119256635392    12.000000000000
         C            0.837516965110     0.593303660398    -0.150049635392    12.000000000000
         C            3.435222965110    -0.322826339602     0.117445364608    12.000000000000
         C            1.901476965110     1.520158660398    -0.175503635392    12.000000000000
         C            3.196763965110     1.052171660398    -0.038480635392    12.000000000000
         C           -2.786158034890     1.167494660398     0.262807364608    12.000000000000
         C           -1.854043034890    -0.976101339602    -0.375075635392    12.000000000000
         C            2.312971965110    -1.147940339602     0.122036364608    12.000000000000
         C            4.807204465110    -0.867680239602     0.265171864608    12.000000000000
         C           -4.042888034890     0.586159660398     0.409940364608    12.000000000000
         C           -3.115725034890    -1.547669339602    -0.205023635392    12.000000000000
         C           -4.216691034890    -0.779517339602     0.177123364608    12.000000000000
         H           -0.535715034890     2.075864660398    -0.235394635392     1.007825032230
         H            1.705635965110     2.583757660398    -0.297531635392     1.007825032230
         H            4.029503965110     1.754163660398    -0.051405635392     1.007825032230
         H           -2.655196034890     2.230719660398     0.462877364608     1.007825032230
         H           -1.006967034890    -1.578651339602    -0.673207635392     1.007825032230
         H            2.428852965110    -2.226054339602     0.238394364608     1.007825032230
         H            5.442131965110    -0.641542339602    -0.606918635392     1.007825032230
         H            5.326223965110    -0.456645339602     1.146311364608     1.007825032230
         H            4.801231965110    -1.962388339602     0.380285364608     1.007825032230
         H           -4.885866034890     1.204707660398     0.709290364608     1.007825032230
         H           -3.238111034890    -2.611346339602    -0.397064635392     1.007825032230
         H           -5.194222034890    -1.238655339602     0.299120364608     1.007825032230

  Nuclear repulsion =  791.128920349231635
  Reference energy  = -570.498254743356824

  ==> Basis Set <==

  Basis Set: AUG-CC-PVTZ
    Blend: AUG-CC-PVTZ
    Number of shells: 304
    Number of basis functions: 920
    Number of Cartesian functions: 1070
    Spherical Harmonics?: true
    Max angular momentum: 3

  ==> CGRSolver (by Rob Parrish) <==

   Number of roots    =         1
   Preconditioning    =    JACOBI
   Convergence cutoff =     1E-06
   Maximum iterations =       100

  ==> CPHFRHamiltonian (by Rob Parrish) <== 

  ==> MemDFJK: Density-Fitted J/K Matrices <==

    J tasked:                   Yes
    K tasked:                   Yes
    wK tasked:                   No
    OpenMP threads:               8
    Memory [MiB]:             22888
    Algorithm:                 Core
    Schwarz Cutoff:           1E-12
    Mask sparsity (%):      14.9104
    Fitting Condition:        1E-10

   => Auxiliary Basis Set <=

  Basis Set: (AUG-CC-PVTZ AUX)
    Blend: AUG-CC-PVTZ-JKFIT
    Number of shells: 588
    Number of basis functions: 2008
    Number of Cartesian functions: 2494
    Spherical Harmonics?: true
    Max angular momentum: 4

  ==> CPHF Iterations <==

  => Iterations <=

             Iter  Converged  Remaining    Residual
  CGR           1          0          1   9.616E-02
  CGR           2          0          1   3.754E-02
  CGR           3          0          1   2.277E-02
  CGR           4          0          1   8.655E-03
  CGR           5          0          1   3.414E-03
  CGR           6          0          1   1.433E-03
  CGR           7          0          1   4.221E-04
  CGR           8          0          1   1.474E-04
  CGR           9          0          1   5.773E-05
  CGR          10          0          1   3.082E-05
  CGR          11          0          1   1.494E-05
  CGR          12          0          1   4.889E-06
  CGR          13          0          1   2.001E-06
  CGR          14          1          0   5.820E-07

    CGRSolver converged.

	-----------------------------------------------------------
	 ==================> DF-MP2 Energies <==================== 
	-----------------------------------------------------------
	 Reference Energy          =    -570.4982547433568243 [Eh]
	 Singles Energy            =      -0.0000000000000000 [Eh]
	 Same-Spin Energy          =      -0.6365960528341882 [Eh]
	 Opposite-Spin Energy      =      -1.9710683805934581 [Eh]
	 Correlation Energy        =      -2.6076644334276464 [Eh]
	 Total Energy              =    -573.1059191767844823 [Eh]
	-----------------------------------------------------------
	 ================> DF-SCS-MP2 Energies <================== 
	-----------------------------------------------------------
	 SCS Same-Spin Scale       =       0.3333333333333333 [-]
	 SCS Opposite-Spin Scale   =       1.2000000000000000 [-]
	 SCS Same-Spin Energy      =      -0.2121986842780627 [Eh]
	 SCS Opposite-Spin Energy  =      -2.3652820567121497 [Eh]
	 SCS Correlation Energy    =      -2.5774807409902123 [Eh]
	 SCS Total Energy          =    -573.0757354843470921 [Eh]
	-----------------------------------------------------------



Properties will be evaluated at   0.000000,   0.000000,  -0.000000 [a0]

Properties computed using the MP2 density matrix

  Nuclear Dipole Moment: [e a0]
     X:     5.8270      Y:    -0.8129      Z:     0.9147

  Electronic Dipole Moment: [e a0]
     X:    -5.0939      Y:     1.5430      Z:    -0.8508

  Dipole Moment: [e a0]
     X:     0.7331      Y:     0.7301      Z:     0.0639     Total:     1.0366

  Dipole Moment: [D]
     X:     1.8634      Y:     1.8558      Z:     0.1625     Total:     2.6349


*** tstop() called on c453-033.stampede2.tacc.utexas.edu at Thu Apr  1 12:06:01 2021
Module time:
	user time   =    4575.85 seconds =      76.26 minutes
	system time =      60.63 seconds =       1.01 minutes
	total time  =        712 seconds =      11.87 minutes
Total time:
	user time   =    5610.25 seconds =      93.50 minutes
	system time =      81.27 seconds =       1.35 minutes
	total time  =        872 seconds =      14.53 minutes

    Psi4 stopped on: Thursday, 01 April 2021 12:06PM
    Psi4 wall time for execution: 0:14:34.37

*** Psi4 exiting successfully. Buy a developer a beer!
