
    -----------------------------------------------------------------------
          Psi4: An Open-Source Ab Initio Electronic Structure Package
                               Psi4 1.4a3.dev225 

                         Git: Rev {master} 7105e37 


    D. G. A. Smith, L. A. Burns, A. C. Simmonett, R. M. Parrish,
    M. C. Schieber, R. Galvelis, P. Kraus, H. Kruse, R. Di Remigio,
    A. Alenaizan, A. M. James, S. Lehtola, J. P. Misiewicz, M. Scheurer,
    R. A. Shaw, J. B. Schriber, Y. Xie, Z. L. Glick, D. A. Sirianni,
    J. S. O'Brien, J. M. Waldrop, A. Kumar, E. G. Hohenstein,
    B. P. Pritchard, B. R. Brooks, H. F. Schaefer III, A. Yu. Sokolov,
    K. Patkowski, A. E. DePrince III, U. Bozkaya, R. A. King,
    F. A. Evangelista, J. M. Turney, T. D. Crawford, C. D. Sherrill,
    J. Chem. Phys. 152(18) 184108 (2020). https://doi.org/10.1063/5.0006002

                            Additional Code Authors
    E. T. Seidl, C. L. Janssen, E. F. Valeev, M. L. Leininger,
    J. F. Gonthier, R. M. Richard, H. R. McAlexander, M. Saitow, X. Wang,
    P. Verma, and M. H. Lechner

             Previous Authors, Complete List of Code Contributors,
                       and Citations for Specific Modules
    https://github.com/psi4/psi4/blob/master/codemeta.json
    https://github.com/psi4/psi4/graphs/contributors
    http://psicode.org/psi4manual/master/introduction.html#citing-psifour

    -----------------------------------------------------------------------


    Psi4 started on: Thursday, 01 April 2021 06:51AM

    Process ID: 8718
    Host:       c453-033.stampede2.tacc.utexas.edu
    PSIDATADIR: /home1/07844/xy3866/miniconda3/envs/p4env/share/psi4
    Memory:     500.0 MiB
    Threads:    8
    
  ==> Input File <==

--------------------------------------------------------------------------
#psi4
#
memory 32 gb

molecule  {
0 1
  N       -0.4914050     1.0723760    -0.3164170
  N        1.0085960    -0.7184190    -0.0133500
  C       -1.7100270     0.3982770    -0.1243180
  C        0.7862643     0.6049678    -0.1574324
  C        3.4026260    -0.3179870     0.1123840
  C        1.8688800     1.5249980    -0.1805650
  C        3.1641670     1.0570110    -0.0435420
  C       -2.8187550     1.1723340     0.2577460
  C       -1.8866400    -0.9712620    -0.3801370
  C        2.2803750    -1.1431010     0.1169750
  C        4.7931030    -0.8701860     0.2621020
  C       -4.0754850     0.5909990     0.4048790
  C       -3.1483220    -1.5428300    -0.2100850
  C       -4.2492880    -0.7746780     0.1720620
  H       -0.5683120     2.0807040    -0.2404560
  H        1.6730390     2.5885970    -0.3025930
  H        3.9969070     1.7590030    -0.0564670
  H       -2.6877930     2.2355590     0.4578160
  H       -1.0395640    -1.5738120    -0.6782690
  H        2.3962560    -2.2212150     0.2333330
  H        5.4095350    -0.6367030    -0.6119800
  H        5.2936270    -0.4518060     1.1412500
  H        4.7686350    -1.9575490     0.3752240
  H       -4.9184630     1.2095470     0.7042290
  H       -3.2707080    -2.6065070    -0.4021260
  H       -5.2268190    -1.2338160     0.2940590
units angstrom
no_reorient  #important for SAPT in psi4, default
symmetry c1  #important for SAPT in psi4, default
}

set PROPERTIES_ORIGIN ["COM"]
properties('MP2/aug-cc-pvtz', properties = ['dipole'])
--------------------------------------------------------------------------

  Memory set to  29.802 GiB by Python driver.
    SCF Algorithm Type (re)set to DF.

*** tstart() called on c453-033.stampede2.tacc.utexas.edu
*** at Thu Apr  1 06:51:40 2021

   => Loading Basis Set <=

    Name: AUG-CC-PVTZ
    Role: ORBITAL
    Keyword: BASIS
    atoms 1-2   entry N          line   285 file /home1/07844/xy3866/miniconda3/envs/p4env/share/psi4/basis/aug-cc-pvtz.gbs 
    atoms 3-14  entry C          line   239 file /home1/07844/xy3866/miniconda3/envs/p4env/share/psi4/basis/aug-cc-pvtz.gbs 
    atoms 15-26 entry H          line    40 file /home1/07844/xy3866/miniconda3/envs/p4env/share/psi4/basis/aug-cc-pvtz.gbs 


         ---------------------------------------------------------
                                   SCF
               by Justin Turney, Rob Parrish, Andy Simmonett
                          and Daniel G. A. Smith
                              RHF Reference
                        8 Threads,  30517 MiB Core
         ---------------------------------------------------------

  ==> Geometry <==

    Molecular point group: c1
    Full point group: C1

    Geometry (in Angstrom), charge = 0, multiplicity = 1:

       Center              X                  Y                   Z               Mass       
    ------------   -----------------  -----------------  -----------------  -----------------
         N           -0.458797592742     1.067570574566    -0.311334131867    14.003074004430
         N            1.041203407258    -0.723224425434    -0.008267131867    14.003074004430
         C           -1.677419592742     0.393471574566    -0.119235131867    12.000000000000
         C            0.818871707258     0.600162374566    -0.152349531867    12.000000000000
         C            3.435233407258    -0.322792425434     0.117466868133    12.000000000000
         C            1.901487407258     1.520192574566    -0.175482131867    12.000000000000
         C            3.196774407258     1.052205574566    -0.038459131867    12.000000000000
         C           -2.786147592742     1.167528574566     0.262828868133    12.000000000000
         C           -1.854032592742    -0.976067425434    -0.375054131867    12.000000000000
         C            2.312982407258    -1.147906425434     0.122057868133    12.000000000000
         C            4.825710407258    -0.874991425434     0.267184868133    12.000000000000
         C           -4.042877592742     0.586193574566     0.409961868133    12.000000000000
         C           -3.115714592742    -1.547635425434    -0.205002131867    12.000000000000
         C           -4.216680592742    -0.779483425434     0.177144868133    12.000000000000
         H           -0.535704592742     2.075898574566    -0.235373131867     1.007825032230
         H            1.705646407258     2.583791574566    -0.297510131867     1.007825032230
         H            4.029514407258     1.754197574566    -0.051384131867     1.007825032230
         H           -2.655185592742     2.230753574566     0.462898868133     1.007825032230
         H           -1.006956592742    -1.578617425434    -0.673186131867     1.007825032230
         H            2.428863407258    -2.226020425434     0.238415868133     1.007825032230
         H            5.442142407258    -0.641508425434    -0.606897131867     1.007825032230
         H            5.326234407258    -0.456611425434     1.146332868133     1.007825032230
         H            4.801242407258    -1.962354425434     0.380306868133     1.007825032230
         H           -4.885855592742     1.204741574566     0.709311868133     1.007825032230
         H           -3.238100592742    -2.611312425434    -0.397043131867     1.007825032230
         H           -5.194211592742    -1.238621425434     0.299141868133     1.007825032230

  Running in c1 symmetry.

  Rotational constants: A =      0.07732  B =      0.01080  C =      0.00961 [cm^-1]
  Rotational constants: A =   2318.03306  B =    323.73987  C =    288.04353 [MHz]
  Nuclear repulsion =  790.748733807390522

  Charge       = 0
  Multiplicity = 1
  Electrons    = 98
  Nalpha       = 49
  Nbeta        = 49

  ==> Algorithm <==

  SCF Algorithm Type is DF.
  DIIS enabled.
  MOM disabled.
  Fractional occupation disabled.
  Guess Type is SAD.
  Energy threshold   = 1.00e-10
  Density threshold  = 1.00e-10
  Integral threshold = 1.00e-12

  ==> Primary Basis <==

  Basis Set: AUG-CC-PVTZ
    Blend: AUG-CC-PVTZ
    Number of shells: 304
    Number of basis functions: 920
    Number of Cartesian functions: 1070
    Spherical Harmonics?: true
    Max angular momentum: 3

   => Loading Basis Set <=

    Name: (AUG-CC-PVTZ AUX)
    Role: JKFIT
    Keyword: DF_BASIS_SCF
    atoms 1-2   entry N          line   224 file /home1/07844/xy3866/miniconda3/envs/p4env/share/psi4/basis/aug-cc-pvtz-jkfit.gbs 
    atoms 3-14  entry C          line   162 file /home1/07844/xy3866/miniconda3/envs/p4env/share/psi4/basis/aug-cc-pvtz-jkfit.gbs 
    atoms 15-26 entry H          line    70 file /home1/07844/xy3866/miniconda3/envs/p4env/share/psi4/basis/aug-cc-pvtz-jkfit.gbs 

  ==> Integral Setup <==

  DFHelper Memory: AOs need 10.174 GiB; user supplied 22.352 GiB. Using in-core AOs.

  ==> MemDFJK: Density-Fitted J/K Matrices <==

    J tasked:                   Yes
    K tasked:                   Yes
    wK tasked:                   No
    OpenMP threads:               8
    Memory [MiB]:             22888
    Algorithm:                 Core
    Schwarz Cutoff:           1E-12
    Mask sparsity (%):      21.6316
    Fitting Condition:        1E-10

   => Auxiliary Basis Set <=

  Basis Set: (AUG-CC-PVTZ AUX)
    Blend: AUG-CC-PVTZ-JKFIT
    Number of shells: 588
    Number of basis functions: 2008
    Number of Cartesian functions: 2494
    Spherical Harmonics?: true
    Max angular momentum: 4

  Minimum eigenvalue in the overlap matrix is 5.6989408295E-07.
  Reciprocal condition number of the overlap matrix is 2.9221080108E-08.
    Using symmetric orthogonalization.

  ==> Pre-Iterations <==

  SCF Guess: Superposition of Atomic Densities via on-the-fly atomic UHF (no occupation information).

   -------------------------
    Irrep   Nso     Nmo    
   -------------------------
     A        920     920 
   -------------------------
    Total     920     920
   -------------------------

  ==> Iterations <==

                           Total Energy        Delta E     RMS |[F,P]|

   @DF-RHF iter SAD:  -569.97191555089410   -5.69972e+02   0.00000e+00 
   @DF-RHF iter   1:  -570.10558557160709   -1.33670e-01   8.71743e-04 DIIS
   @DF-RHF iter   2:  -570.42696715342936   -3.21382e-01   3.98613e-04 DIIS
   @DF-RHF iter   3:  -570.49256437792087   -6.55972e-02   9.15008e-05 DIIS
   @DF-RHF iter   4:  -570.49717759768157   -4.61322e-03   4.23760e-05 DIIS
   @DF-RHF iter   5:  -570.49801631736386   -8.38720e-04   7.44323e-06 DIIS
   @DF-RHF iter   6:  -570.49806011169665   -4.37943e-05   3.06587e-06 DIIS
   @DF-RHF iter   7:  -570.49806798644784   -7.87475e-06   1.11999e-06 DIIS
   @DF-RHF iter   8:  -570.49806944176862   -1.45532e-06   4.83828e-07 DIIS
   @DF-RHF iter   9:  -570.49806975412957   -3.12361e-07   2.15219e-07 DIIS
   @DF-RHF iter  10:  -570.49806983471854   -8.05890e-08   1.03285e-07 DIIS
   @DF-RHF iter  11:  -570.49806985645091   -2.17324e-08   4.41668e-08 DIIS
   @DF-RHF iter  12:  -570.49806986036515   -3.91424e-09   1.75999e-08 DIIS
   @DF-RHF iter  13:  -570.49806986087265   -5.07498e-10   5.08217e-09 DIIS
   @DF-RHF iter  14:  -570.49806986090437   -3.17186e-11   2.12341e-09 DIIS
   @DF-RHF iter  15:  -570.49806986091028   -5.91172e-12   9.31356e-10 DIIS
   @DF-RHF iter  16:  -570.49806986091119   -9.09495e-13   4.89615e-10 DIIS
   @DF-RHF iter  17:  -570.49806986091426   -3.06954e-12   2.48310e-10 DIIS
   @DF-RHF iter  18:  -570.49806986091278    1.47793e-12   8.96795e-11 DIIS
  Energy and wave function converged.


  ==> Post-Iterations <==

    Orbital Energies [Eh]
    ---------------------

    Doubly Occupied:                                                      

       1A    -15.592003     2A    -15.552108     3A    -11.323686  
       4A    -11.282404     5A    -11.271502     6A    -11.257171  
       7A    -11.238234     8A    -11.234894     9A    -11.233291  
      10A    -11.231384    11A    -11.230288    12A    -11.227703  
      13A    -11.222935    14A    -11.219892    15A     -1.295891  
      16A     -1.219477    17A     -1.134896    18A     -1.094375  
      19A     -1.044530    20A     -1.009357    21A     -0.994740  
      22A     -0.933835    23A     -0.867048    24A     -0.842990  
      25A     -0.821851    26A     -0.797850    27A     -0.726304  
      28A     -0.717358    29A     -0.671295    30A     -0.651556  
      31A     -0.636664    32A     -0.621321    33A     -0.597397  
      34A     -0.594305    35A     -0.588723    36A     -0.580572  
      37A     -0.570182    38A     -0.561911    39A     -0.545294  
      40A     -0.518455    41A     -0.510629    42A     -0.504880  
      43A     -0.488515    44A     -0.455843    45A     -0.410837  
      46A     -0.379713    47A     -0.336428    48A     -0.331313  
      49A     -0.276478  

    Virtual:                                                              

      50A      0.023329    51A      0.027875    52A      0.032434  
      53A      0.038903    54A      0.039658    55A      0.045041  
      56A      0.050932    57A      0.053001    58A      0.058755  
      59A      0.064937    60A      0.072589    61A      0.076029  
      62A      0.084996    63A      0.088820    64A      0.090354  
      65A      0.094425    66A      0.099536    67A      0.107090  
      68A      0.108022    69A      0.108877    70A      0.113242  
      71A      0.115349    72A      0.115879    73A      0.119281  
      74A      0.120850    75A      0.123770    76A      0.127148  
      77A      0.131314    78A      0.133065    79A      0.133946  
      80A      0.136542    81A      0.139667    82A      0.141387  
      83A      0.147847    84A      0.149844    85A      0.152745  
      86A      0.154307    87A      0.157810    88A      0.162172  
      89A      0.166413    90A      0.168517    91A      0.171591  
      92A      0.174154    93A      0.182222    94A      0.183164  
      95A      0.186446    96A      0.190847    97A      0.194517  
      98A      0.207792    99A      0.211811   100A      0.213128  
     101A      0.215412   102A      0.223506   103A      0.230464  
     104A      0.235648   105A      0.239513   106A      0.240228  
     107A      0.246927   108A      0.250020   109A      0.254844  
     110A      0.257143   111A      0.262059   112A      0.266684  
     113A      0.269808   114A      0.272814   115A      0.273136  
     116A      0.278586   117A      0.283308   118A      0.286560  
     119A      0.291655   120A      0.297647   121A      0.301515  
     122A      0.302095   123A      0.307444   124A      0.309716  
     125A      0.313211   126A      0.317898   127A      0.322434  
     128A      0.323960   129A      0.328320   130A      0.331455  
     131A      0.333419   132A      0.337203   133A      0.340258  
     134A      0.343177   135A      0.344600   136A      0.350404  
     137A      0.352104   138A      0.354169   139A      0.358760  
     140A      0.364613   141A      0.369774   142A      0.376563  
     143A      0.380695   144A      0.383315   145A      0.387437  
     146A      0.392643   147A      0.397816   148A      0.398122  
     149A      0.400022   150A      0.407346   151A      0.408885  
     152A      0.417744   153A      0.418503   154A      0.426001  
     155A      0.428590   156A      0.429524   157A      0.432526  
     158A      0.439003   159A      0.442262   160A      0.446562  
     161A      0.450959   162A      0.453288   163A      0.457201  
     164A      0.459811   165A      0.461973   166A      0.464760  
     167A      0.470312   168A      0.471634   169A      0.472597  
     170A      0.473895   171A      0.475710   172A      0.480084  
     173A      0.484601   174A      0.487570   175A      0.492788  
     176A      0.497308   177A      0.500250   178A      0.500550  
     179A      0.503532   180A      0.505293   181A      0.509448  
     182A      0.511352   183A      0.512174   184A      0.515058  
     185A      0.519172   186A      0.522503   187A      0.528774  
     188A      0.531755   189A      0.533731   190A      0.534179  
     191A      0.543617   192A      0.545375   193A      0.546538  
     194A      0.551848   195A      0.555601   196A      0.556016  
     197A      0.558518   198A      0.561233   199A      0.563775  
     200A      0.566629   201A      0.575227   202A      0.576963  
     203A      0.580720   204A      0.583191   205A      0.592540  
     206A      0.594997   207A      0.602311   208A      0.612395  
     209A      0.616474   210A      0.621727   211A      0.628143  
     212A      0.628640   213A      0.637443   214A      0.641416  
     215A      0.646188   216A      0.648584   217A      0.655152  
     218A      0.661655   219A      0.664221   220A      0.667200  
     221A      0.673450   222A      0.677048   223A      0.687804  
     224A      0.691959   225A      0.700443   226A      0.705480  
     227A      0.709976   228A      0.712152   229A      0.719962  
     230A      0.721590   231A      0.723664   232A      0.727093  
     233A      0.735551   234A      0.737681   235A      0.747222  
     236A      0.747876   237A      0.748990   238A      0.754328  
     239A      0.760216   240A      0.764915   241A      0.768953  
     242A      0.779890   243A      0.786220   244A      0.798784  
     245A      0.802890   246A      0.805576   247A      0.813517  
     248A      0.818974   249A      0.826444   250A      0.828361  
     251A      0.832858   252A      0.840459   253A      0.848214  
     254A      0.849584   255A      0.852114   256A      0.853105  
     257A      0.860519   258A      0.864424   259A      0.868084  
     260A      0.871545   261A      0.875927   262A      0.882681  
     263A      0.883046   264A      0.885347   265A      0.889875  
     266A      0.894589   267A      0.898331   268A      0.902417  
     269A      0.905765   270A      0.909716   271A      0.912855  
     272A      0.916838   273A      0.922680   274A      0.926131  
     275A      0.928912   276A      0.933579   277A      0.935828  
     278A      0.937110   279A      0.944469   280A      0.948502  
     281A      0.952795   282A      0.954083   283A      0.955140  
     284A      0.960943   285A      0.967700   286A      0.969981  
     287A      0.977722   288A      0.980895   289A      0.985304  
     290A      0.988672   291A      0.997201   292A      1.001601  
     293A      1.006030   294A      1.010037   295A      1.019193  
     296A      1.020574   297A      1.025314   298A      1.027993  
     299A      1.034351   300A      1.037785   301A      1.046657  
     302A      1.049881   303A      1.052632   304A      1.055463  
     305A      1.058628   306A      1.063765   307A      1.068092  
     308A      1.070256   309A      1.076099   310A      1.080478  
     311A      1.082435   312A      1.086085   313A      1.087632  
     314A      1.092455   315A      1.095175   316A      1.099235  
     317A      1.104196   318A      1.108563   319A      1.109957  
     320A      1.115419   321A      1.121264   322A      1.122844  
     323A      1.124479   324A      1.128672   325A      1.132609  
     326A      1.136219   327A      1.138284   328A      1.146549  
     329A      1.150082   330A      1.161384   331A      1.164595  
     332A      1.168951   333A      1.171200   334A      1.174723  
     335A      1.181045   336A      1.184643   337A      1.189014  
     338A      1.194289   339A      1.197420   340A      1.201470  
     341A      1.205021   342A      1.207324   343A      1.210040  
     344A      1.218778   345A      1.219674   346A      1.225057  
     347A      1.231911   348A      1.233111   349A      1.234800  
     350A      1.237237   351A      1.241012   352A      1.246804  
     353A      1.248342   354A      1.255792   355A      1.259586  
     356A      1.265900   357A      1.272638   358A      1.281776  
     359A      1.283274   360A      1.291974   361A      1.300142  
     362A      1.300926   363A      1.306699   364A      1.311204  
     365A      1.326881   366A      1.335358   367A      1.341585  
     368A      1.346760   369A      1.351897   370A      1.354911  
     371A      1.364054   372A      1.367395   373A      1.371313  
     374A      1.378515   375A      1.386592   376A      1.393135  
     377A      1.393856   378A      1.404447   379A      1.404636  
     380A      1.409891   381A      1.417143   382A      1.423437  
     383A      1.429172   384A      1.432848   385A      1.436655  
     386A      1.441003   387A      1.447974   388A      1.458021  
     389A      1.463154   390A      1.468418   391A      1.477702  
     392A      1.480129   393A      1.483486   394A      1.492528  
     395A      1.495340   396A      1.502630   397A      1.508143  
     398A      1.523309   399A      1.531922   400A      1.534134  
     401A      1.540832   402A      1.547790   403A      1.551952  
     404A      1.555155   405A      1.558798   406A      1.570117  
     407A      1.577406   408A      1.582479   409A      1.592027  
     410A      1.597869   411A      1.608141   412A      1.609547  
     413A      1.620359   414A      1.623168   415A      1.633940  
     416A      1.636408   417A      1.642283   418A      1.650206  
     419A      1.658710   420A      1.664458   421A      1.667702  
     422A      1.669670   423A      1.677413   424A      1.692172  
     425A      1.692859   426A      1.701285   427A      1.714827  
     428A      1.721338   429A      1.726023   430A      1.732972  
     431A      1.734464   432A      1.739566   433A      1.742184  
     434A      1.752347   435A      1.758597   436A      1.767169  
     437A      1.775988   438A      1.781410   439A      1.788616  
     440A      1.794508   441A      1.796266   442A      1.803132  
     443A      1.813734   444A      1.819560   445A      1.826588  
     446A      1.834258   447A      1.837036   448A      1.849388  
     449A      1.854757   450A      1.859642   451A      1.864476  
     452A      1.871311   453A      1.875562   454A      1.884193  
     455A      1.893168   456A      1.896306   457A      1.907047  
     458A      1.919207   459A      1.920509   460A      1.926813  
     461A      1.933438   462A      1.935285   463A      1.937374  
     464A      1.947101   465A      1.950319   466A      1.955939  
     467A      1.967785   468A      1.976056   469A      1.981381  
     470A      1.985556   471A      1.998794   472A      2.006375  
     473A      2.013382   474A      2.017457   475A      2.025916  
     476A      2.037094   477A      2.039753   478A      2.044903  
     479A      2.051917   480A      2.054322   481A      2.059438  
     482A      2.072765   483A      2.074267   484A      2.081210  
     485A      2.087948   486A      2.091198   487A      2.097233  
     488A      2.104434   489A      2.109167   490A      2.116994  
     491A      2.124409   492A      2.130325   493A      2.138545  
     494A      2.143899   495A      2.151169   496A      2.154001  
     497A      2.159317   498A      2.164049   499A      2.182087  
     500A      2.188230   501A      2.192144   502A      2.203955  
     503A      2.210422   504A      2.212692   505A      2.222774  
     506A      2.233661   507A      2.247168   508A      2.255281  
     509A      2.261681   510A      2.265681   511A      2.269964  
     512A      2.273483   513A      2.284569   514A      2.285514  
     515A      2.292413   516A      2.306124   517A      2.316958  
     518A      2.326044   519A      2.328306   520A      2.338171  
     521A      2.342570   522A      2.356743   523A      2.366039  
     524A      2.370330   525A      2.384258   526A      2.385371  
     527A      2.404581   528A      2.407915   529A      2.420628  
     530A      2.424798   531A      2.431861   532A      2.432783  
     533A      2.441754   534A      2.452876   535A      2.464482  
     536A      2.476749   537A      2.478801   538A      2.494308  
     539A      2.498324   540A      2.511218   541A      2.520588  
     542A      2.545453   543A      2.554893   544A      2.563176  
     545A      2.578264   546A      2.583660   547A      2.589763  
     548A      2.605427   549A      2.624823   550A      2.635085  
     551A      2.654493   552A      2.668611   553A      2.681182  
     554A      2.698254   555A      2.708426   556A      2.724872  
     557A      2.727454   558A      2.753352   559A      2.756579  
     560A      2.766496   561A      2.791286   562A      2.800745  
     563A      2.807844   564A      2.820920   565A      2.826453  
     566A      2.838427   567A      2.849899   568A      2.873911  
     569A      2.879035   570A      2.924169   571A      2.933985  
     572A      2.939398   573A      2.978824   574A      2.995337  
     575A      2.998877   576A      3.049317   577A      3.058346  
     578A      3.095818   579A      3.116233   580A      3.117739  
     581A      3.140573   582A      3.173656   583A      3.205704  
     584A      3.211210   585A      3.216248   586A      3.235833  
     587A      3.237202   588A      3.247193   589A      3.260478  
     590A      3.274431   591A      3.274877   592A      3.308599  
     593A      3.312877   594A      3.321600   595A      3.329842  
     596A      3.335629   597A      3.372342   598A      3.373873  
     599A      3.384843   600A      3.391092   601A      3.391701  
     602A      3.396528   603A      3.402321   604A      3.415486  
     605A      3.430763   606A      3.441108   607A      3.449212  
     608A      3.450674   609A      3.455794   610A      3.468582  
     611A      3.473823   612A      3.481767   613A      3.491803  
     614A      3.499149   615A      3.506181   616A      3.514465  
     617A      3.533381   618A      3.538571   619A      3.544017  
     620A      3.552817   621A      3.562418   622A      3.568373  
     623A      3.569624   624A      3.579335   625A      3.580790  
     626A      3.593899   627A      3.601126   628A      3.608659  
     629A      3.613307   630A      3.628502   631A      3.629525  
     632A      3.641375   633A      3.652869   634A      3.657151  
     635A      3.669577   636A      3.673066   637A      3.676309  
     638A      3.680296   639A      3.682351   640A      3.691493  
     641A      3.700733   642A      3.713192   643A      3.723216  
     644A      3.735306   645A      3.748079   646A      3.751300  
     647A      3.764963   648A      3.767846   649A      3.774537  
     650A      3.779559   651A      3.788156   652A      3.802698  
     653A      3.806299   654A      3.815866   655A      3.820611  
     656A      3.845223   657A      3.854457   658A      3.858037  
     659A      3.863599   660A      3.870679   661A      3.881837  
     662A      3.890098   663A      3.893455   664A      3.896396  
     665A      3.901546   666A      3.908898   667A      3.922426  
     668A      3.925618   669A      3.938183   670A      3.943181  
     671A      3.951621   672A      3.957554   673A      3.964174  
     674A      3.969000   675A      3.972356   676A      3.984106  
     677A      3.994503   678A      3.998473   679A      4.000782  
     680A      4.003445   681A      4.013487   682A      4.020946  
     683A      4.025674   684A      4.035184   685A      4.045822  
     686A      4.053942   687A      4.057642   688A      4.085523  
     689A      4.086292   690A      4.092018   691A      4.099943  
     692A      4.109790   693A      4.122548   694A      4.124956  
     695A      4.138216   696A      4.141638   697A      4.142501  
     698A      4.149954   699A      4.156131   700A      4.161818  
     701A      4.168772   702A      4.179989   703A      4.188011  
     704A      4.199964   705A      4.211706   706A      4.216335  
     707A      4.229557   708A      4.234745   709A      4.248122  
     710A      4.253212   711A      4.258537   712A      4.268845  
     713A      4.276267   714A      4.279833   715A      4.291399  
     716A      4.300811   717A      4.307193   718A      4.313965  
     719A      4.318282   720A      4.334027   721A      4.349082  
     722A      4.354770   723A      4.364870   724A      4.373272  
     725A      4.380242   726A      4.396882   727A      4.399425  
     728A      4.404020   729A      4.410763   730A      4.415371  
     731A      4.425749   732A      4.431417   733A      4.444458  
     734A      4.445611   735A      4.456097   736A      4.457376  
     737A      4.469728   738A      4.473001   739A      4.480241  
     740A      4.491498   741A      4.496378   742A      4.497805  
     743A      4.508593   744A      4.523498   745A      4.529104  
     746A      4.540946   747A      4.550442   748A      4.557282  
     749A      4.567155   750A      4.588406   751A      4.591808  
     752A      4.593456   753A      4.603875   754A      4.628931  
     755A      4.637160   756A      4.658410   757A      4.660942  
     758A      4.684729   759A      4.691772   760A      4.696119  
     761A      4.713979   762A      4.724206   763A      4.728782  
     764A      4.741284   765A      4.744936   766A      4.755783  
     767A      4.760810   768A      4.786250   769A      4.789905  
     770A      4.800757   771A      4.805924   772A      4.820971  
     773A      4.826546   774A      4.858091   775A      4.867498  
     776A      4.880373   777A      4.903756   778A      4.913337  
     779A      4.919137   780A      4.926414   781A      4.937258  
     782A      4.947775   783A      4.954699   784A      4.959359  
     785A      4.969886   786A      4.984447   787A      4.995699  
     788A      5.016803   789A      5.027371   790A      5.052120  
     791A      5.064604   792A      5.069811   793A      5.076841  
     794A      5.084659   795A      5.089885   796A      5.094588  
     797A      5.105456   798A      5.118558   799A      5.122907  
     800A      5.128236   801A      5.139938   802A      5.146515  
     803A      5.152664   804A      5.164410   805A      5.166415  
     806A      5.179118   807A      5.185019   808A      5.199331  
     809A      5.211159   810A      5.215993   811A      5.231141  
     812A      5.237493   813A      5.250505   814A      5.269216  
     815A      5.277361   816A      5.293569   817A      5.310682  
     818A      5.315950   819A      5.324332   820A      5.328663  
     821A      5.347576   822A      5.353003   823A      5.366050  
     824A      5.375937   825A      5.389816   826A      5.400472  
     827A      5.423951   828A      5.439771   829A      5.468732  
     830A      5.476430   831A      5.494600   832A      5.521826  
     833A      5.533925   834A      5.538344   835A      5.569637  
     836A      5.583779   837A      5.588265   838A      5.592868  
     839A      5.600875   840A      5.620286   841A      5.626771  
     842A      5.661045   843A      5.681217   844A      5.698718  
     845A      5.705736   846A      5.731694   847A      5.748454  
     848A      5.771534   849A      5.777633   850A      5.794261  
     851A      5.808468   852A      5.826428   853A      5.836647  
     854A      5.843030   855A      5.873971   856A      5.890237  
     857A      5.919529   858A      5.925995   859A      5.942390  
     860A      5.965241   861A      5.969230   862A      6.001315  
     863A      6.006888   864A      6.063742   865A      6.094695  
     866A      6.126199   867A      6.157277   868A      6.167265  
     869A      6.183285   870A      6.193547   871A      6.209246  
     872A      6.213928   873A      6.236042   874A      6.259721  
     875A      6.278079   876A      6.296884   877A      6.316999  
     878A      6.350348   879A      6.370584   880A      6.413380  
     881A      6.448015   882A      6.479633   883A      6.500967  
     884A      6.515997   885A      6.560620   886A      6.623827  
     887A      6.646303   888A      6.720898   889A      6.727853  
     890A      6.760850   891A      6.796419   892A      6.825092  
     893A      6.832286   894A      6.872736   895A      6.916582  
     896A      6.956436   897A      6.983421   898A      7.009869  
     899A      7.042621   900A      7.103957   901A      7.178874  
     902A      7.209696   903A      7.306229   904A      7.426700  
     905A      7.564518   906A      7.737882   907A     15.964991  
     908A     16.205873   909A     16.302322   910A     16.499283  
     911A     17.590547   912A     18.324731   913A     18.753779  
     914A     18.992847   915A     19.703045   916A     19.951106  
     917A     20.065864   918A     20.353720   919A     20.603372  
     920A     21.460079  

    Final Occupation by Irrep:
              A 
    DOCC [    49 ]

  @DF-RHF Final Energy:  -570.49806986091278

   => Energetics <=

    Nuclear Repulsion Energy =            790.7487338073905221
    One-Electron Energy =               -2341.5929885783939426
    Two-Electron Energy =                 980.3461849100905283
    Total Energy =                       -570.4980698609127785

Computation Completed

*** tstop() called on c453-033.stampede2.tacc.utexas.edu at Thu Apr  1 06:54:18 2021
Module time:
	user time   =    1027.11 seconds =      17.12 minutes
	system time =      20.14 seconds =       0.34 minutes
	total time  =        158 seconds =       2.63 minutes
Total time:
	user time   =    1027.11 seconds =      17.12 minutes
	system time =      20.14 seconds =       0.34 minutes
	total time  =        158 seconds =       2.63 minutes
   => Loading Basis Set <=

    Name: (AUG-CC-PVTZ AUX)
    Role: RIFIT
    Keyword: DF_BASIS_MP2
    atoms 1-2   entry N          line   206 file /home1/07844/xy3866/miniconda3/envs/p4env/share/psi4/basis/aug-cc-pvtz-ri.gbs 
    atoms 3-14  entry C          line   148 file /home1/07844/xy3866/miniconda3/envs/p4env/share/psi4/basis/aug-cc-pvtz-ri.gbs 
    atoms 15-26 entry H          line    30 file /home1/07844/xy3866/miniconda3/envs/p4env/share/psi4/basis/aug-cc-pvtz-ri.gbs 


*** tstart() called on c453-033.stampede2.tacc.utexas.edu
*** at Thu Apr  1 06:54:19 2021


  //>>>>>>>>>>>>>>>>>>>>>>>>>>>>>>>>>>>//
  //               DFMP2               //
  //<<<<<<<<<<<<<<<<<<<<<<<<<<<<<<<<<<<//

	 --------------------------------------------------------
	                          DF-MP2                         
	      2nd-Order Density-Fitted Moller-Plesset Theory     
	              RMP2 Wavefunction,   8 Threads             
	                                                         
	        Rob Parrish, Justin Turney, Andy Simmonett,      
	           Ed Hohenstein, and C. David Sherrill          
	 --------------------------------------------------------

   => Auxiliary Basis Set <=

  Basis Set: (AUG-CC-PVTZ AUX)
    Blend: AUG-CC-PVTZ-RI
    Number of shells: 560
    Number of basis functions: 2036
    Number of Cartesian functions: 2564
    Spherical Harmonics?: true
    Max angular momentum: 4

	 --------------------------------------------------------
	                 NBF =   920, NAUX =  2036
	 --------------------------------------------------------
	   CLASS    FOCC     OCC    AOCC    AVIR     VIR    FVIR
	   PAIRS       0      49      49     871     871       0
	 --------------------------------------------------------

  DFHelper Memory: AOs need 11.024 GiB; user supplied 22.352 GiB. Using in-core AOs.


         ------------------------------------------------------------
                                     CPHF                           
                                  Rob Parrish                       
         ------------------------------------------------------------

  ==> Geometry <==

    Molecular point group: c1
    Full point group: C1

    Geometry (in Angstrom), charge = 0, multiplicity = 1:

       Center              X                  Y                   Z               Mass       
    ------------   -----------------  -----------------  -----------------  -----------------
         N           -0.458797592742     1.067570574566    -0.311334131867    14.003074004430
         N            1.041203407258    -0.723224425434    -0.008267131867    14.003074004430
         C           -1.677419592742     0.393471574566    -0.119235131867    12.000000000000
         C            0.818871707258     0.600162374566    -0.152349531867    12.000000000000
         C            3.435233407258    -0.322792425434     0.117466868133    12.000000000000
         C            1.901487407258     1.520192574566    -0.175482131867    12.000000000000
         C            3.196774407258     1.052205574566    -0.038459131867    12.000000000000
         C           -2.786147592742     1.167528574566     0.262828868133    12.000000000000
         C           -1.854032592742    -0.976067425434    -0.375054131867    12.000000000000
         C            2.312982407258    -1.147906425434     0.122057868133    12.000000000000
         C            4.825710407258    -0.874991425434     0.267184868133    12.000000000000
         C           -4.042877592742     0.586193574566     0.409961868133    12.000000000000
         C           -3.115714592742    -1.547635425434    -0.205002131867    12.000000000000
         C           -4.216680592742    -0.779483425434     0.177144868133    12.000000000000
         H           -0.535704592742     2.075898574566    -0.235373131867     1.007825032230
         H            1.705646407258     2.583791574566    -0.297510131867     1.007825032230
         H            4.029514407258     1.754197574566    -0.051384131867     1.007825032230
         H           -2.655185592742     2.230753574566     0.462898868133     1.007825032230
         H           -1.006956592742    -1.578617425434    -0.673186131867     1.007825032230
         H            2.428863407258    -2.226020425434     0.238415868133     1.007825032230
         H            5.442142407258    -0.641508425434    -0.606897131867     1.007825032230
         H            5.326234407258    -0.456611425434     1.146332868133     1.007825032230
         H            4.801242407258    -1.962354425434     0.380306868133     1.007825032230
         H           -4.885855592742     1.204741574566     0.709311868133     1.007825032230
         H           -3.238100592742    -2.611312425434    -0.397043131867     1.007825032230
         H           -5.194211592742    -1.238621425434     0.299141868133     1.007825032230

  Nuclear repulsion =  790.748733807390522
  Reference energy  = -570.498069860912778

  ==> Basis Set <==

  Basis Set: AUG-CC-PVTZ
    Blend: AUG-CC-PVTZ
    Number of shells: 304
    Number of basis functions: 920
    Number of Cartesian functions: 1070
    Spherical Harmonics?: true
    Max angular momentum: 3

  ==> CGRSolver (by Rob Parrish) <==

   Number of roots    =         1
   Preconditioning    =    JACOBI
   Convergence cutoff =     1E-06
   Maximum iterations =       100

  ==> CPHFRHamiltonian (by Rob Parrish) <== 

  ==> MemDFJK: Density-Fitted J/K Matrices <==

    J tasked:                   Yes
    K tasked:                   Yes
    wK tasked:                   No
    OpenMP threads:               8
    Memory [MiB]:             22888
    Algorithm:                 Core
    Schwarz Cutoff:           1E-12
    Mask sparsity (%):      14.9223
    Fitting Condition:        1E-10

   => Auxiliary Basis Set <=

  Basis Set: (AUG-CC-PVTZ AUX)
    Blend: AUG-CC-PVTZ-JKFIT
    Number of shells: 588
    Number of basis functions: 2008
    Number of Cartesian functions: 2494
    Spherical Harmonics?: true
    Max angular momentum: 4

  ==> CPHF Iterations <==

  => Iterations <=

             Iter  Converged  Remaining    Residual
  CGR           1          0          1   9.618E-02
  CGR           2          0          1   3.791E-02
  CGR           3          0          1   2.288E-02
  CGR           4          0          1   8.698E-03
  CGR           5          0          1   3.427E-03
  CGR           6          0          1   1.433E-03
  CGR           7          0          1   4.281E-04
  CGR           8          0          1   1.558E-04
  CGR           9          0          1   6.476E-05
  CGR          10          0          1   3.538E-05
  CGR          11          0          1   1.647E-05
  CGR          12          0          1   5.173E-06
  CGR          13          0          1   2.117E-06
  CGR          14          1          0   6.168E-07

    CGRSolver converged.

	-----------------------------------------------------------
	 ==================> DF-MP2 Energies <==================== 
	-----------------------------------------------------------
	 Reference Energy          =    -570.4980698609127785 [Eh]
	 Singles Energy            =      -0.0000000000000000 [Eh]
	 Same-Spin Energy          =      -0.6365390577387069 [Eh]
	 Opposite-Spin Energy      =      -1.9710703699943251 [Eh]
	 Correlation Energy        =      -2.6076094277330322 [Eh]
	 Total Energy              =    -573.1056792886457742 [Eh]
	-----------------------------------------------------------
	 ================> DF-SCS-MP2 Energies <================== 
	-----------------------------------------------------------
	 SCS Same-Spin Scale       =       0.3333333333333333 [-]
	 SCS Opposite-Spin Scale   =       1.2000000000000000 [-]
	 SCS Same-Spin Energy      =      -0.2121796859129023 [Eh]
	 SCS Opposite-Spin Energy  =      -2.3652844439931902 [Eh]
	 SCS Correlation Energy    =      -2.5774641299060925 [Eh]
	 SCS Total Energy          =    -573.0755339908188262 [Eh]
	-----------------------------------------------------------



Properties will be evaluated at  -0.000000,   0.000000,  -0.000000 [a0]

Properties computed using the MP2 density matrix

  Nuclear Dipole Moment: [e a0]
     X:     5.8271      Y:    -0.8125      Z:     0.9150

  Electronic Dipole Moment: [e a0]
     X:    -5.1861      Y:     1.5514      Z:    -0.8566

  Dipole Moment: [e a0]
     X:     0.6410      Y:     0.7389      Z:     0.0584     Total:     0.9799

  Dipole Moment: [D]
     X:     1.6293      Y:     1.8780      Z:     0.1484     Total:     2.4907


*** tstop() called on c453-033.stampede2.tacc.utexas.edu at Thu Apr  1 07:06:08 2021
Module time:
	user time   =    4559.04 seconds =      75.98 minutes
	system time =      59.16 seconds =       0.99 minutes
	total time  =        709 seconds =      11.82 minutes
Total time:
	user time   =    5587.45 seconds =      93.12 minutes
	system time =      79.33 seconds =       1.32 minutes
	total time  =        868 seconds =      14.47 minutes

    Psi4 stopped on: Thursday, 01 April 2021 07:06AM
    Psi4 wall time for execution: 0:14:29.85

*** Psi4 exiting successfully. Buy a developer a beer!
