
    -----------------------------------------------------------------------
          Psi4: An Open-Source Ab Initio Electronic Structure Package
                               Psi4 1.4a3.dev225 

                         Git: Rev {master} 7105e37 


    D. G. A. Smith, L. A. Burns, A. C. Simmonett, R. M. Parrish,
    M. C. Schieber, R. Galvelis, P. Kraus, H. Kruse, R. Di Remigio,
    A. Alenaizan, A. M. James, S. Lehtola, J. P. Misiewicz, M. Scheurer,
    R. A. Shaw, J. B. Schriber, Y. Xie, Z. L. Glick, D. A. Sirianni,
    J. S. O'Brien, J. M. Waldrop, A. Kumar, E. G. Hohenstein,
    B. P. Pritchard, B. R. Brooks, H. F. Schaefer III, A. Yu. Sokolov,
    K. Patkowski, A. E. DePrince III, U. Bozkaya, R. A. King,
    F. A. Evangelista, J. M. Turney, T. D. Crawford, C. D. Sherrill,
    J. Chem. Phys. 152(18) 184108 (2020). https://doi.org/10.1063/5.0006002

                            Additional Code Authors
    E. T. Seidl, C. L. Janssen, E. F. Valeev, M. L. Leininger,
    J. F. Gonthier, R. M. Richard, H. R. McAlexander, M. Saitow, X. Wang,
    P. Verma, and M. H. Lechner

             Previous Authors, Complete List of Code Contributors,
                       and Citations for Specific Modules
    https://github.com/psi4/psi4/blob/master/codemeta.json
    https://github.com/psi4/psi4/graphs/contributors
    http://psicode.org/psi4manual/master/introduction.html#citing-psifour

    -----------------------------------------------------------------------


    Psi4 started on: Sunday, 28 February 2021 12:56AM

    Process ID: 154037
    Host:       c419-063.stampede2.tacc.utexas.edu
    PSIDATADIR: /home1/07844/xy3866/miniconda3/envs/p4env/share/psi4
    Memory:     500.0 MiB
    Threads:    32
    
  ==> Input File <==

--------------------------------------------------------------------------
#psi4
#
memory 32 gb

molecule  {
0 1
  N       -0.4914050     1.0723760    -0.3164170
  N        1.0085960    -0.7184190    -0.0133500
  C       -1.7100270     0.3982770    -0.1243180
  C        0.8049200     0.5981430    -0.1551110
  C        3.4026260    -0.3179870     0.1123840
  C        1.8688800     1.5249980    -0.1805650
  C        3.1641670     1.0570110    -0.0435420
  C       -2.6609445     1.0621588     0.2033650
  C       -1.8866400    -0.9712620    -0.3801370
  C        2.2803750    -1.1431010     0.1169750
  C        4.7931030    -0.8701860     0.2621020
  C       -4.0754850     0.5909990     0.4048790
  C       -3.1483220    -1.5428300    -0.2100850
  C       -4.2492880    -0.7746780     0.1720620
  H       -0.5683120     2.0807040    -0.2404560
  H        1.6730390     2.5885970    -0.3025930
  H        3.9969070     1.7590030    -0.0564670
  H       -2.6877930     2.2355590     0.4578160
  H       -1.0395640    -1.5738120    -0.6782690
  H        2.3962560    -2.2212150     0.2333330
  H        5.4095350    -0.6367030    -0.6119800
  H        5.2936270    -0.4518060     1.1412500
  H        4.7686350    -1.9575490     0.3752240
  H       -4.9184630     1.2095470     0.7042290
  H       -3.2707080    -2.6065070    -0.4021260
  H       -5.2268190    -1.2338160     0.2940590
units angstrom
no_reorient  #important for SAPT in psi4, default
symmetry c1  #important for SAPT in psi4, default
}

set PROPERTIES_ORIGIN ["COM"]
properties('MP2/aug-cc-pvtz', properties = ['dipole'])
--------------------------------------------------------------------------

  Memory set to  29.802 GiB by Python driver.
    SCF Algorithm Type (re)set to DF.

*** tstart() called on c419-063.stampede2.tacc.utexas.edu
*** at Sun Feb 28 00:56:31 2021

   => Loading Basis Set <=

    Name: AUG-CC-PVTZ
    Role: ORBITAL
    Keyword: BASIS
    atoms 1-2   entry N          line   285 file /home1/07844/xy3866/miniconda3/envs/p4env/share/psi4/basis/aug-cc-pvtz.gbs 
    atoms 3-14  entry C          line   239 file /home1/07844/xy3866/miniconda3/envs/p4env/share/psi4/basis/aug-cc-pvtz.gbs 
    atoms 15-26 entry H          line    40 file /home1/07844/xy3866/miniconda3/envs/p4env/share/psi4/basis/aug-cc-pvtz.gbs 


         ---------------------------------------------------------
                                   SCF
               by Justin Turney, Rob Parrish, Andy Simmonett
                          and Daniel G. A. Smith
                              RHF Reference
                       32 Threads,  30517 MiB Core
         ---------------------------------------------------------

  ==> Geometry <==

    Molecular point group: c1
    Full point group: C1

    Geometry (in Angstrom), charge = 0, multiplicity = 1:

       Center              X                  Y                   Z               Mass       
    ------------   -----------------  -----------------  -----------------  -----------------
         N           -0.470300003624     1.075196862621    -0.307940785665    14.003074004430
         N            1.029700996376    -0.715598137379    -0.004873785665    14.003074004430
         C           -1.688922003624     0.401097862621    -0.115841785665    12.000000000000
         C            0.826024996376     0.600963862621    -0.146634785665    12.000000000000
         C            3.423730996376    -0.315166137379     0.120860214335    12.000000000000
         C            1.889984996376     1.527818862621    -0.172088785665    12.000000000000
         C            3.185271996376     1.059831862621    -0.035065785665    12.000000000000
         C           -2.639839503624     1.064979662621     0.211841214335    12.000000000000
         C           -1.865535003624    -0.968441137379    -0.371660785665    12.000000000000
         C            2.301479996376    -1.140280137379     0.125451214335    12.000000000000
         C            4.814207996376    -0.867365137379     0.270578214335    12.000000000000
         C           -4.054380003624     0.593819862621     0.413355214335    12.000000000000
         C           -3.127217003624    -1.540009137379    -0.201608785665    12.000000000000
         C           -4.228183003624    -0.771857137379     0.180538214335    12.000000000000
         H           -0.547207003624     2.083524862621    -0.231979785665     1.007825032230
         H            1.694143996376     2.591417862621    -0.294116785665     1.007825032230
         H            4.018011996376     1.761823862621    -0.047990785665     1.007825032230
         H           -2.666688003624     2.238379862621     0.466292214335     1.007825032230
         H           -1.018459003624    -1.570991137379    -0.669792785665     1.007825032230
         H            2.417360996376    -2.218394137379     0.241809214335     1.007825032230
         H            5.430639996376    -0.633882137379    -0.603503785665     1.007825032230
         H            5.314731996376    -0.448985137379     1.149726214335     1.007825032230
         H            4.789739996376    -1.954728137379     0.383700214335     1.007825032230
         H           -4.897358003624     1.212367862621     0.712705214335     1.007825032230
         H           -3.249603003624    -2.603686137379    -0.393649785665     1.007825032230
         H           -5.205714003624    -1.230995137379     0.302535214335     1.007825032230

  Running in c1 symmetry.

  Rotational constants: A =      0.07856  B =      0.01087  C =      0.00968 [cm^-1]
  Rotational constants: A =   2355.23258  B =    325.86221  C =    290.18362 [MHz]
  Nuclear repulsion =  794.293314937434275

  Charge       = 0
  Multiplicity = 1
  Electrons    = 98
  Nalpha       = 49
  Nbeta        = 49

  ==> Algorithm <==

  SCF Algorithm Type is DF.
  DIIS enabled.
  MOM disabled.
  Fractional occupation disabled.
  Guess Type is SAD.
  Energy threshold   = 1.00e-10
  Density threshold  = 1.00e-10
  Integral threshold = 1.00e-12

  ==> Primary Basis <==

  Basis Set: AUG-CC-PVTZ
    Blend: AUG-CC-PVTZ
    Number of shells: 304
    Number of basis functions: 920
    Number of Cartesian functions: 1070
    Spherical Harmonics?: true
    Max angular momentum: 3

   => Loading Basis Set <=

    Name: (AUG-CC-PVTZ AUX)
    Role: JKFIT
    Keyword: DF_BASIS_SCF
    atoms 1-2   entry N          line   224 file /home1/07844/xy3866/miniconda3/envs/p4env/share/psi4/basis/aug-cc-pvtz-jkfit.gbs 
    atoms 3-14  entry C          line   162 file /home1/07844/xy3866/miniconda3/envs/p4env/share/psi4/basis/aug-cc-pvtz-jkfit.gbs 
    atoms 15-26 entry H          line    70 file /home1/07844/xy3866/miniconda3/envs/p4env/share/psi4/basis/aug-cc-pvtz-jkfit.gbs 

  ==> Integral Setup <==

  DFHelper Memory: AOs need 10.344 GiB; user supplied 22.352 GiB. Using in-core AOs.

  ==> MemDFJK: Density-Fitted J/K Matrices <==

    J tasked:                   Yes
    K tasked:                   Yes
    wK tasked:                   No
    OpenMP threads:              32
    Memory [MiB]:             22888
    Algorithm:                 Core
    Schwarz Cutoff:           1E-12
    Mask sparsity (%):      21.4884
    Fitting Condition:        1E-10

   => Auxiliary Basis Set <=

  Basis Set: (AUG-CC-PVTZ AUX)
    Blend: AUG-CC-PVTZ-JKFIT
    Number of shells: 588
    Number of basis functions: 2008
    Number of Cartesian functions: 2494
    Spherical Harmonics?: true
    Max angular momentum: 4

  Minimum eigenvalue in the overlap matrix is 5.3972368863E-07.
  Reciprocal condition number of the overlap matrix is 2.7555169912E-08.
    Using symmetric orthogonalization.

  ==> Pre-Iterations <==

  SCF Guess: Superposition of Atomic Densities via on-the-fly atomic UHF (no occupation information).

   -------------------------
    Irrep   Nso     Nmo    
   -------------------------
     A        920     920 
   -------------------------
    Total     920     920
   -------------------------

  ==> Iterations <==

                           Total Energy        Delta E     RMS |[F,P]|

   @DF-RHF iter SAD:  -570.12632961154168   -5.70126e+02   0.00000e+00 
   @DF-RHF iter   1:  -570.02994903866647    9.63806e-02   8.92652e-04 DIIS
   @DF-RHF iter   2:  -570.36031585969420   -3.30367e-01   4.17335e-04 DIIS
   @DF-RHF iter   3:  -570.43259542653527   -7.22796e-02   9.08893e-05 DIIS
   @DF-RHF iter   4:  -570.43744667730334   -4.85125e-03   3.60934e-05 DIIS
   @DF-RHF iter   5:  -570.43811137446562   -6.64697e-04   7.79618e-06 DIIS
   @DF-RHF iter   6:  -570.43816939898875   -5.80245e-05   3.21105e-06 DIIS
   @DF-RHF iter   7:  -570.43818326259202   -1.38636e-05   1.40065e-06 DIIS
   @DF-RHF iter   8:  -570.43818723099321   -3.96840e-06   6.08876e-07 DIIS
   @DF-RHF iter   9:  -570.43818811652716   -8.85534e-07   2.82236e-07 DIIS
   @DF-RHF iter  10:  -570.43818825855681   -1.42030e-07   1.07807e-07 DIIS
   @DF-RHF iter  11:  -570.43818828254382   -2.39870e-08   4.34053e-08 DIIS
   @DF-RHF iter  12:  -570.43818828514895   -2.60513e-09   1.93429e-08 DIIS
   @DF-RHF iter  13:  -570.43818828564440   -4.95447e-10   7.02432e-09 DIIS
   @DF-RHF iter  14:  -570.43818828572580   -8.13998e-11   3.88577e-09 DIIS
   @DF-RHF iter  15:  -570.43818828575320   -2.73985e-11   1.64615e-09 DIIS
   @DF-RHF iter  16:  -570.43818828576013   -6.93490e-12   7.76401e-10 DIIS
   @DF-RHF iter  17:  -570.43818828576013    0.00000e+00   2.74132e-10 DIIS
   @DF-RHF iter  18:  -570.43818828576218   -2.04636e-12   8.82687e-11 DIIS
  Energy and wave function converged.


  ==> Post-Iterations <==

    Orbital Energies [Eh]
    ---------------------

    Doubly Occupied:                                                      

       1A    -15.581629     2A    -15.551441     3A    -11.320608  
       4A    -11.271335     5A    -11.256859     6A    -11.253165  
       7A    -11.244144     8A    -11.236206     9A    -11.233010  
      10A    -11.229469    11A    -11.227549    12A    -11.226831  
      13A    -11.224837    14A    -11.223396    15A     -1.293256  
      16A     -1.225543    17A     -1.142277    18A     -1.095153  
      19A     -1.052366    20A     -1.013164    21A     -0.992643  
      22A     -0.933808    23A     -0.866340    24A     -0.848578  
      25A     -0.818960    26A     -0.794751    27A     -0.727486  
      28A     -0.711879    29A     -0.664686    30A     -0.650834  
      31A     -0.633419    32A     -0.632362    33A     -0.600676  
      34A     -0.596468    35A     -0.589817    36A     -0.572613  
      37A     -0.565356    38A     -0.556021    39A     -0.544832  
      40A     -0.521213    41A     -0.517793    42A     -0.506700  
      43A     -0.463795    44A     -0.451628    45A     -0.413237  
      46A     -0.380049    47A     -0.355636    48A     -0.316289  
      49A     -0.285985  

    Virtual:                                                              

      50A      0.024052    51A      0.028195    52A      0.032094  
      53A      0.038806    54A      0.039732    55A      0.045154  
      56A      0.050923    57A      0.052945    58A      0.059101  
      59A      0.065501    60A      0.072607    61A      0.076942  
      62A      0.084956    63A      0.088835    64A      0.090377  
      65A      0.095863    66A      0.098866    67A      0.101434  
      68A      0.107895    69A      0.111599    70A      0.113195  
      71A      0.115414    72A      0.117795    73A      0.119321  
      74A      0.121284    75A      0.123418    76A      0.127767  
      77A      0.131896    78A      0.132823    79A      0.133122  
      80A      0.137820    81A      0.138653    82A      0.142118  
      83A      0.149142    84A      0.149695    85A      0.152135  
      86A      0.155316    87A      0.157280    88A      0.161866  
      89A      0.167059    90A      0.168283    91A      0.172380  
      92A      0.177896    93A      0.180674    94A      0.184390  
      95A      0.189306    96A      0.190434    97A      0.195896  
      98A      0.206635    99A      0.209503   100A      0.211812  
     101A      0.216008   102A      0.227115   103A      0.228720  
     104A      0.235977   105A      0.236403   106A      0.242511  
     107A      0.246510   108A      0.249253   109A      0.254366  
     110A      0.256501   111A      0.262086   112A      0.265057  
     113A      0.270825   114A      0.271746   115A      0.273939  
     116A      0.278311   117A      0.282299   118A      0.286188  
     119A      0.291722   120A      0.297927   121A      0.301097  
     122A      0.302646   123A      0.307639   124A      0.310491  
     125A      0.315733   126A      0.316011   127A      0.323366  
     128A      0.324413   129A      0.328547   130A      0.334842  
     131A      0.335716   132A      0.337849   133A      0.340346  
     134A      0.342222   135A      0.345972   136A      0.350431  
     137A      0.353625   138A      0.354091   139A      0.357536  
     140A      0.365347   141A      0.370123   142A      0.376912  
     143A      0.380691   144A      0.383520   145A      0.388170  
     146A      0.392779   147A      0.396608   148A      0.397182  
     149A      0.399346   150A      0.405652   151A      0.409089  
     152A      0.418529   153A      0.419424   154A      0.425076  
     155A      0.427246   156A      0.431245   157A      0.433822  
     158A      0.439741   159A      0.441304   160A      0.448144  
     161A      0.449978   162A      0.451460   163A      0.455932  
     164A      0.458362   165A      0.461960   166A      0.463897  
     167A      0.467492   168A      0.470653   169A      0.472506  
     170A      0.474829   171A      0.475825   172A      0.479742  
     173A      0.483257   174A      0.485758   175A      0.492476  
     176A      0.493319   177A      0.498384   178A      0.500928  
     179A      0.503875   180A      0.506309   181A      0.506831  
     182A      0.511120   183A      0.512124   184A      0.516595  
     185A      0.520677   186A      0.523724   187A      0.527759  
     188A      0.530002   189A      0.533556   190A      0.536668  
     191A      0.543249   192A      0.545433   193A      0.547218  
     194A      0.551523   195A      0.554370   196A      0.559739  
     197A      0.562388   198A      0.564113   199A      0.564714  
     200A      0.567721   201A      0.574937   202A      0.578816  
     203A      0.582740   204A      0.589360   205A      0.595794  
     206A      0.598175   207A      0.599830   208A      0.606392  
     209A      0.613474   210A      0.620126   211A      0.628007  
     212A      0.628986   213A      0.637576   214A      0.640975  
     215A      0.645343   216A      0.649348   217A      0.657874  
     218A      0.662038   219A      0.665850   220A      0.669714  
     221A      0.678551   222A      0.680006   223A      0.683880  
     224A      0.687701   225A      0.698587   226A      0.702206  
     227A      0.707183   228A      0.715667   229A      0.717887  
     230A      0.722331   231A      0.726465   232A      0.729156  
     233A      0.730518   234A      0.735519   235A      0.744491  
     236A      0.746680   237A      0.755797   238A      0.757584  
     239A      0.761718   240A      0.770580   241A      0.776787  
     242A      0.778501   243A      0.786373   244A      0.795570  
     245A      0.802366   246A      0.808276   247A      0.811906  
     248A      0.817842   249A      0.826833   250A      0.829441  
     251A      0.832971   252A      0.841388   253A      0.846640  
     254A      0.850765   255A      0.853008   256A      0.856513  
     257A      0.857446   258A      0.863916   259A      0.864375  
     260A      0.873064   261A      0.881530   262A      0.883133  
     263A      0.886066   264A      0.890000   265A      0.890974  
     266A      0.893867   267A      0.896367   268A      0.902568  
     269A      0.910226   270A      0.912095   271A      0.913184  
     272A      0.922671   273A      0.923712   274A      0.926199  
     275A      0.931622   276A      0.935421   277A      0.936995  
     278A      0.944302   279A      0.947616   280A      0.948066  
     281A      0.952208   282A      0.956884   283A      0.960455  
     284A      0.966686   285A      0.973811   286A      0.978964  
     287A      0.980575   288A      0.986586   289A      0.989354  
     290A      0.993229   291A      1.002617   292A      1.004288  
     293A      1.009924   294A      1.015811   295A      1.021601  
     296A      1.022299   297A      1.029449   298A      1.033887  
     299A      1.036734   300A      1.039384   301A      1.048559  
     302A      1.052833   303A      1.054704   304A      1.057299  
     305A      1.060781   306A      1.067648   307A      1.069366  
     308A      1.074357   309A      1.077279   310A      1.079629  
     311A      1.080710   312A      1.083294   313A      1.087954  
     314A      1.092081   315A      1.096484   316A      1.103443  
     317A      1.104307   318A      1.110164   319A      1.115409  
     320A      1.119263   321A      1.120985   322A      1.123770  
     323A      1.126393   324A      1.132601   325A      1.134417  
     326A      1.140452   327A      1.141726   328A      1.148003  
     329A      1.155811   330A      1.159366   331A      1.164975  
     332A      1.171810   333A      1.172231   334A      1.179237  
     335A      1.180279   336A      1.185880   337A      1.188965  
     338A      1.194704   339A      1.198978   340A      1.201082  
     341A      1.204135   342A      1.207437   343A      1.215646  
     344A      1.219912   345A      1.223255   346A      1.228486  
     347A      1.230444   348A      1.234846   349A      1.237109  
     350A      1.238405   351A      1.244432   352A      1.248517  
     353A      1.250771   354A      1.255290   355A      1.262865  
     356A      1.272223   357A      1.277263   358A      1.281689  
     359A      1.286065   360A      1.287726   361A      1.298714  
     362A      1.300203   363A      1.304851   364A      1.313293  
     365A      1.326772   366A      1.335554   367A      1.342505  
     368A      1.352568   369A      1.355927   370A      1.357013  
     371A      1.357827   372A      1.370432   373A      1.374451  
     374A      1.378216   375A      1.380220   376A      1.392903  
     377A      1.403093   378A      1.404342   379A      1.411367  
     380A      1.412715   381A      1.415651   382A      1.426525  
     383A      1.430360   384A      1.437593   385A      1.438916  
     386A      1.444060   387A      1.452630   388A      1.457227  
     389A      1.464072   390A      1.472028   391A      1.476287  
     392A      1.482758   393A      1.487632   394A      1.494399  
     395A      1.497199   396A      1.502362   397A      1.512620  
     398A      1.529249   399A      1.530520   400A      1.539737  
     401A      1.541233   402A      1.544255   403A      1.545114  
     404A      1.556858   405A      1.562866   406A      1.570026  
     407A      1.580933   408A      1.582691   409A      1.592452  
     410A      1.599317   411A      1.606948   412A      1.612012  
     413A      1.621033   414A      1.629988   415A      1.633144  
     416A      1.635489   417A      1.642777   418A      1.655844  
     419A      1.661454   420A      1.663473   421A      1.665492  
     422A      1.670697   423A      1.678223   424A      1.691035  
     425A      1.699421   426A      1.701059   427A      1.709338  
     428A      1.718729   429A      1.719699   430A      1.733898  
     431A      1.736257   432A      1.744635   433A      1.751438  
     434A      1.755269   435A      1.763035   436A      1.765984  
     437A      1.778525   438A      1.783503   439A      1.789334  
     440A      1.794783   441A      1.804092   442A      1.806421  
     443A      1.811771   444A      1.819688   445A      1.826167  
     446A      1.832616   447A      1.839796   448A      1.847968  
     449A      1.856711   450A      1.857573   451A      1.863704  
     452A      1.872301   453A      1.879804   454A      1.887256  
     455A      1.892987   456A      1.902385   457A      1.908816  
     458A      1.914321   459A      1.922442   460A      1.927907  
     461A      1.936682   462A      1.941402   463A      1.945931  
     464A      1.949358   465A      1.955819   466A      1.957676  
     467A      1.971962   468A      1.976603   469A      1.987029  
     470A      1.997624   471A      2.002724   472A      2.004874  
     473A      2.015781   474A      2.019523   475A      2.026143  
     476A      2.034042   477A      2.044482   478A      2.049326  
     479A      2.055551   480A      2.058496   481A      2.066464  
     482A      2.072943   483A      2.077005   484A      2.083260  
     485A      2.088517   486A      2.096295   487A      2.099019  
     488A      2.108111   489A      2.113209   490A      2.114644  
     491A      2.129037   492A      2.130714   493A      2.141205  
     494A      2.149368   495A      2.159127   496A      2.161304  
     497A      2.164236   498A      2.173816   499A      2.190102  
     500A      2.192794   501A      2.194726   502A      2.199685  
     503A      2.207745   504A      2.215996   505A      2.218107  
     506A      2.236166   507A      2.242333   508A      2.253918  
     509A      2.262443   510A      2.269768   511A      2.271207  
     512A      2.276707   513A      2.283713   514A      2.285602  
     515A      2.298794   516A      2.310148   517A      2.315175  
     518A      2.321023   519A      2.335123   520A      2.338781  
     521A      2.347291   522A      2.352815   523A      2.367474  
     524A      2.371785   525A      2.373108   526A      2.387753  
     527A      2.396209   528A      2.414794   529A      2.423512  
     530A      2.428709   531A      2.433673   532A      2.439082  
     533A      2.452533   534A      2.456607   535A      2.464468  
     536A      2.481749   537A      2.491729   538A      2.497240  
     539A      2.501669   540A      2.514997   541A      2.526118  
     542A      2.548879   543A      2.558136   544A      2.558784  
     545A      2.575357   546A      2.585480   547A      2.600040  
     548A      2.606912   549A      2.627611   550A      2.640033  
     551A      2.646446   552A      2.665131   553A      2.674666  
     554A      2.692748   555A      2.700652   556A      2.708726  
     557A      2.727433   558A      2.736045   559A      2.771031  
     560A      2.786226   561A      2.798540   562A      2.810379  
     563A      2.817819   564A      2.826288   565A      2.835072  
     566A      2.843445   567A      2.867783   568A      2.882010  
     569A      2.905064   570A      2.932569   571A      2.942813  
     572A      2.949568   573A      2.976395   574A      2.997228  
     575A      3.000875   576A      3.051796   577A      3.074429  
     578A      3.096454   579A      3.119746   580A      3.138406  
     581A      3.146485   582A      3.183392   583A      3.193459  
     584A      3.203586   585A      3.208513   586A      3.235018  
     587A      3.254737   588A      3.264444   589A      3.271069  
     590A      3.273979   591A      3.293620   592A      3.308105  
     593A      3.310610   594A      3.332119   595A      3.346349  
     596A      3.350511   597A      3.369724   598A      3.378271  
     599A      3.384908   600A      3.392307   601A      3.396345  
     602A      3.399933   603A      3.416526   604A      3.421009  
     605A      3.431682   606A      3.443997   607A      3.446099  
     608A      3.453994   609A      3.461072   610A      3.474091  
     611A      3.480067   612A      3.485939   613A      3.497159  
     614A      3.503925   615A      3.514403   616A      3.527312  
     617A      3.541647   618A      3.547987   619A      3.557742  
     620A      3.559505   621A      3.566470   622A      3.573033  
     623A      3.585192   624A      3.589726   625A      3.594139  
     626A      3.609430   627A      3.612536   628A      3.619890  
     629A      3.626339   630A      3.630202   631A      3.633316  
     632A      3.643949   633A      3.655155   634A      3.662985  
     635A      3.672766   636A      3.673323   637A      3.678365  
     638A      3.682304   639A      3.693680   640A      3.703794  
     641A      3.711286   642A      3.721472   643A      3.734435  
     644A      3.736994   645A      3.749700   646A      3.754916  
     647A      3.768034   648A      3.774519   649A      3.776534  
     650A      3.779030   651A      3.790694   652A      3.804966  
     653A      3.809510   654A      3.820608   655A      3.830110  
     656A      3.843593   657A      3.852798   658A      3.856334  
     659A      3.864623   660A      3.875879   661A      3.882639  
     662A      3.886221   663A      3.898557   664A      3.902859  
     665A      3.907121   666A      3.912185   667A      3.925704  
     668A      3.933885   669A      3.946330   670A      3.953834  
     671A      3.955814   672A      3.962073   673A      3.964524  
     674A      3.976902   675A      3.977563   676A      3.983971  
     677A      3.992923   678A      3.994017   679A      4.004554  
     680A      4.014515   681A      4.017917   682A      4.027656  
     683A      4.032778   684A      4.038541   685A      4.055953  
     686A      4.062281   687A      4.069283   688A      4.084501  
     689A      4.085704   690A      4.096995   691A      4.107729  
     692A      4.109629   693A      4.119335   694A      4.123666  
     695A      4.136878   696A      4.139845   697A      4.143617  
     698A      4.153765   699A      4.159330   700A      4.163053  
     701A      4.177833   702A      4.183041   703A      4.190978  
     704A      4.194815   705A      4.217630   706A      4.222670  
     707A      4.232506   708A      4.239696   709A      4.251960  
     710A      4.257900   711A      4.266222   712A      4.272886  
     713A      4.282235   714A      4.284870   715A      4.291791  
     716A      4.302379   717A      4.308111   718A      4.323744  
     719A      4.327519   720A      4.339663   721A      4.343747  
     722A      4.356006   723A      4.364352   724A      4.372681  
     725A      4.375768   726A      4.386211   727A      4.395233  
     728A      4.403619   729A      4.407442   730A      4.417140  
     731A      4.422837   732A      4.428301   733A      4.445456  
     734A      4.449337   735A      4.457682   736A      4.464959  
     737A      4.466241   738A      4.480246   739A      4.494529  
     740A      4.495695   741A      4.504458   742A      4.508757  
     743A      4.516876   744A      4.535478   745A      4.537983  
     746A      4.550224   747A      4.555526   748A      4.571897  
     749A      4.574928   750A      4.580414   751A      4.591269  
     752A      4.602711   753A      4.612647   754A      4.628977  
     755A      4.642123   756A      4.663594   757A      4.666280  
     758A      4.671287   759A      4.691228   760A      4.700531  
     761A      4.711979   762A      4.720479   763A      4.737541  
     764A      4.745122   765A      4.755615   766A      4.764524  
     767A      4.770062   768A      4.786269   769A      4.797877  
     770A      4.808268   771A      4.812436   772A      4.828214  
     773A      4.845761   774A      4.855209   775A      4.867472  
     776A      4.869973   777A      4.896686   778A      4.912810  
     779A      4.918554   780A      4.929946   781A      4.949535  
     782A      4.958690   783A      4.969711   784A      4.974975  
     785A      4.987226   786A      5.001353   787A      5.012645  
     788A      5.015772   789A      5.028696   790A      5.033150  
     791A      5.040856   792A      5.070330   793A      5.079658  
     794A      5.081052   795A      5.087589   796A      5.096306  
     797A      5.103294   798A      5.109026   799A      5.116232  
     800A      5.122843   801A      5.139410   802A      5.150001  
     803A      5.159557   804A      5.164704   805A      5.173913  
     806A      5.197727   807A      5.203971   808A      5.210182  
     809A      5.214090   810A      5.235500   811A      5.237102  
     812A      5.258031   813A      5.265761   814A      5.274650  
     815A      5.288060   816A      5.294160   817A      5.300342  
     818A      5.313298   819A      5.335287   820A      5.340580  
     821A      5.347040   822A      5.373076   823A      5.391370  
     824A      5.400858   825A      5.404420   826A      5.431308  
     827A      5.459720   828A      5.489604   829A      5.498645  
     830A      5.500282   831A      5.527333   832A      5.536734  
     833A      5.547238   834A      5.555041   835A      5.569651  
     836A      5.585536   837A      5.588718   838A      5.599036  
     839A      5.604978   840A      5.614766   841A      5.629823  
     842A      5.664982   843A      5.675255   844A      5.694733  
     845A      5.707697   846A      5.729677   847A      5.746917  
     848A      5.765215   849A      5.780680   850A      5.797692  
     851A      5.816526   852A      5.829497   853A      5.843985  
     854A      5.852743   855A      5.881595   856A      5.888293  
     857A      5.931834   858A      5.950074   859A      5.956790  
     860A      5.969112   861A      5.983638   862A      5.999921  
     863A      6.014713   864A      6.086398   865A      6.089992  
     866A      6.137117   867A      6.143935   868A      6.159269  
     869A      6.174856   870A      6.189763   871A      6.210726  
     872A      6.213399   873A      6.233030   874A      6.260652  
     875A      6.291756   876A      6.310499   877A      6.319049  
     878A      6.345218   879A      6.414414   880A      6.432678  
     881A      6.449141   882A      6.479908   883A      6.512190  
     884A      6.532687   885A      6.562958   886A      6.634149  
     887A      6.684010   888A      6.707067   889A      6.752727  
     890A      6.761480   891A      6.811423   892A      6.827776  
     893A      6.839280   894A      6.852343   895A      6.898479  
     896A      6.950874   897A      6.985926   898A      7.008283  
     899A      7.046267   900A      7.117437   901A      7.184593  
     902A      7.188029   903A      7.406626   904A      7.432451  
     905A      7.596589   906A      7.762124   907A     16.173001  
     908A     16.381516   909A     16.590815   910A     17.531754  
     911A     17.710984   912A     18.316187   913A     18.734048  
     914A     19.056532   915A     19.875327   916A     20.087250  
     917A     20.590190   918A     20.882038   919A     21.388425  
     920A     21.653804  

    Final Occupation by Irrep:
              A 
    DOCC [    49 ]

  @DF-RHF Final Energy:  -570.43818828576218

   => Energetics <=

    Nuclear Repulsion Energy =            794.2933149374342747
    One-Electron Energy =               -2348.6308261495705665
    Two-Electron Energy =                 983.8993229263739977
    Total Energy =                       -570.4381882857621804

Computation Completed

*** tstop() called on c419-063.stampede2.tacc.utexas.edu at Sun Feb 28 00:57:49 2021
Module time:
	user time   =    1576.19 seconds =      26.27 minutes
	system time =      79.75 seconds =       1.33 minutes
	total time  =         78 seconds =       1.30 minutes
Total time:
	user time   =    1576.19 seconds =      26.27 minutes
	system time =      79.75 seconds =       1.33 minutes
	total time  =         78 seconds =       1.30 minutes
   => Loading Basis Set <=

    Name: (AUG-CC-PVTZ AUX)
    Role: RIFIT
    Keyword: DF_BASIS_MP2
    atoms 1-2   entry N          line   206 file /home1/07844/xy3866/miniconda3/envs/p4env/share/psi4/basis/aug-cc-pvtz-ri.gbs 
    atoms 3-14  entry C          line   148 file /home1/07844/xy3866/miniconda3/envs/p4env/share/psi4/basis/aug-cc-pvtz-ri.gbs 
    atoms 15-26 entry H          line    30 file /home1/07844/xy3866/miniconda3/envs/p4env/share/psi4/basis/aug-cc-pvtz-ri.gbs 


*** tstart() called on c419-063.stampede2.tacc.utexas.edu
*** at Sun Feb 28 00:57:50 2021


  //>>>>>>>>>>>>>>>>>>>>>>>>>>>>>>>>>>>//
  //               DFMP2               //
  //<<<<<<<<<<<<<<<<<<<<<<<<<<<<<<<<<<<//

	 --------------------------------------------------------
	                          DF-MP2                         
	      2nd-Order Density-Fitted Moller-Plesset Theory     
	              RMP2 Wavefunction,  32 Threads             
	                                                         
	        Rob Parrish, Justin Turney, Andy Simmonett,      
	           Ed Hohenstein, and C. David Sherrill          
	 --------------------------------------------------------

   => Auxiliary Basis Set <=

  Basis Set: (AUG-CC-PVTZ AUX)
    Blend: AUG-CC-PVTZ-RI
    Number of shells: 560
    Number of basis functions: 2036
    Number of Cartesian functions: 2564
    Spherical Harmonics?: true
    Max angular momentum: 4

	 --------------------------------------------------------
	                 NBF =   920, NAUX =  2036
	 --------------------------------------------------------
	   CLASS    FOCC     OCC    AOCC    AVIR     VIR    FVIR
	   PAIRS       0      49      49     871     871       0
	 --------------------------------------------------------

  DFHelper Memory: AOs need 11.187 GiB; user supplied 22.352 GiB. Using in-core AOs.


         ------------------------------------------------------------
                                     CPHF                           
                                  Rob Parrish                       
         ------------------------------------------------------------

  ==> Geometry <==

    Molecular point group: c1
    Full point group: C1

    Geometry (in Angstrom), charge = 0, multiplicity = 1:

       Center              X                  Y                   Z               Mass       
    ------------   -----------------  -----------------  -----------------  -----------------
         N           -0.470300003624     1.075196862621    -0.307940785665    14.003074004430
         N            1.029700996376    -0.715598137379    -0.004873785665    14.003074004430
         C           -1.688922003624     0.401097862621    -0.115841785665    12.000000000000
         C            0.826024996376     0.600963862621    -0.146634785665    12.000000000000
         C            3.423730996376    -0.315166137379     0.120860214335    12.000000000000
         C            1.889984996376     1.527818862621    -0.172088785665    12.000000000000
         C            3.185271996376     1.059831862621    -0.035065785665    12.000000000000
         C           -2.639839503624     1.064979662621     0.211841214335    12.000000000000
         C           -1.865535003624    -0.968441137379    -0.371660785665    12.000000000000
         C            2.301479996376    -1.140280137379     0.125451214335    12.000000000000
         C            4.814207996376    -0.867365137379     0.270578214335    12.000000000000
         C           -4.054380003624     0.593819862621     0.413355214335    12.000000000000
         C           -3.127217003624    -1.540009137379    -0.201608785665    12.000000000000
         C           -4.228183003624    -0.771857137379     0.180538214335    12.000000000000
         H           -0.547207003624     2.083524862621    -0.231979785665     1.007825032230
         H            1.694143996376     2.591417862621    -0.294116785665     1.007825032230
         H            4.018011996376     1.761823862621    -0.047990785665     1.007825032230
         H           -2.666688003624     2.238379862621     0.466292214335     1.007825032230
         H           -1.018459003624    -1.570991137379    -0.669792785665     1.007825032230
         H            2.417360996376    -2.218394137379     0.241809214335     1.007825032230
         H            5.430639996376    -0.633882137379    -0.603503785665     1.007825032230
         H            5.314731996376    -0.448985137379     1.149726214335     1.007825032230
         H            4.789739996376    -1.954728137379     0.383700214335     1.007825032230
         H           -4.897358003624     1.212367862621     0.712705214335     1.007825032230
         H           -3.249603003624    -2.603686137379    -0.393649785665     1.007825032230
         H           -5.205714003624    -1.230995137379     0.302535214335     1.007825032230

  Nuclear repulsion =  794.293314937434275
  Reference energy  = -570.438188285762180

  ==> Basis Set <==

  Basis Set: AUG-CC-PVTZ
    Blend: AUG-CC-PVTZ
    Number of shells: 304
    Number of basis functions: 920
    Number of Cartesian functions: 1070
    Spherical Harmonics?: true
    Max angular momentum: 3

  ==> CGRSolver (by Rob Parrish) <==

   Number of roots    =         1
   Preconditioning    =    JACOBI
   Convergence cutoff =     1E-06
   Maximum iterations =       100

  ==> CPHFRHamiltonian (by Rob Parrish) <== 

  ==> MemDFJK: Density-Fitted J/K Matrices <==

    J tasked:                   Yes
    K tasked:                   Yes
    wK tasked:                   No
    OpenMP threads:              32
    Memory [MiB]:             22888
    Algorithm:                 Core
    Schwarz Cutoff:           1E-12
    Mask sparsity (%):      14.8284
    Fitting Condition:        1E-10

   => Auxiliary Basis Set <=

  Basis Set: (AUG-CC-PVTZ AUX)
    Blend: AUG-CC-PVTZ-JKFIT
    Number of shells: 588
    Number of basis functions: 2008
    Number of Cartesian functions: 2494
    Spherical Harmonics?: true
    Max angular momentum: 4

  ==> CPHF Iterations <==

  => Iterations <=

             Iter  Converged  Remaining    Residual
  CGR           1          0          1   1.010E-01
  CGR           2          0          1   4.033E-02
  CGR           3          0          1   2.405E-02
  CGR           4          0          1   8.826E-03
  CGR           5          0          1   3.482E-03
  CGR           6          0          1   1.506E-03
  CGR           7          0          1   4.883E-04
  CGR           8          0          1   2.021E-04
  CGR           9          0          1   9.449E-05
  CGR          10          0          1   4.206E-05
  CGR          11          0          1   1.655E-05
  CGR          12          0          1   4.864E-06
  CGR          13          0          1   2.125E-06
  CGR          14          1          0   8.617E-07

    CGRSolver converged.

	-----------------------------------------------------------
	 ==================> DF-MP2 Energies <==================== 
	-----------------------------------------------------------
	 Reference Energy          =    -570.4381882857621804 [Eh]
	 Singles Energy            =      -0.0000000000000000 [Eh]
	 Same-Spin Energy          =      -0.6358119285701911 [Eh]
	 Opposite-Spin Energy      =      -1.9724856488631137 [Eh]
	 Correlation Energy        =      -2.6082975774333050 [Eh]
	 Total Energy              =    -573.0464858631954712 [Eh]
	-----------------------------------------------------------
	 ================> DF-SCS-MP2 Energies <================== 
	-----------------------------------------------------------
	 SCS Same-Spin Scale       =       0.3333333333333333 [-]
	 SCS Opposite-Spin Scale   =       1.2000000000000000 [-]
	 SCS Same-Spin Energy      =      -0.2119373095233970 [Eh]
	 SCS Opposite-Spin Energy  =      -2.3669827786357365 [Eh]
	 SCS Correlation Energy    =      -2.5789200881591334 [Eh]
	 SCS Total Energy          =    -573.0171083739213600 [Eh]
	-----------------------------------------------------------



Properties will be evaluated at  -0.000000,  -0.000000,  -0.000000 [a0]

Properties computed using the MP2 density matrix

  Nuclear Dipole Moment: [e a0]
     X:     5.6978      Y:    -0.7268      Z:     0.9531

  Electronic Dipole Moment: [e a0]
     X:    -5.1388      Y:     1.3933      Z:    -0.8769

  Dipole Moment: [e a0]
     X:     0.5590      Y:     0.6665      Z:     0.0762     Total:     0.8732

  Dipole Moment: [D]
     X:     1.4209      Y:     1.6940      Z:     0.1937     Total:     2.2195


*** tstop() called on c419-063.stampede2.tacc.utexas.edu at Sun Feb 28 01:06:10 2021
Module time:
	user time   =    5445.00 seconds =      90.75 minutes
	system time =     121.42 seconds =       2.02 minutes
	total time  =        500 seconds =       8.33 minutes
Total time:
	user time   =    7022.48 seconds =     117.04 minutes
	system time =     201.20 seconds =       3.35 minutes
	total time  =        579 seconds =       9.65 minutes

    Psi4 stopped on: Sunday, 28 February 2021 01:06AM
    Psi4 wall time for execution: 0:09:41.55

*** Psi4 exiting successfully. Buy a developer a beer!
