144_BenzoicAcid Gaussian SP Calculation on g2-node38.bme.utexas.edu     
Freq      RMP2-FC                                                     6-31G(d)            
Number of atoms                            I               15
Info1-9                                    I   N=           9
          26          25        1002           0           0         100
           6           2           1
Charge                                     I                0
Multiplicity                               I                1
Number of electrons                        I               64
Number of alpha electrons                  I               32
Number of beta electrons                   I               32
Number of basis functions                  I              147
Number of independent functions            I              147
Number of point charges in /Mol/           I                0
Number of translation vectors              I                0
Atomic numbers                             I   N=          15
           8           8           6           6           6           6
           6           6           6           1           1           1
           1           1           1
Nuclear charges                            R   N=          15
  8.00000000E+00  8.00000000E+00  6.00000000E+00  6.00000000E+00  6.00000000E+00
  6.00000000E+00  6.00000000E+00  6.00000000E+00  6.00000000E+00  1.00000000E+00
  1.00000000E+00  1.00000000E+00  1.00000000E+00  1.00000000E+00  1.00000000E+00
Current cartesian coordinates              R   N=          45
 -4.35430276E+00 -2.07717192E+00 -8.46673044E-05 -4.41775724E+00  2.19886039E+00
 -5.63644291E-04 -4.12883057E-01  5.19748575E-02 -3.53811227E-05  9.60095125E-01
  2.31372773E+00 -2.15641031E-04  8.42932574E-01 -2.27800252E+00  3.42699614E-04
  3.59179996E+00  2.24304133E+00 -1.83805728E-05  3.47783388E+00 -2.32873865E+00
  5.38670009E-04  4.85514446E+00 -7.62851458E-02  3.59008111E-04 -3.21288440E+00
  2.29582097E-01 -2.57426768E-04 -6.15797548E-02  4.09440558E+00 -5.08167503E-04
 -2.36452549E-01 -4.02215900E+00  4.80429005E-04  4.66129697E+00  3.99708623E+00
 -1.58803727E-04  4.46093254E+00 -4.13272353E+00  8.32841353E-04  6.90940388E+00
 -1.28372467E-01  5.12878188E-04 -6.16935232E+00 -1.71354273E+00 -2.53973993E-04
Force Field                                I                0
Int Atom Types                             I   N=          15
           0           0           0           0           0           0
           0           0           0           0           0           0
           0           0           0
MM charges                                 R   N=          15
  0.00000000E+00  0.00000000E+00  0.00000000E+00  0.00000000E+00  0.00000000E+00
  0.00000000E+00  0.00000000E+00  0.00000000E+00  0.00000000E+00  0.00000000E+00
  0.00000000E+00  0.00000000E+00  0.00000000E+00  0.00000000E+00  0.00000000E+00
Integer atomic weights                     I   N=          15
          16          16          12          12          12          12
          12          12          12           1           1           1
           1           1           1
Real atomic weights                        R   N=          15
  1.59949146E+01  1.59949146E+01  1.20000000E+01  1.20000000E+01  1.20000000E+01
  1.20000000E+01  1.20000000E+01  1.20000000E+01  1.20000000E+01  1.00782504E+00
  1.00782504E+00  1.00782504E+00  1.00782504E+00  1.00782504E+00  1.00782504E+00
Atom fragment info                         I   N=          15
           0           0           0           0           0           0
           0           0           0           0           0           0
           0           0           0
Atom residue num                           I   N=          15
           0           0           0           0           0           0
           0           0           0           0           0           0
           0           0           0
Nuclear spins                              I   N=          15
           0           0           0           0           0           0
           0           0           0           1           1           1
           1           1           1
Nuclear ZEff                               R   N=          15
 -5.60000000E+00 -5.60000000E+00 -3.60000000E+00 -3.60000000E+00 -3.60000000E+00
 -3.60000000E+00 -3.60000000E+00 -3.60000000E+00 -3.60000000E+00 -1.00000000E+00
 -1.00000000E+00 -1.00000000E+00 -1.00000000E+00 -1.00000000E+00 -1.00000000E+00
Nuclear QMom                               R   N=          15
  0.00000000E+00  0.00000000E+00  0.00000000E+00  0.00000000E+00  0.00000000E+00
  0.00000000E+00  0.00000000E+00  0.00000000E+00  0.00000000E+00  0.00000000E+00
  0.00000000E+00  0.00000000E+00  0.00000000E+00  0.00000000E+00  0.00000000E+00
Nuclear GFac                               R   N=          15
  0.00000000E+00  0.00000000E+00  0.00000000E+00  0.00000000E+00  0.00000000E+00
  0.00000000E+00  0.00000000E+00  0.00000000E+00  0.00000000E+00  2.79284600E+00
  2.79284600E+00  2.79284600E+00  2.79284600E+00  2.79284600E+00  2.79284600E+00
MicOpt                                     I   N=          15
          -1          -1          -1          -1          -1          -1
          -1          -1          -1          -1          -1          -1
          -1          -1          -1
Number of contracted shells                I               48
Number of primitive shells                 I              123
Pure/Cartesian d shells                    I                1
Pure/Cartesian f shells                    I                0
Highest angular momentum                   I                2
Largest degree of contraction              I                6
Shell types                                I   N=          48
           0          -1          -1           2           0          -1
          -1           2           0          -1          -1           2
           0          -1          -1           2           0          -1
          -1           2           0          -1          -1           2
           0          -1          -1           2           0          -1
          -1           2           0          -1          -1           2
           0           0           0           0           0           0
           0           0           0           0           0           0
Number of primitives per shell             I   N=          48
           6           3           1           1           6           3
           1           1           6           3           1           1
           6           3           1           1           6           3
           1           1           6           3           1           1
           6           3           1           1           6           3
           1           1           6           3           1           1
           3           1           3           1           3           1
           3           1           3           1           3           1
Shell to atom map                          I   N=          48
           1           1           1           1           2           2
           2           2           3           3           3           3
           4           4           4           4           5           5
           5           5           6           6           6           6
           7           7           7           7           8           8
           8           8           9           9           9           9
          10          10          11          11          12          12
          13          13          14          14          15          15
Primitive exponents                        R   N=         123
  5.48467166E+03  8.25234946E+02  1.88046958E+02  5.29645000E+01  1.68975704E+01
  5.79963534E+00  1.55396162E+01  3.59993359E+00  1.01376175E+00  2.70005823E-01
  8.00000000E-01  5.48467166E+03  8.25234946E+02  1.88046958E+02  5.29645000E+01
  1.68975704E+01  5.79963534E+00  1.55396162E+01  3.59993359E+00  1.01376175E+00
  2.70005823E-01  8.00000000E-01  3.04752488E+03  4.57369518E+02  1.03948685E+02
  2.92101553E+01  9.28666296E+00  3.16392696E+00  7.86827235E+00  1.88128854E+00
  5.44249258E-01  1.68714478E-01  8.00000000E-01  3.04752488E+03  4.57369518E+02
  1.03948685E+02  2.92101553E+01  9.28666296E+00  3.16392696E+00  7.86827235E+00
  1.88128854E+00  5.44249258E-01  1.68714478E-01  8.00000000E-01  3.04752488E+03
  4.57369518E+02  1.03948685E+02  2.92101553E+01  9.28666296E+00  3.16392696E+00
  7.86827235E+00  1.88128854E+00  5.44249258E-01  1.68714478E-01  8.00000000E-01
  3.04752488E+03  4.57369518E+02  1.03948685E+02  2.92101553E+01  9.28666296E+00
  3.16392696E+00  7.86827235E+00  1.88128854E+00  5.44249258E-01  1.68714478E-01
  8.00000000E-01  3.04752488E+03  4.57369518E+02  1.03948685E+02  2.92101553E+01
  9.28666296E+00  3.16392696E+00  7.86827235E+00  1.88128854E+00  5.44249258E-01
  1.68714478E-01  8.00000000E-01  3.04752488E+03  4.57369518E+02  1.03948685E+02
  2.92101553E+01  9.28666296E+00  3.16392696E+00  7.86827235E+00  1.88128854E+00
  5.44249258E-01  1.68714478E-01  8.00000000E-01  3.04752488E+03  4.57369518E+02
  1.03948685E+02  2.92101553E+01  9.28666296E+00  3.16392696E+00  7.86827235E+00
  1.88128854E+00  5.44249258E-01  1.68714478E-01  8.00000000E-01  1.87311370E+01
  2.82539436E+00  6.40121692E-01  1.61277759E-01  1.87311370E+01  2.82539436E+00
  6.40121692E-01  1.61277759E-01  1.87311370E+01  2.82539436E+00  6.40121692E-01
  1.61277759E-01  1.87311370E+01  2.82539436E+00  6.40121692E-01  1.61277759E-01
  1.87311370E+01  2.82539436E+00  6.40121692E-01  1.61277759E-01  1.87311370E+01
  2.82539436E+00  6.40121692E-01  1.61277759E-01
Contraction coefficients                   R   N=         123
  1.83107443E-03  1.39501722E-02  6.84450781E-02  2.32714336E-01  4.70192898E-01
  3.58520853E-01 -1.10777550E-01 -1.48026263E-01  1.13076702E+00  1.00000000E+00
  1.00000000E+00  1.83107443E-03  1.39501722E-02  6.84450781E-02  2.32714336E-01
  4.70192898E-01  3.58520853E-01 -1.10777550E-01 -1.48026263E-01  1.13076702E+00
  1.00000000E+00  1.00000000E+00  1.83473713E-03  1.40373228E-02  6.88426223E-02
  2.32184443E-01  4.67941348E-01  3.62311985E-01 -1.19332420E-01 -1.60854152E-01
  1.14345644E+00  1.00000000E+00  1.00000000E+00  1.83473713E-03  1.40373228E-02
  6.88426223E-02  2.32184443E-01  4.67941348E-01  3.62311985E-01 -1.19332420E-01
 -1.60854152E-01  1.14345644E+00  1.00000000E+00  1.00000000E+00  1.83473713E-03
  1.40373228E-02  6.88426223E-02  2.32184443E-01  4.67941348E-01  3.62311985E-01
 -1.19332420E-01 -1.60854152E-01  1.14345644E+00  1.00000000E+00  1.00000000E+00
  1.83473713E-03  1.40373228E-02  6.88426223E-02  2.32184443E-01  4.67941348E-01
  3.62311985E-01 -1.19332420E-01 -1.60854152E-01  1.14345644E+00  1.00000000E+00
  1.00000000E+00  1.83473713E-03  1.40373228E-02  6.88426223E-02  2.32184443E-01
  4.67941348E-01  3.62311985E-01 -1.19332420E-01 -1.60854152E-01  1.14345644E+00
  1.00000000E+00  1.00000000E+00  1.83473713E-03  1.40373228E-02  6.88426223E-02
  2.32184443E-01  4.67941348E-01  3.62311985E-01 -1.19332420E-01 -1.60854152E-01
  1.14345644E+00  1.00000000E+00  1.00000000E+00  1.83473713E-03  1.40373228E-02
  6.88426223E-02  2.32184443E-01  4.67941348E-01  3.62311985E-01 -1.19332420E-01
 -1.60854152E-01  1.14345644E+00  1.00000000E+00  1.00000000E+00  3.34946043E-02
  2.34726953E-01  8.13757326E-01  1.00000000E+00  3.34946043E-02  2.34726953E-01
  8.13757326E-01  1.00000000E+00  3.34946043E-02  2.34726953E-01  8.13757326E-01
  1.00000000E+00  3.34946043E-02  2.34726953E-01  8.13757326E-01  1.00000000E+00
  3.34946043E-02  2.34726953E-01  8.13757326E-01  1.00000000E+00  3.34946043E-02
  2.34726953E-01  8.13757326E-01  1.00000000E+00
P(S=P) Contraction coefficients            R   N=         123
  0.00000000E+00  0.00000000E+00  0.00000000E+00  0.00000000E+00  0.00000000E+00
  0.00000000E+00  7.08742682E-02  3.39752839E-01  7.27158577E-01  1.00000000E+00
  0.00000000E+00  0.00000000E+00  0.00000000E+00  0.00000000E+00  0.00000000E+00
  0.00000000E+00  0.00000000E+00  7.08742682E-02  3.39752839E-01  7.27158577E-01
  1.00000000E+00  0.00000000E+00  0.00000000E+00  0.00000000E+00  0.00000000E+00
  0.00000000E+00  0.00000000E+00  0.00000000E+00  6.89990666E-02  3.16423961E-01
  7.44308291E-01  1.00000000E+00  0.00000000E+00  0.00000000E+00  0.00000000E+00
  0.00000000E+00  0.00000000E+00  0.00000000E+00  0.00000000E+00  6.89990666E-02
  3.16423961E-01  7.44308291E-01  1.00000000E+00  0.00000000E+00  0.00000000E+00
  0.00000000E+00  0.00000000E+00  0.00000000E+00  0.00000000E+00  0.00000000E+00
  6.89990666E-02  3.16423961E-01  7.44308291E-01  1.00000000E+00  0.00000000E+00
  0.00000000E+00  0.00000000E+00  0.00000000E+00  0.00000000E+00  0.00000000E+00
  0.00000000E+00  6.89990666E-02  3.16423961E-01  7.44308291E-01  1.00000000E+00
  0.00000000E+00  0.00000000E+00  0.00000000E+00  0.00000000E+00  0.00000000E+00
  0.00000000E+00  0.00000000E+00  6.89990666E-02  3.16423961E-01  7.44308291E-01
  1.00000000E+00  0.00000000E+00  0.00000000E+00  0.00000000E+00  0.00000000E+00
  0.00000000E+00  0.00000000E+00  0.00000000E+00  6.89990666E-02  3.16423961E-01
  7.44308291E-01  1.00000000E+00  0.00000000E+00  0.00000000E+00  0.00000000E+00
  0.00000000E+00  0.00000000E+00  0.00000000E+00  0.00000000E+00  6.89990666E-02
  3.16423961E-01  7.44308291E-01  1.00000000E+00  0.00000000E+00  0.00000000E+00
  0.00000000E+00  0.00000000E+00  0.00000000E+00  0.00000000E+00  0.00000000E+00
  0.00000000E+00  0.00000000E+00  0.00000000E+00  0.00000000E+00  0.00000000E+00
  0.00000000E+00  0.00000000E+00  0.00000000E+00  0.00000000E+00  0.00000000E+00
  0.00000000E+00  0.00000000E+00  0.00000000E+00  0.00000000E+00  0.00000000E+00
  0.00000000E+00  0.00000000E+00  0.00000000E+00
Coordinates of each shell                  R   N=         144
 -4.35430276E+00 -2.07717192E+00 -8.46673044E-05 -4.35430276E+00 -2.07717192E+00
 -8.46673044E-05 -4.35430276E+00 -2.07717192E+00 -8.46673044E-05 -4.35430276E+00
 -2.07717192E+00 -8.46673044E-05 -4.41775724E+00  2.19886039E+00 -5.63644291E-04
 -4.41775724E+00  2.19886039E+00 -5.63644291E-04 -4.41775724E+00  2.19886039E+00
 -5.63644291E-04 -4.41775724E+00  2.19886039E+00 -5.63644291E-04 -4.12883057E-01
  5.19748575E-02 -3.53811227E-05 -4.12883057E-01  5.19748575E-02 -3.53811227E-05
 -4.12883057E-01  5.19748575E-02 -3.53811227E-05 -4.12883057E-01  5.19748575E-02
 -3.53811227E-05  9.60095125E-01  2.31372773E+00 -2.15641031E-04  9.60095125E-01
  2.31372773E+00 -2.15641031E-04  9.60095125E-01  2.31372773E+00 -2.15641031E-04
  9.60095125E-01  2.31372773E+00 -2.15641031E-04  8.42932574E-01 -2.27800252E+00
  3.42699614E-04  8.42932574E-01 -2.27800252E+00  3.42699614E-04  8.42932574E-01
 -2.27800252E+00  3.42699614E-04  8.42932574E-01 -2.27800252E+00  3.42699614E-04
  3.59179996E+00  2.24304133E+00 -1.83805728E-05  3.59179996E+00  2.24304133E+00
 -1.83805728E-05  3.59179996E+00  2.24304133E+00 -1.83805728E-05  3.59179996E+00
  2.24304133E+00 -1.83805728E-05  3.47783388E+00 -2.32873865E+00  5.38670009E-04
  3.47783388E+00 -2.32873865E+00  5.38670009E-04  3.47783388E+00 -2.32873865E+00
  5.38670009E-04  3.47783388E+00 -2.32873865E+00  5.38670009E-04  4.85514446E+00
 -7.62851458E-02  3.59008111E-04  4.85514446E+00 -7.62851458E-02  3.59008111E-04
  4.85514446E+00 -7.62851458E-02  3.59008111E-04  4.85514446E+00 -7.62851458E-02
  3.59008111E-04 -3.21288440E+00  2.29582097E-01 -2.57426768E-04 -3.21288440E+00
  2.29582097E-01 -2.57426768E-04 -3.21288440E+00  2.29582097E-01 -2.57426768E-04
 -3.21288440E+00  2.29582097E-01 -2.57426768E-04 -6.15797548E-02  4.09440558E+00
 -5.08167503E-04 -6.15797548E-02  4.09440558E+00 -5.08167503E-04 -2.36452549E-01
 -4.02215900E+00  4.80429005E-04 -2.36452549E-01 -4.02215900E+00  4.80429005E-04
  4.66129697E+00  3.99708623E+00 -1.58803727E-04  4.66129697E+00  3.99708623E+00
 -1.58803727E-04  4.46093254E+00 -4.13272353E+00  8.32841353E-04  4.46093254E+00
 -4.13272353E+00  8.32841353E-04  6.90940388E+00 -1.28372467E-01  5.12878188E-04
  6.90940388E+00 -1.28372467E-01  5.12878188E-04 -6.16935232E+00 -1.71354273E+00
 -2.53973993E-04 -6.16935232E+00 -1.71354273E+00 -2.53973993E-04
Constraint Structure                       R   N=          45
 -4.35430276E+00 -2.07717192E+00 -8.46673044E-05 -4.41775724E+00  2.19886039E+00
 -5.63644291E-04 -4.12883057E-01  5.19748575E-02 -3.53811227E-05  9.60095125E-01
  2.31372773E+00 -2.15641031E-04  8.42932574E-01 -2.27800252E+00  3.42699614E-04
  3.59179996E+00  2.24304133E+00 -1.83805728E-05  3.47783388E+00 -2.32873865E+00
  5.38670009E-04  4.85514446E+00 -7.62851458E-02  3.59008111E-04 -3.21288440E+00
  2.29582097E-01 -2.57426768E-04 -6.15797548E-02  4.09440558E+00 -5.08167503E-04
 -2.36452549E-01 -4.02215900E+00  4.80429005E-04  4.66129697E+00  3.99708623E+00
 -1.58803727E-04  4.46093254E+00 -4.13272353E+00  8.32841353E-04  6.90940388E+00
 -1.28372467E-01  5.12878188E-04 -6.16935232E+00 -1.71354273E+00 -2.53973993E-04
Num ILSW                                   I              100
ILSW                                       I   N=         100
           0           1           0           0           2           0
           0           0           0           0           0          -1
           0           0           0           0           0           0
           0           0           0           0           1           0
           1           0           0           0           0           0
           0           0      100000           0          -1           0
           0           0           0           0           0           0
           0           0           0           1           1           0
           0           0           1           0           0           0
           0           0           4          40           0           0
           0           0           0           0           0           0
           0           0           0           0           0           0
           0           0           0           0           0           0
           0           0           0           0           0           0
           0           0           0           0           0           0
           0           0           0           0           0           0
           0           0           0           0
Num RLSW                                   I               40
RLSW                                       R   N=          40
  1.00000000E+00  1.00000000E+00  1.00000000E+00  1.00000000E+00  1.00000000E+00
  0.00000000E+00  0.00000000E+00  1.00000000E+00  0.00000000E+00  0.00000000E+00
  0.00000000E+00  0.00000000E+00  1.00000000E+00  0.00000000E+00  0.00000000E+00
  0.00000000E+00  0.00000000E+00  1.00000000E+00  0.00000000E+00  0.00000000E+00
  0.00000000E+00  0.00000000E+00  1.00000000E+00  0.00000000E+00  0.00000000E+00
  0.00000000E+00  0.00000000E+00  1.00000000E+00  0.00000000E+00  0.00000000E+00
  0.00000000E+00  0.00000000E+00  0.00000000E+00  0.00000000E+00  0.00000000E+00
  0.00000000E+00  0.00000000E+00  0.00000000E+00  1.00000000E+00  1.00000000E+00
MxBond                                     I                3
NBond                                      I   N=          15
           2           1           3           3           3           3
           3           3           3           1           1           1
           1           1           1
IBond                                      I   N=          45
           9          15           0           9           0           0
           4           5           9           3           6          10
           3           7          11           4           8          12
           5           8          13           6           7          14
           1           2           3           4           0           0
           5           0           0           6           0           0
           7           0           0           8           0           0
           1           0           0
RBond                                      R   N=          45
  1.50000000E+00  1.00000000E+00  0.00000000E+00  2.00000000E+00  0.00000000E+00
  0.00000000E+00  1.50000000E+00  1.50000000E+00  1.00000000E+00  1.50000000E+00
  1.50000000E+00  1.00000000E+00  1.50000000E+00  1.50000000E+00  1.00000000E+00
  1.50000000E+00  1.50000000E+00  1.00000000E+00  1.50000000E+00  1.50000000E+00
  1.00000000E+00  1.50000000E+00  1.50000000E+00  1.00000000E+00  1.50000000E+00
  2.00000000E+00  1.00000000E+00  1.00000000E+00  0.00000000E+00  0.00000000E+00
  1.00000000E+00  0.00000000E+00  0.00000000E+00  1.00000000E+00  0.00000000E+00
  0.00000000E+00  1.00000000E+00  0.00000000E+00  0.00000000E+00  1.00000000E+00
  0.00000000E+00  0.00000000E+00  1.00000000E+00  0.00000000E+00  0.00000000E+00
Virial Ratio                               R      2.002756416684086E+00
SCF Energy                                 R     -4.183203416997824E+02
MP2 Energy                                 R     -4.195553009159694E+02
Total Energy                               R     -4.195553009159694E+02
Post-SCF wavefunction norm                 R      1.685138601886313E+00
RMS Force                                  R      1.620103195013251E-07
RMS Density                                R      1.850093581642704E-09
External E-field                           R   N=          35
  0.00000000E+00  0.00000000E+00  0.00000000E+00  0.00000000E+00  0.00000000E+00
  0.00000000E+00  0.00000000E+00  0.00000000E+00  0.00000000E+00  0.00000000E+00
  0.00000000E+00  0.00000000E+00  0.00000000E+00  0.00000000E+00  0.00000000E+00
  0.00000000E+00  0.00000000E+00  0.00000000E+00  0.00000000E+00  0.00000000E+00
  0.00000000E+00  0.00000000E+00  0.00000000E+00  0.00000000E+00  0.00000000E+00
  0.00000000E+00  0.00000000E+00  0.00000000E+00  0.00000000E+00  0.00000000E+00
  0.00000000E+00  0.00000000E+00  0.00000000E+00  0.00000000E+00  0.00000000E+00
IOpCl                                      I                0
IROHF                                      I                0
Alpha Orbital Energies                     R   N=         147
 -2.06204657E+01 -2.05547614E+01 -1.13946863E+01 -1.12563788E+01 -1.12561962E+01
 -1.12551206E+01 -1.12529173E+01 -1.12472117E+01 -1.12463832E+01 -1.45698189E+00
 -1.35150082E+00 -1.16458208E+00 -1.04504370E+00 -1.02576046E+00 -8.94330681E-01
 -8.39289339E-01 -7.95705956E-01 -7.24824859E-01 -6.98592563E-01 -6.70674974E-01
 -6.35089339E-01 -6.26405636E-01 -6.20274316E-01 -5.99629705E-01 -5.80559496E-01
 -5.22295973E-01 -5.12411600E-01 -5.03492134E-01 -4.76959317E-01 -4.50561028E-01
 -3.49432211E-01 -3.44318549E-01  8.81852326E-02  1.33661298E-01  2.22178506E-01
  2.37018883E-01  2.39672097E-01  2.86419919E-01  3.02739103E-01  3.24688388E-01
  3.37888344E-01  3.74923112E-01  4.29835178E-01  4.51420341E-01  4.61372552E-01
  4.74099142E-01  4.77168736E-01  5.38981662E-01  5.69068030E-01  6.86946355E-01
  7.26311748E-01  7.27283682E-01  7.56622968E-01  7.66259958E-01  7.78673979E-01
  8.02650036E-01  8.06144751E-01  8.16363380E-01  8.26496627E-01  8.32081270E-01
  8.43080496E-01  8.66466447E-01  8.95332409E-01  9.39890352E-01  9.39899032E-01
  9.77296554E-01  1.00699110E+00  1.05622124E+00  1.07887463E+00  1.09390101E+00
  1.09593306E+00  1.10293512E+00  1.11302555E+00  1.14885057E+00  1.17911182E+00
  1.19774040E+00  1.21041832E+00  1.22149829E+00  1.23779821E+00  1.28452135E+00
  1.32240577E+00  1.33380618E+00  1.34187345E+00  1.39923411E+00  1.43064042E+00
  1.49452262E+00  1.52464733E+00  1.55145725E+00  1.56818438E+00  1.60247077E+00
  1.66289937E+00  1.69246518E+00  1.69797694E+00  1.71054886E+00  1.75071137E+00
  1.75609842E+00  1.77221154E+00  1.77693304E+00  1.96433483E+00  1.97842778E+00
  2.04524293E+00  2.05161447E+00  2.07097523E+00  2.12339007E+00  2.14835843E+00
  2.16589598E+00  2.19711011E+00  2.20796124E+00  2.23731021E+00  2.29478159E+00
  2.32477736E+00  2.36650010E+00  2.38143795E+00  2.44823768E+00  2.45474210E+00
  2.45796208E+00  2.46602919E+00  2.58239621E+00  2.60314605E+00  2.62030062E+00
  2.62090935E+00  2.71765568E+00  2.79709498E+00  2.81719845E+00  2.91701017E+00
  2.93870742E+00  2.93956367E+00  3.00710382E+00  3.02839002E+00  3.06651237E+00
  3.09198899E+00  3.09375463E+00  3.15516721E+00  3.23787471E+00  3.33594031E+00
  3.44721387E+00  3.53461681E+00  3.79723885E+00  4.27361296E+00  4.49455704E+00
  4.51738728E+00  4.52615084E+00  4.63330447E+00  4.72865159E+00  4.79162190E+00
  4.89298965E+00  5.13154716E+00
Alpha MO coefficients                      R   N=       21609
  9.94626266E-01  2.11527987E-02 -5.65047243E-04  1.15696764E-03 -1.67675841E-07
  4.20436197E-03  5.12738302E-04 -5.49729085E-04  9.83925812E-08 -4.19046606E-03
 -4.13349778E-03 -3.98434091E-03 -2.43816220E-05 -1.38195650E-08  1.71762108E-08
 -2.63516346E-04  1.25546296E-05  5.96740750E-06  3.92219678E-05 -3.74278209E-09
 -2.25320954E-04  9.83718417E-05  8.01836870E-05 -2.38042146E-09  5.11070041E-05
 -6.65452136E-05 -2.25882754E-05 -3.38441076E-05  9.84359094E-09  3.22880691E-09
 -1.25442102E-05 -3.69088942E-05  2.97127623E-05 -1.05231315E-05  3.33596312E-09
  1.19325902E-03 -4.30173917E-04 -2.20665045E-04 -3.24103845E-09 -4.13053899E-05
 -5.31997658E-06 -3.51185680E-05 -5.28927184E-05  5.34701281E-09 -8.24056405E-09
  8.42710011E-07  6.50914667E-06  3.63456653E-06 -8.80589623E-06  1.66227096E-09
  3.41173995E-06  3.55237320E-05 -1.18028348E-05  3.07564823E-09 -9.17511156E-06
  1.77309866E-05 -9.27596759E-07 -4.05080128E-06 -1.71804699E-10 -2.94386785E-09
 -3.74212536E-06 -1.28776064E-05 -4.18883467E-05  2.40555926E-05 -6.76086355E-09
  4.63385563E-04  7.91769978E-04 -4.32937087E-04  1.12887394E-07  2.35913595E-05
 -4.52174945E-05 -2.66093750E-07  2.27859099E-05 -1.02796463E-09  8.05332989E-09
  3.45403661E-07  2.19026291E-06 -3.27696449E-06  8.49842409E-06 -1.30545448E-09
 -1.80344390E-04 -5.47933944E-05  5.63290941E-05 -1.06696283E-08  4.90573038E-06
 -4.98316023E-06 -2.34748212E-07  2.92814863E-06 -4.85939970E-12  9.09867827E-10
  7.63766499E-06  4.34915262E-05  1.28762407E-05 -7.90467165E-06  2.17909985E-09
 -7.12686555E-04  5.12309334E-04  1.66544474E-04  1.48482371E-08 -2.15345691E-05
  1.17428475E-05  1.64977946E-05 -3.20655570E-06 -2.62974396E-09  3.78958313E-10
 -2.97286419E-06 -1.36848289E-05  1.09666625E-05 -7.66679119E-06  1.71743921E-09
 -5.93856279E-06 -1.47961210E-04  1.94320424E-04 -3.42998587E-08 -1.86567832E-06
 -1.14560865E-06 -6.73124073E-06 -2.96835878E-06  7.39475740E-10 -1.09866668E-09
  8.85993111E-08  4.10847741E-04 -1.44038962E-04 -2.84125422E-04  2.07033490E-08
 -6.93406599E-04 -7.10797130E-04  3.03024038E-04 -8.43282413E-08 -2.93536668E-05
 -8.11611740E-05 -4.72816332E-05 -2.14743140E-05  3.95368114E-09  2.75630392E-09
  7.57722544E-06 -3.99842235E-06  7.42842013E-05 -3.25466829E-04  5.85743023E-06
  9.21826430E-06  2.01655408E-05  2.81347701E-05  1.67200481E-05  5.40489748E-05
  4.63339667E-04 -2.58638987E-04  2.52532584E-04 -7.02887569E-05  3.50510884E-06
 -4.05459302E-05  4.63754815E-09  3.01700864E-04  5.17430600E-05  1.11610745E-04
 -8.24170592E-09  1.37993512E-05 -8.85094433E-05 -9.10545368E-05  7.18885896E-05
  9.10366112E-10  4.91794291E-09  9.94688142E-01  2.09804575E-02  7.88175946E-04
 -1.35123957E-03  2.07139930E-07  4.52733439E-03 -1.37534454E-05  1.29825009E-05
 -2.68161290E-09 -3.83959080E-03 -3.69357000E-03 -4.13294159E-03 -1.59745686E-04
  4.25249102E-08 -6.76622966E-08 -5.90334034E-07 -1.05333277E-05  1.22141676E-05
 -1.07331599E-05  1.83725752E-09  5.02085197E-05  1.80927062E-05  4.44939547E-05
 -3.66634020E-09  1.78684501E-05 -3.49882495E-06 -1.57624397E-05  9.02009164E-05
 -7.50448340E-09  4.75809558E-09 -1.88096005E-06 -3.81814962E-06 -7.22500740E-06
 -1.83252476E-06 -1.15751632E-10  2.09320571E-04  2.05380079E-04  1.61958039E-04
 -6.06093331E-09  1.02988539E-05 -3.88151371E-05  5.04170909E-07 -1.09064870E-05
  2.22476627E-09  4.93096361E-09  1.46812144E-06  8.31289262E-06 -1.82577678E-05
  1.32262990E-05 -3.09862768E-09  1.08473865E-04  2.18044192E-04  3.38784335E-05
  1.17184093E-08 -3.95924985E-06  1.88953985E-05  5.70913742E-06 -8.53652193E-07
 -7.42018747E-10 -2.01156445E-09  3.28522476E-06  1.79698838E-05  3.51078039E-06
  2.50531155E-06 -1.22227027E-10 -2.72685119E-04  1.52090382E-04 -3.26180501E-05
  1.53073640E-08 -7.62281744E-06  3.93630834E-06  7.23930458E-06  4.31411505E-06
 -1.80251442E-09  7.66385550E-10  3.37571978E-06  1.86246366E-05 -1.13889800E-07
 -1.77468414E-06  2.47911473E-10 -2.83202086E-04  1.13171562E-04 -7.34673370E-05
  1.71240379E-08 -9.62464456E-07 -6.92164724E-07  6.78322454E-06  1.21730865E-06
 -7.81901803E-10  1.15443620E-09 -1.53431187E-06 -7.88115503E-06  3.14897638E-06
 -1.49919619E-06  4.29237224E-10  6.71525857E-05 -1.06445140E-04 -2.90165227E-05
 -4.14545394E-09 -7.15259563E-07 -2.64767545E-07 -2.53258128E-06  1.29073043E-06
 -2.63003649E-12 -2.59457086E-10 -4.51237699E-06  4.97942873E-04  2.11378161E-05
 -3.78949007E-05  5.82174155E-09 -5.15811292E-04  3.76243084E-04 -2.88442208E-04
  5.91334734E-08 -2.55105515E-04 -6.25776806E-04 -3.79609868E-05  3.80216731E-04
 -6.05877652E-08  1.02943295E-07  2.61051046E-05 -1.62302031E-04  1.96909467E-05
  3.47968564E-05  6.02437933E-06  6.29655703E-06  2.08246566E-06 -2.68373267E-05
  8.56267719E-06  3.02080879E-05 -1.68327063E-05 -1.07573074E-05 -7.60114574E-05
  6.71905050E-04  5.35371927E-06  1.80805901E-04 -1.93945509E-08 -1.50742263E-03
  1.81558619E-04 -1.81854206E-03  2.13813096E-07  8.18120231E-05 -5.79400616E-04
  5.70512320E-04 -3.56438205E-04 -1.47770710E-09  1.21201319E-07 -2.20227033E-04
  8.60307013E-04  1.27343381E-04 -2.90283331E-04  4.09914212E-08 -4.56943843E-03
 -4.08893595E-04  2.15968846E-03 -2.68012277E-07  4.39625944E-04  6.84653046E-05
  5.51869157E-04 -1.54408726E-06 -8.98941154E-09  6.18794454E-08  2.34442174E-03
  2.52289949E-06  1.08052154E-04  6.53036969E-05  3.84776193E-10  5.61798239E-03