12948183                                                                
Freq      RMP2-FC                                                     6-31G(d)            
Number of atoms                            I               17
Info1-9                                    I   N=           9
          29          27        1002           0           0         100
           6           2           1
Charge                                     I                0
Multiplicity                               I                1
Number of electrons                        I               68
Number of alpha electrons                  I               34
Number of beta electrons                   I               34
Number of basis functions                  I              151
Number of independent functions            I              151
Number of point charges in /Mol/           I                0
Number of translation vectors              I                0
Atomic numbers                             I   N=          17
           8           8           8           6           6           6
           6           6           6           1           1           1
           1           1           1           1           1
Nuclear charges                            R   N=          17
  8.00000000E+00  8.00000000E+00  8.00000000E+00  6.00000000E+00  6.00000000E+00
  6.00000000E+00  6.00000000E+00  6.00000000E+00  6.00000000E+00  1.00000000E+00
  1.00000000E+00  1.00000000E+00  1.00000000E+00  1.00000000E+00  1.00000000E+00
  1.00000000E+00  1.00000000E+00
Current cartesian coordinates              R   N=          51
 -2.92102300E+00 -2.67415787E+00 -2.24722309E-05  6.43554240E+00 -1.57308917E+00
 -8.88444774E-07  5.16781337E+00  2.52507195E+00  6.05635397E-06 -4.71717609E+00
  1.50675802E+00  1.34680241E-05 -2.56430693E+00 -3.73326685E-01 -2.19652669E-05
 -7.30567513E+00  2.57662151E-01  1.81465097E-05  4.37317401E-02  7.01028833E-01
 -4.50439195E-05  2.07921622E+00 -8.17253138E-01  3.12582009E-05  4.65347150E+00
  2.74515234E-01  1.30880574E-05 -4.47564629E+00  2.74382462E+00 -1.65041626E+00
 -4.47562173E+00  2.74378258E+00  1.65047171E+00 -7.53773085E+00 -9.39229499E-01
 -1.66429606E+00 -8.79846296E+00  1.68495075E+00  3.64326475E-05 -7.53771379E+00
 -9.39254350E-01  1.66431675E+00  3.00342275E-01  2.74200326E+00 -1.10744042E-04
  1.86383847E+00 -2.85820714E+00  9.90297318E-05  8.06676486E+00 -6.96776033E-01
 -1.61394466E-05
Force Field                                I                0
Int Atom Types                             I   N=          17
           0           0           0           0           0           0
           0           0           0           0           0           0
           0           0           0           0           0
MM charges                                 R   N=          17
  0.00000000E+00  0.00000000E+00  0.00000000E+00  0.00000000E+00  0.00000000E+00
  0.00000000E+00  0.00000000E+00  0.00000000E+00  0.00000000E+00  0.00000000E+00
  0.00000000E+00  0.00000000E+00  0.00000000E+00  0.00000000E+00  0.00000000E+00
  0.00000000E+00  0.00000000E+00
Integer atomic weights                     I   N=          17
          16          16          16          12          12          12
          12          12          12           1           1           1
           1           1           1           1           1
Real atomic weights                        R   N=          17
  1.59949146E+01  1.59949146E+01  1.59949146E+01  1.20000000E+01  1.20000000E+01
  1.20000000E+01  1.20000000E+01  1.20000000E+01  1.20000000E+01  1.00782504E+00
  1.00782504E+00  1.00782504E+00  1.00782504E+00  1.00782504E+00  1.00782504E+00
  1.00782504E+00  1.00782504E+00
Atom fragment info                         I   N=          17
           0           0           0           0           0           0
           0           0           0           0           0           0
           0           0           0           0           0
Atom residue num                           I   N=          17
           0           0           0           0           0           0
           0           0           0           0           0           0
           0           0           0           0           0
Nuclear spins                              I   N=          17
           0           0           0           0           0           0
           0           0           0           1           1           1
           1           1           1           1           1
Nuclear ZEff                               R   N=          17
 -5.60000000E+00 -5.60000000E+00 -5.60000000E+00 -3.60000000E+00 -3.60000000E+00
 -3.60000000E+00 -3.60000000E+00 -3.60000000E+00 -3.60000000E+00 -1.00000000E+00
 -1.00000000E+00 -1.00000000E+00 -1.00000000E+00 -1.00000000E+00 -1.00000000E+00
 -1.00000000E+00 -1.00000000E+00
Nuclear QMom                               R   N=          17
  0.00000000E+00  0.00000000E+00  0.00000000E+00  0.00000000E+00  0.00000000E+00
  0.00000000E+00  0.00000000E+00  0.00000000E+00  0.00000000E+00  0.00000000E+00
  0.00000000E+00  0.00000000E+00  0.00000000E+00  0.00000000E+00  0.00000000E+00
  0.00000000E+00  0.00000000E+00
Nuclear GFac                               R   N=          17
  0.00000000E+00  0.00000000E+00  0.00000000E+00  0.00000000E+00  0.00000000E+00
  0.00000000E+00  0.00000000E+00  0.00000000E+00  0.00000000E+00  2.79284600E+00
  2.79284600E+00  2.79284600E+00  2.79284600E+00  2.79284600E+00  2.79284600E+00
  2.79284600E+00  2.79284600E+00
MicOpt                                     I   N=          17
          -1          -1          -1          -1          -1          -1
          -1          -1          -1          -1          -1          -1
          -1          -1          -1          -1          -1
Number of contracted shells                I               52
Number of primitive shells                 I              131
Pure/Cartesian d shells                    I                1
Pure/Cartesian f shells                    I                0
Highest angular momentum                   I                2
Largest degree of contraction              I                6
Shell types                                I   N=          52
           0          -1          -1           2           0          -1
          -1           2           0          -1          -1           2
           0          -1          -1           2           0          -1
          -1           2           0          -1          -1           2
           0          -1          -1           2           0          -1
          -1           2           0          -1          -1           2
           0           0           0           0           0           0
           0           0           0           0           0           0
           0           0           0           0
Number of primitives per shell             I   N=          52
           6           3           1           1           6           3
           1           1           6           3           1           1
           6           3           1           1           6           3
           1           1           6           3           1           1
           6           3           1           1           6           3
           1           1           6           3           1           1
           3           1           3           1           3           1
           3           1           3           1           3           1
           3           1           3           1
Shell to atom map                          I   N=          52
           1           1           1           1           2           2
           2           2           3           3           3           3
           4           4           4           4           5           5
           5           5           6           6           6           6
           7           7           7           7           8           8
           8           8           9           9           9           9
          10          10          11          11          12          12
          13          13          14          14          15          15
          16          16          17          17
Primitive exponents                        R   N=         131
  5.48467166E+03  8.25234946E+02  1.88046958E+02  5.29645000E+01  1.68975704E+01
  5.79963534E+00  1.55396162E+01  3.59993359E+00  1.01376175E+00  2.70005823E-01
  8.00000000E-01  5.48467166E+03  8.25234946E+02  1.88046958E+02  5.29645000E+01
  1.68975704E+01  5.79963534E+00  1.55396162E+01  3.59993359E+00  1.01376175E+00
  2.70005823E-01  8.00000000E-01  5.48467166E+03  8.25234946E+02  1.88046958E+02
  5.29645000E+01  1.68975704E+01  5.79963534E+00  1.55396162E+01  3.59993359E+00
  1.01376175E+00  2.70005823E-01  8.00000000E-01  3.04752488E+03  4.57369518E+02
  1.03948685E+02  2.92101553E+01  9.28666296E+00  3.16392696E+00  7.86827235E+00
  1.88128854E+00  5.44249258E-01  1.68714478E-01  8.00000000E-01  3.04752488E+03
  4.57369518E+02  1.03948685E+02  2.92101553E+01  9.28666296E+00  3.16392696E+00
  7.86827235E+00  1.88128854E+00  5.44249258E-01  1.68714478E-01  8.00000000E-01
  3.04752488E+03  4.57369518E+02  1.03948685E+02  2.92101553E+01  9.28666296E+00
  3.16392696E+00  7.86827235E+00  1.88128854E+00  5.44249258E-01  1.68714478E-01
  8.00000000E-01  3.04752488E+03  4.57369518E+02  1.03948685E+02  2.92101553E+01
  9.28666296E+00  3.16392696E+00  7.86827235E+00  1.88128854E+00  5.44249258E-01
  1.68714478E-01  8.00000000E-01  3.04752488E+03  4.57369518E+02  1.03948685E+02
  2.92101553E+01  9.28666296E+00  3.16392696E+00  7.86827235E+00  1.88128854E+00
  5.44249258E-01  1.68714478E-01  8.00000000E-01  3.04752488E+03  4.57369518E+02
  1.03948685E+02  2.92101553E+01  9.28666296E+00  3.16392696E+00  7.86827235E+00
  1.88128854E+00  5.44249258E-01  1.68714478E-01  8.00000000E-01  1.87311370E+01
  2.82539436E+00  6.40121692E-01  1.61277759E-01  1.87311370E+01  2.82539436E+00
  6.40121692E-01  1.61277759E-01  1.87311370E+01  2.82539436E+00  6.40121692E-01
  1.61277759E-01  1.87311370E+01  2.82539436E+00  6.40121692E-01  1.61277759E-01
  1.87311370E+01  2.82539436E+00  6.40121692E-01  1.61277759E-01  1.87311370E+01
  2.82539436E+00  6.40121692E-01  1.61277759E-01  1.87311370E+01  2.82539436E+00
  6.40121692E-01  1.61277759E-01  1.87311370E+01  2.82539436E+00  6.40121692E-01
  1.61277759E-01
Contraction coefficients                   R   N=         131
  1.83107443E-03  1.39501722E-02  6.84450781E-02  2.32714336E-01  4.70192898E-01
  3.58520853E-01 -1.10777550E-01 -1.48026263E-01  1.13076702E+00  1.00000000E+00
  1.00000000E+00  1.83107443E-03  1.39501722E-02  6.84450781E-02  2.32714336E-01
  4.70192898E-01  3.58520853E-01 -1.10777550E-01 -1.48026263E-01  1.13076702E+00
  1.00000000E+00  1.00000000E+00  1.83107443E-03  1.39501722E-02  6.84450781E-02
  2.32714336E-01  4.70192898E-01  3.58520853E-01 -1.10777550E-01 -1.48026263E-01
  1.13076702E+00  1.00000000E+00  1.00000000E+00  1.83473713E-03  1.40373228E-02
  6.88426223E-02  2.32184443E-01  4.67941348E-01  3.62311985E-01 -1.19332420E-01
 -1.60854152E-01  1.14345644E+00  1.00000000E+00  1.00000000E+00  1.83473713E-03
  1.40373228E-02  6.88426223E-02  2.32184443E-01  4.67941348E-01  3.62311985E-01
 -1.19332420E-01 -1.60854152E-01  1.14345644E+00  1.00000000E+00  1.00000000E+00
  1.83473713E-03  1.40373228E-02  6.88426223E-02  2.32184443E-01  4.67941348E-01
  3.62311985E-01 -1.19332420E-01 -1.60854152E-01  1.14345644E+00  1.00000000E+00
  1.00000000E+00  1.83473713E-03  1.40373228E-02  6.88426223E-02  2.32184443E-01
  4.67941348E-01  3.62311985E-01 -1.19332420E-01 -1.60854152E-01  1.14345644E+00
  1.00000000E+00  1.00000000E+00  1.83473713E-03  1.40373228E-02  6.88426223E-02
  2.32184443E-01  4.67941348E-01  3.62311985E-01 -1.19332420E-01 -1.60854152E-01
  1.14345644E+00  1.00000000E+00  1.00000000E+00  1.83473713E-03  1.40373228E-02
  6.88426223E-02  2.32184443E-01  4.67941348E-01  3.62311985E-01 -1.19332420E-01
 -1.60854152E-01  1.14345644E+00  1.00000000E+00  1.00000000E+00  3.34946043E-02
  2.34726953E-01  8.13757326E-01  1.00000000E+00  3.34946043E-02  2.34726953E-01
  8.13757326E-01  1.00000000E+00  3.34946043E-02  2.34726953E-01  8.13757326E-01
  1.00000000E+00  3.34946043E-02  2.34726953E-01  8.13757326E-01  1.00000000E+00
  3.34946043E-02  2.34726953E-01  8.13757326E-01  1.00000000E+00  3.34946043E-02
  2.34726953E-01  8.13757326E-01  1.00000000E+00  3.34946043E-02  2.34726953E-01
  8.13757326E-01  1.00000000E+00  3.34946043E-02  2.34726953E-01  8.13757326E-01
  1.00000000E+00
P(S=P) Contraction coefficients            R   N=         131
  0.00000000E+00  0.00000000E+00  0.00000000E+00  0.00000000E+00  0.00000000E+00
  0.00000000E+00  7.08742682E-02  3.39752839E-01  7.27158577E-01  1.00000000E+00
  0.00000000E+00  0.00000000E+00  0.00000000E+00  0.00000000E+00  0.00000000E+00
  0.00000000E+00  0.00000000E+00  7.08742682E-02  3.39752839E-01  7.27158577E-01
  1.00000000E+00  0.00000000E+00  0.00000000E+00  0.00000000E+00  0.00000000E+00
  0.00000000E+00  0.00000000E+00  0.00000000E+00  7.08742682E-02  3.39752839E-01
  7.27158577E-01  1.00000000E+00  0.00000000E+00  0.00000000E+00  0.00000000E+00
  0.00000000E+00  0.00000000E+00  0.00000000E+00  0.00000000E+00  6.89990666E-02
  3.16423961E-01  7.44308291E-01  1.00000000E+00  0.00000000E+00  0.00000000E+00
  0.00000000E+00  0.00000000E+00  0.00000000E+00  0.00000000E+00  0.00000000E+00
  6.89990666E-02  3.16423961E-01  7.44308291E-01  1.00000000E+00  0.00000000E+00
  0.00000000E+00  0.00000000E+00  0.00000000E+00  0.00000000E+00  0.00000000E+00
  0.00000000E+00  6.89990666E-02  3.16423961E-01  7.44308291E-01  1.00000000E+00
  0.00000000E+00  0.00000000E+00  0.00000000E+00  0.00000000E+00  0.00000000E+00
  0.00000000E+00  0.00000000E+00  6.89990666E-02  3.16423961E-01  7.44308291E-01
  1.00000000E+00  0.00000000E+00  0.00000000E+00  0.00000000E+00  0.00000000E+00
  0.00000000E+00  0.00000000E+00  0.00000000E+00  6.89990666E-02  3.16423961E-01
  7.44308291E-01  1.00000000E+00  0.00000000E+00  0.00000000E+00  0.00000000E+00
  0.00000000E+00  0.00000000E+00  0.00000000E+00  0.00000000E+00  6.89990666E-02
  3.16423961E-01  7.44308291E-01  1.00000000E+00  0.00000000E+00  0.00000000E+00
  0.00000000E+00  0.00000000E+00  0.00000000E+00  0.00000000E+00  0.00000000E+00
  0.00000000E+00  0.00000000E+00  0.00000000E+00  0.00000000E+00  0.00000000E+00
  0.00000000E+00  0.00000000E+00  0.00000000E+00  0.00000000E+00  0.00000000E+00
  0.00000000E+00  0.00000000E+00  0.00000000E+00  0.00000000E+00  0.00000000E+00
  0.00000000E+00  0.00000000E+00  0.00000000E+00  0.00000000E+00  0.00000000E+00
  0.00000000E+00  0.00000000E+00  0.00000000E+00  0.00000000E+00  0.00000000E+00
  0.00000000E+00
Coordinates of each shell                  R   N=         156
 -2.92102300E+00 -2.67415787E+00 -2.24722309E-05 -2.92102300E+00 -2.67415787E+00
 -2.24722309E-05 -2.92102300E+00 -2.67415787E+00 -2.24722309E-05 -2.92102300E+00
 -2.67415787E+00 -2.24722309E-05  6.43554240E+00 -1.57308917E+00 -8.88444774E-07
  6.43554240E+00 -1.57308917E+00 -8.88444774E-07  6.43554240E+00 -1.57308917E+00
 -8.88444774E-07  6.43554240E+00 -1.57308917E+00 -8.88444774E-07  5.16781337E+00
  2.52507195E+00  6.05635397E-06  5.16781337E+00  2.52507195E+00  6.05635397E-06
  5.16781337E+00  2.52507195E+00  6.05635397E-06  5.16781337E+00  2.52507195E+00
  6.05635397E-06 -4.71717609E+00  1.50675802E+00  1.34680241E-05 -4.71717609E+00
  1.50675802E+00  1.34680241E-05 -4.71717609E+00  1.50675802E+00  1.34680241E-05
 -4.71717609E+00  1.50675802E+00  1.34680241E-05 -2.56430693E+00 -3.73326685E-01
 -2.19652669E-05 -2.56430693E+00 -3.73326685E-01 -2.19652669E-05 -2.56430693E+00
 -3.73326685E-01 -2.19652669E-05 -2.56430693E+00 -3.73326685E-01 -2.19652669E-05
 -7.30567513E+00  2.57662151E-01  1.81465097E-05 -7.30567513E+00  2.57662151E-01
  1.81465097E-05 -7.30567513E+00  2.57662151E-01  1.81465097E-05 -7.30567513E+00
  2.57662151E-01  1.81465097E-05  4.37317401E-02  7.01028833E-01 -4.50439195E-05
  4.37317401E-02  7.01028833E-01 -4.50439195E-05  4.37317401E-02  7.01028833E-01
 -4.50439195E-05  4.37317401E-02  7.01028833E-01 -4.50439195E-05  2.07921622E+00
 -8.17253138E-01  3.12582009E-05  2.07921622E+00 -8.17253138E-01  3.12582009E-05
  2.07921622E+00 -8.17253138E-01  3.12582009E-05  2.07921622E+00 -8.17253138E-01
  3.12582009E-05  4.65347150E+00  2.74515234E-01  1.30880574E-05  4.65347150E+00
  2.74515234E-01  1.30880574E-05  4.65347150E+00  2.74515234E-01  1.30880574E-05
  4.65347150E+00  2.74515234E-01  1.30880574E-05 -4.47564629E+00  2.74382462E+00
 -1.65041626E+00 -4.47564629E+00  2.74382462E+00 -1.65041626E+00 -4.47562173E+00
  2.74378258E+00  1.65047171E+00 -4.47562173E+00  2.74378258E+00  1.65047171E+00
 -7.53773085E+00 -9.39229499E-01 -1.66429606E+00 -7.53773085E+00 -9.39229499E-01
 -1.66429606E+00 -8.79846296E+00  1.68495075E+00  3.64326475E-05 -8.79846296E+00
  1.68495075E+00  3.64326475E-05 -7.53771379E+00 -9.39254350E-01  1.66431675E+00
 -7.53771379E+00 -9.39254350E-01  1.66431675E+00  3.00342275E-01  2.74200326E+00
 -1.10744042E-04  3.00342275E-01  2.74200326E+00 -1.10744042E-04  1.86383847E+00
 -2.85820714E+00  9.90297318E-05  1.86383847E+00 -2.85820714E+00  9.90297318E-05
  8.06676486E+00 -6.96776033E-01 -1.61394466E-05  8.06676486E+00 -6.96776033E-01
 -1.61394466E-05
Constraint Structure                       R   N=          51
 -2.92102300E+00 -2.67415787E+00 -2.24722309E-05  6.43554240E+00 -1.57308917E+00
 -8.88444774E-07  5.16781337E+00  2.52507195E+00  6.05635397E-06 -4.71717609E+00
  1.50675802E+00  1.34680241E-05 -2.56430693E+00 -3.73326685E-01 -2.19652669E-05
 -7.30567513E+00  2.57662151E-01  1.81465097E-05  4.37317401E-02  7.01028833E-01
 -4.50439195E-05  2.07921622E+00 -8.17253138E-01  3.12582009E-05  4.65347150E+00
  2.74515234E-01  1.30880574E-05 -4.47564629E+00  2.74382462E+00 -1.65041626E+00
 -4.47562173E+00  2.74378258E+00  1.65047171E+00 -7.53773085E+00 -9.39229499E-01
 -1.66429606E+00 -8.79846296E+00  1.68495075E+00  3.64326475E-05 -7.53771379E+00
 -9.39254350E-01  1.66431675E+00  3.00342275E-01  2.74200326E+00 -1.10744042E-04
  1.86383847E+00 -2.85820714E+00  9.90297318E-05  8.06676486E+00 -6.96776033E-01
 -1.61394466E-05
Num ILSW                                   I              100
ILSW                                       I   N=         100
           0           1           0           1           2           0
           0           0           0           0           0          -1
           0           0           0           0           0           0
           0           0           0           0           1           0
           1           0           0           0           0           0
           0           0      100000           0          -1           0
           0           0           0           0           0           0
           0           0           0           1           1           0
           0           0           1           0           0           0
           0           0           4          40           0           0
           0           0           0           0           0           0
           0           0           0           0           0           0
           0           0           0           0           0           0
           0           0           0           0           0           0
           0           0           0           0           0           0
           0           0           0           0           0           0
           0           0           0           0
Num RLSW                                   I               40
RLSW                                       R   N=          40
  1.00000000E+00  1.00000000E+00  1.00000000E+00  1.00000000E+00  1.00000000E+00
  0.00000000E+00  0.00000000E+00  1.00000000E+00  0.00000000E+00  0.00000000E+00
  0.00000000E+00  0.00000000E+00  1.00000000E+00  0.00000000E+00  0.00000000E+00
  0.00000000E+00  0.00000000E+00  1.00000000E+00  0.00000000E+00  0.00000000E+00
  0.00000000E+00  0.00000000E+00  1.00000000E+00  0.00000000E+00  0.00000000E+00
  0.00000000E+00  0.00000000E+00  1.00000000E+00  0.00000000E+00  0.00000000E+00
  0.00000000E+00  0.00000000E+00  0.00000000E+00  0.00000000E+00  0.00000000E+00
  0.00000000E+00  0.00000000E+00  0.00000000E+00  1.00000000E+00  1.00000000E+00
MxBond                                     I                4
NBond                                      I   N=          17
           1           2           1           4           3           4
           3           3           3           1           1           1
           1           1           1           1           1
IBond                                      I   N=          68
           5           0           0           0           9          17
           0           0           9           0           0           0
           5           6          10          11           1           4
           7           0           4          12          13          14
           5           8          15           0           7           9
          16           0           2           3           8           0
           4           0           0           0           4           0
           0           0           6           0           0           0
           6           0           0           0           6           0
           0           0           7           0           0           0
           8           0           0           0           2           0
           0           0
RBond                                      R   N=          68
  2.00000000E+00  0.00000000E+00  0.00000000E+00  0.00000000E+00  1.50000000E+00
  1.00000000E+00  0.00000000E+00  0.00000000E+00  2.00000000E+00  0.00000000E+00
  0.00000000E+00  0.00000000E+00  1.00000000E+00  1.00000000E+00  1.00000000E+00
  1.00000000E+00  2.00000000E+00  1.00000000E+00  1.00000000E+00  0.00000000E+00
  1.00000000E+00  1.00000000E+00  1.00000000E+00  1.00000000E+00  1.00000000E+00
  2.00000000E+00  1.00000000E+00  0.00000000E+00  2.00000000E+00  1.00000000E+00
  1.00000000E+00  0.00000000E+00  1.50000000E+00  2.00000000E+00  1.00000000E+00
  0.00000000E+00  1.00000000E+00  0.00000000E+00  0.00000000E+00  0.00000000E+00
  1.00000000E+00  0.00000000E+00  0.00000000E+00  0.00000000E+00  1.00000000E+00
  0.00000000E+00  0.00000000E+00  0.00000000E+00  1.00000000E+00  0.00000000E+00
  0.00000000E+00  0.00000000E+00  1.00000000E+00  0.00000000E+00  0.00000000E+00
  0.00000000E+00  1.00000000E+00  0.00000000E+00  0.00000000E+00  0.00000000E+00
  1.00000000E+00  0.00000000E+00  0.00000000E+00  0.00000000E+00  1.00000000E+00
  0.00000000E+00  0.00000000E+00  0.00000000E+00
Virial Ratio                               R      2.002901336119825E+00
SCF Energy                                 R     -4.564540067236824E+02
MP2 Energy                                 R     -4.577484650176138E+02
Total Energy                               R     -4.577484650176138E+02
Post-SCF wavefunction norm                 R      1.682582994126665E+00
RMS Force                                  R      1.713084669699074E-07
RMS Density                                R      1.441289719533720E-09
External E-field                           R   N=          35
  0.00000000E+00  0.00000000E+00  0.00000000E+00  0.00000000E+00  0.00000000E+00
  0.00000000E+00  0.00000000E+00  0.00000000E+00  0.00000000E+00  0.00000000E+00
  0.00000000E+00  0.00000000E+00  0.00000000E+00  0.00000000E+00  0.00000000E+00
  0.00000000E+00  0.00000000E+00  0.00000000E+00  0.00000000E+00  0.00000000E+00
  0.00000000E+00  0.00000000E+00  0.00000000E+00  0.00000000E+00  0.00000000E+00
  0.00000000E+00  0.00000000E+00  0.00000000E+00  0.00000000E+00  0.00000000E+00
  0.00000000E+00  0.00000000E+00  0.00000000E+00  0.00000000E+00  0.00000000E+00
IOpCl                                      I                0
IROHF                                      I                0
Alpha Orbital Energies                     R   N=         151
 -2.06309585E+01 -2.05685353E+01 -2.05683450E+01 -1.14076584E+01 -1.13505581E+01
 -1.12761567E+01 -1.12745560E+01 -1.12510255E+01 -1.12247883E+01 -1.46768763E+00
 -1.38782237E+00 -1.36374625E+00 -1.10486156E+00 -1.06355989E+00 -9.53863475E-01
 -8.84836310E-01 -7.95452406E-01 -7.42870638E-01 -7.14332065E-01 -7.06751009E-01
 -6.56893504E-01 -6.40626234E-01 -6.36149585E-01 -6.34284249E-01 -6.01059143E-01
 -5.66025651E-01 -5.36899729E-01 -5.36800656E-01 -5.22593861E-01 -4.96664320E-01
 -4.90367773E-01 -4.65212056E-01 -4.30190775E-01 -3.98694899E-01  4.82323551E-02
  1.89141269E-01  2.21480843E-01  2.29487377E-01  2.63098654E-01  2.63251518E-01
  2.97104129E-01  3.10817616E-01  3.13095918E-01  3.15293664E-01  3.53157974E-01
  3.76308312E-01  3.96508045E-01  4.40732505E-01  4.64288639E-01  4.78304428E-01
  4.95069034E-01  5.74345623E-01  5.95706332E-01  7.20908526E-01  7.32275426E-01
  7.34463730E-01  7.54576317E-01  7.72739286E-01  7.78883842E-01  7.98453830E-01
  8.21102364E-01  8.52408644E-01  8.87488521E-01  8.97211887E-01  9.09685881E-01
  9.45110296E-01  9.73282075E-01  9.98889094E-01  1.00861159E+00  1.01167051E+00
  1.06242114E+00  1.08344516E+00  1.09042182E+00  1.11486955E+00  1.11666107E+00
  1.12977943E+00  1.15968842E+00  1.16949281E+00  1.17391962E+00  1.19434363E+00
  1.19810894E+00  1.22395750E+00  1.23557317E+00  1.28010859E+00  1.31751037E+00
  1.32917049E+00  1.33022724E+00  1.36164469E+00  1.39626535E+00  1.47024856E+00
  1.51393836E+00  1.55311965E+00  1.58749320E+00  1.58864518E+00  1.60466511E+00
  1.63181824E+00  1.67167606E+00  1.76308453E+00  1.81655101E+00  1.83563009E+00
  1.86333415E+00  1.98152355E+00  1.98552449E+00  1.99752208E+00  2.04173814E+00
  2.04922140E+00  2.06061600E+00  2.08071645E+00  2.09789364E+00  2.12615662E+00
  2.14210842E+00  2.18945674E+00  2.20901754E+00  2.24896773E+00  2.27194083E+00
  2.31227888E+00  2.33210535E+00  2.34375318E+00  2.39299649E+00  2.40695324E+00
  2.48354175E+00  2.55283488E+00  2.60511681E+00  2.63107202E+00  2.64807798E+00
  2.64883355E+00  2.70725437E+00  2.72859798E+00  2.74686291E+00  2.79278408E+00
  2.88784991E+00  2.93505687E+00  2.96119110E+00  3.00485825E+00  3.04187279E+00
  3.10120650E+00  3.15533472E+00  3.26990495E+00  3.33427185E+00  3.36737011E+00
  3.44466398E+00  3.55318391E+00  4.22609422E+00  4.35443644E+00  4.48026539E+00
  4.57440402E+00  4.63187319E+00  4.72771386E+00  4.77494672E+00  4.86534380E+00
  4.97560497E+00
Alpha MO coefficients                      R   N=       22801
  6.43092424E-06  2.35473103E-05  1.54186979E-06  9.46579893E-07  4.38013361E-10
 -1.63429126E-04 -2.91394932E-05 -4.42867725E-05 -1.93035384E-09  1.77212964E-05
  1.04225161E-05  1.33975225E-05 -4.93657796E-06 -1.38816225E-10 -2.45103067E-10
  9.94641476E-01  2.11824715E-02  1.83212716E-04  1.27409845E-03 -2.04986726E-09
  3.96014288E-03 -2.38353402E-04 -6.33227977E-04  1.98332376E-09 -4.14699544E-03
 -4.07724315E-03 -3.94695605E-03  1.30315115E-06  1.92771031E-09 -2.30951416E-10
 -2.79333879E-04  5.37025580E-06 -2.04544623E-05  3.67063369E-05  6.50968723E-10
 -1.38436708E-04 -9.66124403E-05  5.62235879E-05 -1.42722623E-09  2.03400762E-05
 -5.46238987E-05 -2.08376643E-05  6.25489004E-05 -3.56911445E-10 -2.14278391E-10
  1.59608819E-06  6.33200850E-06  1.13732527E-05  1.29680003E-06 -5.90844410E-11
  6.05267844E-05 -6.04133684E-05 -4.67251441E-05 -2.37750851E-09  2.08507686E-06
  4.27427820E-06  1.46168455E-06  3.60256870E-06 -1.32233279E-12  3.34726937E-10
 -6.74434808E-08 -1.02731852E-05  1.12024686E-06 -8.63727875E-07 -4.98701578E-11
  1.85862854E-04  1.51855690E-04 -1.23459056E-04  4.22429562E-09  1.47206134E-05
  5.52716612E-06 -6.73595235E-07  1.16775087E-06  2.48271177E-10  5.46335691E-10
  3.50374819E-07  3.63366262E-06 -4.46790569E-06  8.21153955E-07  2.56767354E-10
 -5.59277937E-05 -1.56447838E-05 -2.78358201E-05 -5.73664822E-10 -2.18768836E-06
 -1.21935600E-06  7.21058247E-07 -2.06246195E-06  2.68115415E-11  1.26670403E-10
  1.08308374E-05  6.44311469E-05 -8.23354517E-06 -1.24839898E-05  1.26429521E-09
 -9.62341131E-04 -3.22275636E-04  4.09370428E-04 -2.16521223E-08 -1.62821210E-05
  1.59523830E-05  1.95907817E-05  1.08641927E-06 -8.14112967E-10  4.33179467E-10
 -1.24965859E-05 -1.96260011E-05  6.57044935E-06 -1.77524697E-05 -4.02694892E-11
  1.12235896E-03 -3.81457276E-04  5.21374448E-04 -1.66733343E-08 -7.27917564E-05
 -1.22078199E-05 -3.39947908E-05 -2.86710231E-06  2.26070678E-09 -1.17970227E-09
 -1.22628751E-06  3.97830600E-04  2.12775774E-04 -2.32383953E-04 -1.60403161E-09
 -2.57764770E-04  4.25199879E-04  2.23041475E-04  1.14557766E-09 -5.08038404E-05
 -4.50234942E-05 -5.17195289E-05  6.15348925E-05 -4.52283376E-10 -8.68188254E-10
  5.29617876E-06  7.25568767E-06  5.29522249E-06  7.26072224E-06  6.11838174E-07
 -4.88755494E-06  3.47892408E-06  9.97680976E-06  6.12196020E-07 -4.88757714E-06
  3.16650485E-06 -7.91854576E-05  4.73153890E-05 -3.77638939E-06  4.39156268E-04
 -2.51570538E-04  9.94696404E-01  2.08942126E-02  2.47389261E-04  1.46958740E-03
  1.16146720E-09  4.62793556E-03  2.82142895E-07 -2.34918213E-05  7.59070978E-10
 -3.88440484E-03 -3.65569115E-03 -4.18789243E-03  4.08864761E-05 -4.56239348E-09
  1.34804268E-09 -2.02277775E-06 -3.56623795E-06 -2.02381877E-06 -3.82454364E-08
 -4.48615921E-11  4.92139728E-05 -3.05181011E-06  3.11078062E-06  5.54441241E-10
 -3.68149791E-06 -5.01781813E-06  9.44210278E-07  4.19275251E-07  5.30904019E-11
  1.42037118E-10  1.31052126E-04  2.24411877E-05 -4.17640418E-07 -1.11538835E-06
 -2.53970299E-10 -1.27543696E-04  6.89695486E-06  2.50920397E-05  1.14784655E-09
  1.24774632E-05  1.20557155E-05  1.35420711E-05 -5.17045662E-07 -8.60021243E-11
 -1.82770154E-10 -5.16908239E-06 -9.18175965E-06 -1.05207173E-05  2.52603574E-05
  2.06471720E-10 -5.25080908E-05 -1.40026309E-04  1.25278536E-05  2.17758008E-09