
    -----------------------------------------------------------------------
          Psi4: An Open-Source Ab Initio Electronic Structure Package
                               Psi4 1.4a3.dev225 

                         Git: Rev {master} 7105e37 


    D. G. A. Smith, L. A. Burns, A. C. Simmonett, R. M. Parrish,
    M. C. Schieber, R. Galvelis, P. Kraus, H. Kruse, R. Di Remigio,
    A. Alenaizan, A. M. James, S. Lehtola, J. P. Misiewicz, M. Scheurer,
    R. A. Shaw, J. B. Schriber, Y. Xie, Z. L. Glick, D. A. Sirianni,
    J. S. O'Brien, J. M. Waldrop, A. Kumar, E. G. Hohenstein,
    B. P. Pritchard, B. R. Brooks, H. F. Schaefer III, A. Yu. Sokolov,
    K. Patkowski, A. E. DePrince III, U. Bozkaya, R. A. King,
    F. A. Evangelista, J. M. Turney, T. D. Crawford, C. D. Sherrill,
    J. Chem. Phys. 152(18) 184108 (2020). https://doi.org/10.1063/5.0006002

                            Additional Code Authors
    E. T. Seidl, C. L. Janssen, E. F. Valeev, M. L. Leininger,
    J. F. Gonthier, R. M. Richard, H. R. McAlexander, M. Saitow, X. Wang,
    P. Verma, and M. H. Lechner

             Previous Authors, Complete List of Code Contributors,
                       and Citations for Specific Modules
    https://github.com/psi4/psi4/blob/master/codemeta.json
    https://github.com/psi4/psi4/graphs/contributors
    http://psicode.org/psi4manual/master/introduction.html#citing-psifour

    -----------------------------------------------------------------------


    Psi4 started on: Saturday, 20 March 2021 10:40AM

    Process ID: 111619
    Host:       c446-102.stampede2.tacc.utexas.edu
    PSIDATADIR: /home1/07844/xy3866/miniconda3/envs/p4env/share/psi4
    Memory:     500.0 MiB
    Threads:    32
    
  ==> Input File <==

--------------------------------------------------------------------------
#psi4
#
memory 32 gb

molecule  {
0 1
  N       -0.9921260    -0.3000080     0.0000520
  N        0.0017640    -1.1800760     0.0000510
  N       -0.6308990     0.9900470    -0.0000160
  N        0.7028190     0.9633360    -0.0000720
  C        1.0665933    -0.3888743    -0.0000253
  H       -1.9683030    -0.5816970     0.0001040
  H        2.0757780    -0.6878530    -0.0000530
units angstrom
no_reorient  #important for SAPT in psi4, default
symmetry c1  #important for SAPT in psi4, default
}

set PROPERTIES_ORIGIN ["COM"]
properties('MP2/aug-cc-pvtz', properties = ['dipole'])
--------------------------------------------------------------------------

  Memory set to  29.802 GiB by Python driver.
    SCF Algorithm Type (re)set to DF.

*** tstart() called on c446-102.stampede2.tacc.utexas.edu
*** at Sat Mar 20 10:40:06 2021

   => Loading Basis Set <=

    Name: AUG-CC-PVTZ
    Role: ORBITAL
    Keyword: BASIS
    atoms 1-4 entry N          line   285 file /home1/07844/xy3866/miniconda3/envs/p4env/share/psi4/basis/aug-cc-pvtz.gbs 
    atoms 5   entry C          line   239 file /home1/07844/xy3866/miniconda3/envs/p4env/share/psi4/basis/aug-cc-pvtz.gbs 
    atoms 6-7 entry H          line    40 file /home1/07844/xy3866/miniconda3/envs/p4env/share/psi4/basis/aug-cc-pvtz.gbs 


         ---------------------------------------------------------
                                   SCF
               by Justin Turney, Rob Parrish, Andy Simmonett
                          and Daniel G. A. Smith
                              RHF Reference
                       32 Threads,  30517 MiB Core
         ---------------------------------------------------------

  ==> Geometry <==

    Molecular point group: c1
    Full point group: C1

    Geometry (in Angstrom), charge = 0, multiplicity = 1:

       Center              X                  Y                   Z               Mass       
    ------------   -----------------  -----------------  -----------------  -----------------
         N           -0.992788939629    -0.309742186017     0.000052601971    14.003074004430
         N            0.001101060371    -1.189810186017     0.000051601971    14.003074004430
         N           -0.631561939629     0.980312813983    -0.000015398029    14.003074004430
         N            0.702156060371     0.953601813983    -0.000071398029    14.003074004430
         C            1.065930360371    -0.398608486017    -0.000024698029    12.000000000000
         H           -1.968965939629    -0.591431186017     0.000104601971     1.007825032230
         H            2.075115060371    -0.697587186017    -0.000052398029     1.007825032230

  Running in c1 symmetry.

  Rotational constants: A =      0.35049  B =      0.33592  C =      0.17153 [cm^-1]
  Rotational constants: A =  10507.49601  B =  10070.71931  C =   5142.23616 [MHz]
  Nuclear repulsion =  165.589717343173078

  Charge       = 0
  Multiplicity = 1
  Electrons    = 36
  Nalpha       = 18
  Nbeta        = 18

  ==> Algorithm <==

  SCF Algorithm Type is DF.
  DIIS enabled.
  MOM disabled.
  Fractional occupation disabled.
  Guess Type is SAD.
  Energy threshold   = 1.00e-10
  Density threshold  = 1.00e-10
  Integral threshold = 1.00e-12

  ==> Primary Basis <==

  Basis Set: AUG-CC-PVTZ
    Blend: AUG-CC-PVTZ
    Number of shells: 88
    Number of basis functions: 276
    Number of Cartesian functions: 325
    Spherical Harmonics?: true
    Max angular momentum: 3

   => Loading Basis Set <=

    Name: (AUG-CC-PVTZ AUX)
    Role: JKFIT
    Keyword: DF_BASIS_SCF
    atoms 1-4 entry N          line   224 file /home1/07844/xy3866/miniconda3/envs/p4env/share/psi4/basis/aug-cc-pvtz-jkfit.gbs 
    atoms 5   entry C          line   162 file /home1/07844/xy3866/miniconda3/envs/p4env/share/psi4/basis/aug-cc-pvtz-jkfit.gbs 
    atoms 6-7 entry H          line    70 file /home1/07844/xy3866/miniconda3/envs/p4env/share/psi4/basis/aug-cc-pvtz-jkfit.gbs 

  ==> Integral Setup <==

  DFHelper Memory: AOs need 0.382 GiB; user supplied 22.352 GiB. Using in-core AOs.

  ==> MemDFJK: Density-Fitted J/K Matrices <==

    J tasked:                   Yes
    K tasked:                   Yes
    wK tasked:                   No
    OpenMP threads:              32
    Memory [MiB]:             22888
    Algorithm:                 Core
    Schwarz Cutoff:           1E-12
    Mask sparsity (%):       0.3308
    Fitting Condition:        1E-10

   => Auxiliary Basis Set <=

  Basis Set: (AUG-CC-PVTZ AUX)
    Blend: AUG-CC-PVTZ-JKFIT
    Number of shells: 178
    Number of basis functions: 612
    Number of Cartesian functions: 765
    Spherical Harmonics?: true
    Max angular momentum: 4

  Minimum eigenvalue in the overlap matrix is 2.3906918145E-05.
  Reciprocal condition number of the overlap matrix is 1.9906246091E-06.
    Using symmetric orthogonalization.

  ==> Pre-Iterations <==

  SCF Guess: Superposition of Atomic Densities via on-the-fly atomic UHF (no occupation information).

   -------------------------
    Irrep   Nso     Nmo    
   -------------------------
     A        276     276 
   -------------------------
    Total     276     276
   -------------------------

  ==> Iterations <==

                           Total Energy        Delta E     RMS |[F,P]|

   @DF-RHF iter SAD:  -256.29855260869937   -2.56299e+02   0.00000e+00 
   @DF-RHF iter   1:  -256.75495744609157   -4.56405e-01   1.37662e-03 DIIS
   @DF-RHF iter   2:  -256.81784713356512   -6.28897e-02   8.17505e-04 DIIS
   @DF-RHF iter   3:  -256.83746691321085   -1.96198e-02   2.40551e-04 DIIS
   @DF-RHF iter   4:  -256.83994421733212   -2.47730e-03   5.95032e-05 DIIS
   @DF-RHF iter   5:  -256.84014599744444   -2.01780e-04   2.27696e-05 DIIS
   @DF-RHF iter   6:  -256.84018653069501   -4.05333e-05   9.96789e-06 DIIS
   @DF-RHF iter   7:  -256.84020158780243   -1.50571e-05   5.13024e-06 DIIS
   @DF-RHF iter   8:  -256.84020519251573   -3.60471e-06   2.19968e-06 DIIS
   @DF-RHF iter   9:  -256.84020586062815   -6.68112e-07   7.67026e-07 DIIS
   @DF-RHF iter  10:  -256.84020589655898   -3.59308e-08   1.89506e-07 DIIS
   @DF-RHF iter  11:  -256.84020589943128   -2.87230e-09   5.34105e-08 DIIS
   @DF-RHF iter  12:  -256.84020589960187   -1.70587e-10   2.60024e-08 DIIS
   @DF-RHF iter  13:  -256.84020589963939   -3.75167e-11   5.33487e-09 DIIS
   @DF-RHF iter  14:  -256.84020589964234   -2.95586e-12   1.24675e-09 DIIS
   @DF-RHF iter  15:  -256.84020589964234    0.00000e+00   4.04954e-10 DIIS
   @DF-RHF iter  16:  -256.84020589964223    1.13687e-13   1.44436e-10 DIIS
   @DF-RHF iter  17:  -256.84020589964268   -4.54747e-13   4.95452e-11 DIIS
  Energy and wave function converged.


  ==> Post-Iterations <==

    Orbital Energies [Eh]
    ---------------------

    Doubly Occupied:                                                      

       1A    -15.712021     2A    -15.686799     3A    -15.642487  
       4A    -15.625913     5A    -11.314486     6A     -1.494395  
       7A     -1.261347     8A     -1.180208     9A     -0.918390  
      10A     -0.881920    11A     -0.778246    12A     -0.679816  
      13A     -0.663800    14A     -0.574052    15A     -0.511863  
      16A     -0.479430    17A     -0.446601    18A     -0.415885  

    Virtual:                                                              

      19A      0.025379    20A      0.035943    21A      0.073268  
      22A      0.078918    23A      0.092158    24A      0.098497  
      25A      0.102137    26A      0.119565    27A      0.132768  
      28A      0.134767    29A      0.138945    30A      0.155294  
      31A      0.160132    32A      0.165610    33A      0.176589  
      34A      0.201466    35A      0.205082    36A      0.211044  
      37A      0.214905    38A      0.220673    39A      0.247938  
      40A      0.261144    41A      0.285469    42A      0.289279  
      43A      0.296782    44A      0.307428    45A      0.323488  
      46A      0.332634    47A      0.337279    48A      0.355340  
      49A      0.383880    50A      0.398192    51A      0.411252  
      52A      0.418418    53A      0.431330    54A      0.445053  
      55A      0.461962    56A      0.480741    57A      0.506089  
      58A      0.525936    59A      0.544874    60A      0.545328  
      61A      0.556329    62A      0.561622    63A      0.577191  
      64A      0.587696    65A      0.600095    66A      0.613668  
      67A      0.629390    68A      0.636952    69A      0.647413  
      70A      0.657313    71A      0.665733    72A      0.680336  
      73A      0.705534    74A      0.713339    75A      0.716948  
      76A      0.756183    77A      0.772909    78A      0.791667  
      79A      0.791755    80A      0.818013    81A      0.835495  
      82A      0.844471    83A      0.902019    84A      0.902893  
      85A      0.917133    86A      0.921130    87A      0.927824  
      88A      0.939006    89A      0.974161    90A      0.997904  
      91A      1.017098    92A      1.022833    93A      1.035311  
      94A      1.052836    95A      1.055942    96A      1.066540  
      97A      1.098232    98A      1.109011    99A      1.114294  
     100A      1.155160   101A      1.179053   102A      1.181274  
     103A      1.193154   104A      1.220548   105A      1.242259  
     106A      1.252629   107A      1.285360   108A      1.307315  
     109A      1.315550   110A      1.340314   111A      1.343582  
     112A      1.358161   113A      1.378502   114A      1.424122  
     115A      1.439942   116A      1.450975   117A      1.471219  
     118A      1.474682   119A      1.512080   120A      1.527840  
     121A      1.542323   122A      1.598673   123A      1.604297  
     124A      1.615204   125A      1.669763   126A      1.676758  
     127A      1.710084   128A      1.716240   129A      1.725994  
     130A      1.758132   131A      1.803806   132A      1.840744  
     133A      1.866025   134A      1.882785   135A      1.898964  
     136A      1.911300   137A      1.955983   138A      2.007281  
     139A      2.019464   140A      2.025656   141A      2.039647  
     142A      2.077448   143A      2.088289   144A      2.110965  
     145A      2.111129   146A      2.131402   147A      2.163841  
     148A      2.186064   149A      2.224123   150A      2.247044  
     151A      2.259735   152A      2.284176   153A      2.308926  
     154A      2.337756   155A      2.347900   156A      2.372096  
     157A      2.399831   158A      2.420613   159A      2.451258  
     160A      2.489600   161A      2.504375   162A      2.522126  
     163A      2.576060   164A      2.598428   165A      2.635966  
     166A      2.656713   167A      2.680317   168A      2.708926  
     169A      2.769978   170A      2.783929   171A      2.843129  
     172A      2.951865   173A      2.966557   174A      2.999251  
     175A      3.082472   176A      3.104407   177A      3.223155  
     178A      3.296489   179A      3.328077   180A      3.397581  
     181A      3.420059   182A      3.430840   183A      3.544037  
     184A      3.560644   185A      3.570088   186A      3.694048  
     187A      3.755358   188A      3.824493   189A      3.832989  
     190A      3.880014   191A      3.901962   192A      3.940410  
     193A      3.951629   194A      3.968707   195A      3.992926  
     196A      4.111282   197A      4.167160   198A      4.181297  
     199A      4.225699   200A      4.250333   201A      4.294524  
     202A      4.318126   203A      4.353888   204A      4.390747  
     205A      4.468628   206A      4.497385   207A      4.532868  
     208A      4.559412   209A      4.584068   210A      4.640953  
     211A      4.651680   212A      4.710006   213A      4.761829  
     214A      4.778439   215A      4.801759   216A      4.833430  
     217A      4.848701   218A      4.902749   219A      4.911133  
     220A      4.927816   221A      4.931277   222A      4.974379  
     223A      5.054428   224A      5.066363   225A      5.132193  
     226A      5.211168   227A      5.221051   228A      5.233553  
     229A      5.266308   230A      5.306218   231A      5.393396  
     232A      5.409198   233A      5.429114   234A      5.436218  
     235A      5.483844   236A      5.528541   237A      5.529632  
     238A      5.561408   239A      5.622685   240A      5.642053  
     241A      5.671881   242A      5.694479   243A      5.724397  
     244A      5.741291   245A      5.765109   246A      5.780234  
     247A      5.830611   248A      5.835325   249A      5.892126  
     250A      5.955215   251A      5.962346   252A      6.075870  
     253A      6.082046   254A      6.127900   255A      6.145158  
     256A      6.146613   257A      6.184380   258A      6.272217  
     259A      6.293146   260A      6.358035   261A      6.468135  
     262A      6.559857   263A      6.690615   264A      6.718978  
     265A      6.771519   266A      6.973928   267A      7.043276  
     268A      7.334937   269A      7.478974   270A      7.744744  
     271A      7.792410   272A     14.387797   273A     14.979355  
     274A     15.567863   275A     17.052876   276A     17.151494  

    Final Occupation by Irrep:
              A 
    DOCC [    18 ]

  @DF-RHF Final Energy:  -256.84020589964268

   => Energetics <=

    Nuclear Repulsion Energy =            165.5897173431730778
    One-Electron Energy =                -676.3245258316892432
    Two-Electron Energy =                 253.8946025888734823
    Total Energy =                       -256.8402058996426831

Computation Completed

*** tstop() called on c446-102.stampede2.tacc.utexas.edu at Sat Mar 20 10:40:13 2021
Module time:
	user time   =     103.18 seconds =       1.72 minutes
	system time =      10.09 seconds =       0.17 minutes
	total time  =          7 seconds =       0.12 minutes
Total time:
	user time   =     103.18 seconds =       1.72 minutes
	system time =      10.09 seconds =       0.17 minutes
	total time  =          7 seconds =       0.12 minutes
   => Loading Basis Set <=

    Name: (AUG-CC-PVTZ AUX)
    Role: RIFIT
    Keyword: DF_BASIS_MP2
    atoms 1-4 entry N          line   206 file /home1/07844/xy3866/miniconda3/envs/p4env/share/psi4/basis/aug-cc-pvtz-ri.gbs 
    atoms 5   entry C          line   148 file /home1/07844/xy3866/miniconda3/envs/p4env/share/psi4/basis/aug-cc-pvtz-ri.gbs 
    atoms 6-7 entry H          line    30 file /home1/07844/xy3866/miniconda3/envs/p4env/share/psi4/basis/aug-cc-pvtz-ri.gbs 


*** tstart() called on c446-102.stampede2.tacc.utexas.edu
*** at Sat Mar 20 10:40:14 2021


  //>>>>>>>>>>>>>>>>>>>>>>>>>>>>>>>>>>>//
  //               DFMP2               //
  //<<<<<<<<<<<<<<<<<<<<<<<<<<<<<<<<<<<//

	 --------------------------------------------------------
	                          DF-MP2                         
	      2nd-Order Density-Fitted Moller-Plesset Theory     
	              RMP2 Wavefunction,  32 Threads             
	                                                         
	        Rob Parrish, Justin Turney, Andy Simmonett,      
	           Ed Hohenstein, and C. David Sherrill          
	 --------------------------------------------------------

   => Auxiliary Basis Set <=

  Basis Set: (AUG-CC-PVTZ AUX)
    Blend: AUG-CC-PVTZ-RI
    Number of shells: 168
    Number of basis functions: 622
    Number of Cartesian functions: 790
    Spherical Harmonics?: true
    Max angular momentum: 4

	 --------------------------------------------------------
	                 NBF =   276, NAUX =   622
	 --------------------------------------------------------
	   CLASS    FOCC     OCC    AOCC    AVIR     VIR    FVIR
	   PAIRS       0      18      18     258     258       0
	 --------------------------------------------------------

  DFHelper Memory: AOs need 0.383 GiB; user supplied 22.352 GiB. Using in-core AOs.


         ------------------------------------------------------------
                                     CPHF                           
                                  Rob Parrish                       
         ------------------------------------------------------------

  ==> Geometry <==

    Molecular point group: c1
    Full point group: C1

    Geometry (in Angstrom), charge = 0, multiplicity = 1:

       Center              X                  Y                   Z               Mass       
    ------------   -----------------  -----------------  -----------------  -----------------
         N           -0.992788939629    -0.309742186017     0.000052601971    14.003074004430
         N            0.001101060371    -1.189810186017     0.000051601971    14.003074004430
         N           -0.631561939629     0.980312813983    -0.000015398029    14.003074004430
         N            0.702156060371     0.953601813983    -0.000071398029    14.003074004430
         C            1.065930360371    -0.398608486017    -0.000024698029    12.000000000000
         H           -1.968965939629    -0.591431186017     0.000104601971     1.007825032230
         H            2.075115060371    -0.697587186017    -0.000052398029     1.007825032230

  Nuclear repulsion =  165.589717343173078
  Reference energy  = -256.840205899642683

  ==> Basis Set <==

  Basis Set: AUG-CC-PVTZ
    Blend: AUG-CC-PVTZ
    Number of shells: 88
    Number of basis functions: 276
    Number of Cartesian functions: 325
    Spherical Harmonics?: true
    Max angular momentum: 3

  ==> CGRSolver (by Rob Parrish) <==

   Number of roots    =         1
   Preconditioning    =    JACOBI
   Convergence cutoff =     1E-06
   Maximum iterations =       100

  ==> CPHFRHamiltonian (by Rob Parrish) <== 

  ==> MemDFJK: Density-Fitted J/K Matrices <==

    J tasked:                   Yes
    K tasked:                   Yes
    wK tasked:                   No
    OpenMP threads:              32
    Memory [MiB]:             22888
    Algorithm:                 Core
    Schwarz Cutoff:           1E-12
    Mask sparsity (%):       0.1707
    Fitting Condition:        1E-10

   => Auxiliary Basis Set <=

  Basis Set: (AUG-CC-PVTZ AUX)
    Blend: AUG-CC-PVTZ-JKFIT
    Number of shells: 178
    Number of basis functions: 612
    Number of Cartesian functions: 765
    Spherical Harmonics?: true
    Max angular momentum: 4

  ==> CPHF Iterations <==

  => Iterations <=

             Iter  Converged  Remaining    Residual
  CGR           1          0          1   1.072E-01
  CGR           2          0          1   4.410E-02
  CGR           3          0          1   2.555E-02
  CGR           4          0          1   9.619E-03
  CGR           5          0          1   2.704E-03
  CGR           6          0          1   8.460E-04
  CGR           7          0          1   4.987E-04
  CGR           8          0          1   2.063E-04
  CGR           9          0          1   9.262E-05
  CGR          10          0          1   2.579E-05
  CGR          11          0          1   6.635E-06
  CGR          12          0          1   2.798E-06
  CGR          13          1          0   7.294E-07

    CGRSolver converged.

	-----------------------------------------------------------
	 ==================> DF-MP2 Energies <==================== 
	-----------------------------------------------------------
	 Reference Energy          =    -256.8402058996426831 [Eh]
	 Singles Energy            =      -0.0000000000000000 [Eh]
	 Same-Spin Energy          =      -0.2774850443390229 [Eh]
	 Opposite-Spin Energy      =      -0.7936756573314514 [Eh]
	 Correlation Energy        =      -1.0711607016704743 [Eh]
	 Total Energy              =    -257.9113666013131478 [Eh]
	-----------------------------------------------------------
	 ================> DF-SCS-MP2 Energies <================== 
	-----------------------------------------------------------
	 SCS Same-Spin Scale       =       0.3333333333333333 [-]
	 SCS Opposite-Spin Scale   =       1.2000000000000000 [-]
	 SCS Same-Spin Energy      =      -0.0924950147796743 [Eh]
	 SCS Opposite-Spin Energy  =      -0.9524107887977417 [Eh]
	 SCS Correlation Energy    =      -1.0449058035774159 [Eh]
	 SCS Total Energy          =    -257.8851117032201046 [Eh]
	-----------------------------------------------------------



Properties will be evaluated at   0.000000,   0.000000,   0.000000 [a0]

Properties computed using the MP2 density matrix

  Nuclear Dipole Moment: [e a0]
     X:     0.1022      Y:    -1.2097      Z:     0.0000

  Electronic Dipole Moment: [e a0]
     X:    -0.5726      Y:     0.3975      Z:     0.0000

  Dipole Moment: [e a0]
     X:    -0.4704      Y:    -0.8122      Z:     0.0001     Total:     0.9385

  Dipole Moment: [D]
     X:    -1.1956      Y:    -2.0643      Z:     0.0001     Total:     2.3855


*** tstop() called on c446-102.stampede2.tacc.utexas.edu at Sat Mar 20 10:40:49 2021
Module time:
	user time   =     202.85 seconds =       3.38 minutes
	system time =      10.90 seconds =       0.18 minutes
	total time  =         35 seconds =       0.58 minutes
Total time:
	user time   =     308.44 seconds =       5.14 minutes
	system time =      21.24 seconds =       0.35 minutes
	total time  =         43 seconds =       0.72 minutes

    Psi4 stopped on: Saturday, 20 March 2021 10:40AM
    Psi4 wall time for execution: 0:00:43.77

*** Psi4 exiting successfully. Buy a developer a beer!
