69892                                                                   
Freq      RMP2-FC                                                     6-31G(d)            
Number of atoms                            I               29
Info1-9                                    I   N=           9
          41          39        1002           0           0         100
           6           2           1
Charge                                     I                0
Multiplicity                               I                1
Number of electrons                        I              102
Number of alpha electrons                  I               51
Number of beta electrons                   I               51
Number of basis functions                  I              240
Number of independent functions            I              240
Number of point charges in /Mol/           I                0
Number of translation vectors              I                0
Atomic numbers                             I   N=          29
           8           7           6           6           6           6
           6           6           6           6           6           6
           6           6           1           1           1           1
           1           1           1           1           1           1
           1           1           1           1           1
Nuclear charges                            R   N=          29
  8.00000000E+00  7.00000000E+00  6.00000000E+00  6.00000000E+00  6.00000000E+00
  6.00000000E+00  6.00000000E+00  6.00000000E+00  6.00000000E+00  6.00000000E+00
  6.00000000E+00  6.00000000E+00  6.00000000E+00  6.00000000E+00  1.00000000E+00
  1.00000000E+00  1.00000000E+00  1.00000000E+00  1.00000000E+00  1.00000000E+00
  1.00000000E+00  1.00000000E+00  1.00000000E+00  1.00000000E+00  1.00000000E+00
  1.00000000E+00  1.00000000E+00  1.00000000E+00  1.00000000E+00
Current cartesian coordinates              R   N=          87
 -1.76044428E-01  4.45162641E+00 -7.84299420E-01  2.06027865E+00  8.67295505E-01
  2.05013420E-01  6.69405490E+00 -1.96120590E+00  2.99263089E-01  6.41044366E+00
  4.57167548E-01 -1.25480585E+00  4.13104563E+00 -3.23916808E+00  6.79089938E-01
  4.45218173E+00  2.21794259E+00 -8.32791097E-02  2.23718329E+00 -1.38060416E+00
  1.80241675E+00 -1.45400623E-01  2.18157779E+00 -2.22032057E-01 -2.56155893E+00
  7.10448873E-01 -1.22799533E-01 -4.64516978E+00  1.81333693E+00  1.07745530E+00
 -2.84323849E+00 -1.59797021E+00 -1.39041205E+00 -6.97111464E+00  5.75217836E-01
  1.08343609E+00 -5.18316851E+00 -2.81467495E+00 -1.40823638E+00 -7.24512275E+00
 -1.74007023E+00 -1.58148992E-01  8.02516873E+00 -3.26033093E+00 -6.11487287E-01
  7.49434964E+00 -1.48815420E+00  2.15573505E+00  8.22535335E+00  1.44640192E+00
 -1.40408999E+00  5.80497660E+00 -1.35077050E-02 -3.18015409E+00  3.40409882E+00
 -3.91730888E+00 -1.14015740E+00  4.30982175E+00 -4.88354555E+00  1.92814775E+00
  5.10439531E+00  2.88740603E+00  1.77724388E+00  4.09512356E+00  3.87674928E+00
 -1.25334492E+00  3.71609250E-01 -2.22892745E+00  2.00593959E+00  2.87625891E+00
 -8.04578910E-01  3.70036429E+00 -4.41779342E+00  3.64414532E+00  1.98113521E+00
 -1.24152898E+00 -2.40979307E+00 -2.39260975E+00 -8.57989448E+00  1.42571811E+00
  2.03806060E+00 -5.40183996E+00 -4.59516779E+00 -2.41111982E+00 -9.06450711E+00
 -2.69517420E+00 -1.66044903E-01
Force Field                                I                0
Int Atom Types                             I   N=          29
           0           0           0           0           0           0
           0           0           0           0           0           0
           0           0           0           0           0           0
           0           0           0           0           0           0
           0           0           0           0           0
MM charges                                 R   N=          29
  0.00000000E+00  0.00000000E+00  0.00000000E+00  0.00000000E+00  0.00000000E+00
  0.00000000E+00  0.00000000E+00  0.00000000E+00  0.00000000E+00  0.00000000E+00
  0.00000000E+00  0.00000000E+00  0.00000000E+00  0.00000000E+00  0.00000000E+00
  0.00000000E+00  0.00000000E+00  0.00000000E+00  0.00000000E+00  0.00000000E+00
  0.00000000E+00  0.00000000E+00  0.00000000E+00  0.00000000E+00  0.00000000E+00
  0.00000000E+00  0.00000000E+00  0.00000000E+00  0.00000000E+00
Integer atomic weights                     I   N=          29
          16          14          12          12          12          12
          12          12          12          12          12          12
          12          12           1           1           1           1
           1           1           1           1           1           1
           1           1           1           1           1
Real atomic weights                        R   N=          29
  1.59949146E+01  1.40030740E+01  1.20000000E+01  1.20000000E+01  1.20000000E+01
  1.20000000E+01  1.20000000E+01  1.20000000E+01  1.20000000E+01  1.20000000E+01
  1.20000000E+01  1.20000000E+01  1.20000000E+01  1.20000000E+01  1.00782504E+00
  1.00782504E+00  1.00782504E+00  1.00782504E+00  1.00782504E+00  1.00782504E+00
  1.00782504E+00  1.00782504E+00  1.00782504E+00  1.00782504E+00  1.00782504E+00
  1.00782504E+00  1.00782504E+00  1.00782504E+00  1.00782504E+00
Atom fragment info                         I   N=          29
           0           0           0           0           0           0
           0           0           0           0           0           0
           0           0           0           0           0           0
           0           0           0           0           0           0
           0           0           0           0           0
Atom residue num                           I   N=          29
           0           0           0           0           0           0
           0           0           0           0           0           0
           0           0           0           0           0           0
           0           0           0           0           0           0
           0           0           0           0           0
Nuclear spins                              I   N=          29
           0           2           0           0           0           0
           0           0           0           0           0           0
           0           0           1           1           1           1
           1           1           1           1           1           1
           1           1           1           1           1
Nuclear ZEff                               R   N=          29
 -5.60000000E+00 -4.55000000E+00 -3.60000000E+00 -3.60000000E+00 -3.60000000E+00
 -3.60000000E+00 -3.60000000E+00 -3.60000000E+00 -3.60000000E+00 -3.60000000E+00
 -3.60000000E+00 -3.60000000E+00 -3.60000000E+00 -3.60000000E+00 -1.00000000E+00
 -1.00000000E+00 -1.00000000E+00 -1.00000000E+00 -1.00000000E+00 -1.00000000E+00
 -1.00000000E+00 -1.00000000E+00 -1.00000000E+00 -1.00000000E+00 -1.00000000E+00
 -1.00000000E+00 -1.00000000E+00 -1.00000000E+00 -1.00000000E+00
Nuclear QMom                               R   N=          29
  0.00000000E+00  2.04400000E+00  0.00000000E+00  0.00000000E+00  0.00000000E+00
  0.00000000E+00  0.00000000E+00  0.00000000E+00  0.00000000E+00  0.00000000E+00
  0.00000000E+00  0.00000000E+00  0.00000000E+00  0.00000000E+00  0.00000000E+00
  0.00000000E+00  0.00000000E+00  0.00000000E+00  0.00000000E+00  0.00000000E+00
  0.00000000E+00  0.00000000E+00  0.00000000E+00  0.00000000E+00  0.00000000E+00
  0.00000000E+00  0.00000000E+00  0.00000000E+00  0.00000000E+00
Nuclear GFac                               R   N=          29
  0.00000000E+00  4.03761000E-01  0.00000000E+00  0.00000000E+00  0.00000000E+00
  0.00000000E+00  0.00000000E+00  0.00000000E+00  0.00000000E+00  0.00000000E+00
  0.00000000E+00  0.00000000E+00  0.00000000E+00  0.00000000E+00  2.79284600E+00
  2.79284600E+00  2.79284600E+00  2.79284600E+00  2.79284600E+00  2.79284600E+00
  2.79284600E+00  2.79284600E+00  2.79284600E+00  2.79284600E+00  2.79284600E+00
  2.79284600E+00  2.79284600E+00  2.79284600E+00  2.79284600E+00
MicOpt                                     I   N=          29
          -1          -1          -1          -1          -1          -1
          -1          -1          -1          -1          -1          -1
          -1          -1          -1          -1          -1          -1
          -1          -1          -1          -1          -1          -1
          -1          -1          -1          -1          -1
Number of contracted shells                I               86
Number of primitive shells                 I              214
Pure/Cartesian d shells                    I                1
Pure/Cartesian f shells                    I                0
Highest angular momentum                   I                2
Largest degree of contraction              I                6
Shell types                                I   N=          86
           0          -1          -1           2           0          -1
          -1           2           0          -1          -1           2
           0          -1          -1           2           0          -1
          -1           2           0          -1          -1           2
           0          -1          -1           2           0          -1
          -1           2           0          -1          -1           2
           0          -1          -1           2           0          -1
          -1           2           0          -1          -1           2
           0          -1          -1           2           0          -1
          -1           2           0           0           0           0
           0           0           0           0           0           0
           0           0           0           0           0           0
           0           0           0           0           0           0
           0           0           0           0           0           0
           0           0
Number of primitives per shell             I   N=          86
           6           3           1           1           6           3
           1           1           6           3           1           1
           6           3           1           1           6           3
           1           1           6           3           1           1
           6           3           1           1           6           3
           1           1           6           3           1           1
           6           3           1           1           6           3
           1           1           6           3           1           1
           6           3           1           1           6           3
           1           1           3           1           3           1
           3           1           3           1           3           1
           3           1           3           1           3           1
           3           1           3           1           3           1
           3           1           3           1           3           1
           3           1
Shell to atom map                          I   N=          86
           1           1           1           1           2           2
           2           2           3           3           3           3
           4           4           4           4           5           5
           5           5           6           6           6           6
           7           7           7           7           8           8
           8           8           9           9           9           9
          10          10          10          10          11          11
          11          11          12          12          12          12
          13          13          13          13          14          14
          14          14          15          15          16          16
          17          17          18          18          19          19
          20          20          21          21          22          22
          23          23          24          24          25          25
          26          26          27          27          28          28
          29          29
Primitive exponents                        R   N=         214
  5.48467166E+03  8.25234946E+02  1.88046958E+02  5.29645000E+01  1.68975704E+01
  5.79963534E+00  1.55396162E+01  3.59993359E+00  1.01376175E+00  2.70005823E-01
  8.00000000E-01  4.17351146E+03  6.27457911E+02  1.42902093E+02  4.02343293E+01
  1.28202129E+01  4.39043701E+00  1.16263619E+01  2.71627981E+00  7.72218397E-01
  2.12031498E-01  8.00000000E-01  3.04752488E+03  4.57369518E+02  1.03948685E+02
  2.92101553E+01  9.28666296E+00  3.16392696E+00  7.86827235E+00  1.88128854E+00
  5.44249258E-01  1.68714478E-01  8.00000000E-01  3.04752488E+03  4.57369518E+02
  1.03948685E+02  2.92101553E+01  9.28666296E+00  3.16392696E+00  7.86827235E+00
  1.88128854E+00  5.44249258E-01  1.68714478E-01  8.00000000E-01  3.04752488E+03
  4.57369518E+02  1.03948685E+02  2.92101553E+01  9.28666296E+00  3.16392696E+00
  7.86827235E+00  1.88128854E+00  5.44249258E-01  1.68714478E-01  8.00000000E-01
  3.04752488E+03  4.57369518E+02  1.03948685E+02  2.92101553E+01  9.28666296E+00
  3.16392696E+00  7.86827235E+00  1.88128854E+00  5.44249258E-01  1.68714478E-01
  8.00000000E-01  3.04752488E+03  4.57369518E+02  1.03948685E+02  2.92101553E+01
  9.28666296E+00  3.16392696E+00  7.86827235E+00  1.88128854E+00  5.44249258E-01
  1.68714478E-01  8.00000000E-01  3.04752488E+03  4.57369518E+02  1.03948685E+02
  2.92101553E+01  9.28666296E+00  3.16392696E+00  7.86827235E+00  1.88128854E+00
  5.44249258E-01  1.68714478E-01  8.00000000E-01  3.04752488E+03  4.57369518E+02
  1.03948685E+02  2.92101553E+01  9.28666296E+00  3.16392696E+00  7.86827235E+00
  1.88128854E+00  5.44249258E-01  1.68714478E-01  8.00000000E-01  3.04752488E+03
  4.57369518E+02  1.03948685E+02  2.92101553E+01  9.28666296E+00  3.16392696E+00
  7.86827235E+00  1.88128854E+00  5.44249258E-01  1.68714478E-01  8.00000000E-01
  3.04752488E+03  4.57369518E+02  1.03948685E+02  2.92101553E+01  9.28666296E+00
  3.16392696E+00  7.86827235E+00  1.88128854E+00  5.44249258E-01  1.68714478E-01
  8.00000000E-01  3.04752488E+03  4.57369518E+02  1.03948685E+02  2.92101553E+01
  9.28666296E+00  3.16392696E+00  7.86827235E+00  1.88128854E+00  5.44249258E-01
  1.68714478E-01  8.00000000E-01  3.04752488E+03  4.57369518E+02  1.03948685E+02
  2.92101553E+01  9.28666296E+00  3.16392696E+00  7.86827235E+00  1.88128854E+00
  5.44249258E-01  1.68714478E-01  8.00000000E-01  3.04752488E+03  4.57369518E+02
  1.03948685E+02  2.92101553E+01  9.28666296E+00  3.16392696E+00  7.86827235E+00
  1.88128854E+00  5.44249258E-01  1.68714478E-01  8.00000000E-01  1.87311370E+01
  2.82539436E+00  6.40121692E-01  1.61277759E-01  1.87311370E+01  2.82539436E+00
  6.40121692E-01  1.61277759E-01  1.87311370E+01  2.82539436E+00  6.40121692E-01
  1.61277759E-01  1.87311370E+01  2.82539436E+00  6.40121692E-01  1.61277759E-01
  1.87311370E+01  2.82539436E+00  6.40121692E-01  1.61277759E-01  1.87311370E+01
  2.82539436E+00  6.40121692E-01  1.61277759E-01  1.87311370E+01  2.82539436E+00
  6.40121692E-01  1.61277759E-01  1.87311370E+01  2.82539436E+00  6.40121692E-01
  1.61277759E-01  1.87311370E+01  2.82539436E+00  6.40121692E-01  1.61277759E-01
  1.87311370E+01  2.82539436E+00  6.40121692E-01  1.61277759E-01  1.87311370E+01
  2.82539436E+00  6.40121692E-01  1.61277759E-01  1.87311370E+01  2.82539436E+00
  6.40121692E-01  1.61277759E-01  1.87311370E+01  2.82539436E+00  6.40121692E-01
  1.61277759E-01  1.87311370E+01  2.82539436E+00  6.40121692E-01  1.61277759E-01
  1.87311370E+01  2.82539436E+00  6.40121692E-01  1.61277759E-01
Contraction coefficients                   R   N=         214
  1.83107443E-03  1.39501722E-02  6.84450781E-02  2.32714336E-01  4.70192898E-01
  3.58520853E-01 -1.10777550E-01 -1.48026263E-01  1.13076702E+00  1.00000000E+00
  1.00000000E+00  1.83477216E-03  1.39946270E-02  6.85865518E-02  2.32240873E-01
  4.69069948E-01  3.60455199E-01 -1.14961182E-01 -1.69117479E-01  1.14585195E+00
  1.00000000E+00  1.00000000E+00  1.83473713E-03  1.40373228E-02  6.88426223E-02
  2.32184443E-01  4.67941348E-01  3.62311985E-01 -1.19332420E-01 -1.60854152E-01
  1.14345644E+00  1.00000000E+00  1.00000000E+00  1.83473713E-03  1.40373228E-02
  6.88426223E-02  2.32184443E-01  4.67941348E-01  3.62311985E-01 -1.19332420E-01
 -1.60854152E-01  1.14345644E+00  1.00000000E+00  1.00000000E+00  1.83473713E-03
  1.40373228E-02  6.88426223E-02  2.32184443E-01  4.67941348E-01  3.62311985E-01
 -1.19332420E-01 -1.60854152E-01  1.14345644E+00  1.00000000E+00  1.00000000E+00
  1.83473713E-03  1.40373228E-02  6.88426223E-02  2.32184443E-01  4.67941348E-01
  3.62311985E-01 -1.19332420E-01 -1.60854152E-01  1.14345644E+00  1.00000000E+00
  1.00000000E+00  1.83473713E-03  1.40373228E-02  6.88426223E-02  2.32184443E-01
  4.67941348E-01  3.62311985E-01 -1.19332420E-01 -1.60854152E-01  1.14345644E+00
  1.00000000E+00  1.00000000E+00  1.83473713E-03  1.40373228E-02  6.88426223E-02
  2.32184443E-01  4.67941348E-01  3.62311985E-01 -1.19332420E-01 -1.60854152E-01
  1.14345644E+00  1.00000000E+00  1.00000000E+00  1.83473713E-03  1.40373228E-02
  6.88426223E-02  2.32184443E-01  4.67941348E-01  3.62311985E-01 -1.19332420E-01
 -1.60854152E-01  1.14345644E+00  1.00000000E+00  1.00000000E+00  1.83473713E-03
  1.40373228E-02  6.88426223E-02  2.32184443E-01  4.67941348E-01  3.62311985E-01
 -1.19332420E-01 -1.60854152E-01  1.14345644E+00  1.00000000E+00  1.00000000E+00
  1.83473713E-03  1.40373228E-02  6.88426223E-02  2.32184443E-01  4.67941348E-01
  3.62311985E-01 -1.19332420E-01 -1.60854152E-01  1.14345644E+00  1.00000000E+00
  1.00000000E+00  1.83473713E-03  1.40373228E-02  6.88426223E-02  2.32184443E-01
  4.67941348E-01  3.62311985E-01 -1.19332420E-01 -1.60854152E-01  1.14345644E+00
  1.00000000E+00  1.00000000E+00  1.83473713E-03  1.40373228E-02  6.88426223E-02
  2.32184443E-01  4.67941348E-01  3.62311985E-01 -1.19332420E-01 -1.60854152E-01
  1.14345644E+00  1.00000000E+00  1.00000000E+00  1.83473713E-03  1.40373228E-02
  6.88426223E-02  2.32184443E-01  4.67941348E-01  3.62311985E-01 -1.19332420E-01
 -1.60854152E-01  1.14345644E+00  1.00000000E+00  1.00000000E+00  3.34946043E-02
  2.34726953E-01  8.13757326E-01  1.00000000E+00  3.34946043E-02  2.34726953E-01
  8.13757326E-01  1.00000000E+00  3.34946043E-02  2.34726953E-01  8.13757326E-01
  1.00000000E+00  3.34946043E-02  2.34726953E-01  8.13757326E-01  1.00000000E+00
  3.34946043E-02  2.34726953E-01  8.13757326E-01  1.00000000E+00  3.34946043E-02
  2.34726953E-01  8.13757326E-01  1.00000000E+00  3.34946043E-02  2.34726953E-01
  8.13757326E-01  1.00000000E+00  3.34946043E-02  2.34726953E-01  8.13757326E-01
  1.00000000E+00  3.34946043E-02  2.34726953E-01  8.13757326E-01  1.00000000E+00
  3.34946043E-02  2.34726953E-01  8.13757326E-01  1.00000000E+00  3.34946043E-02
  2.34726953E-01  8.13757326E-01  1.00000000E+00  3.34946043E-02  2.34726953E-01
  8.13757326E-01  1.00000000E+00  3.34946043E-02  2.34726953E-01  8.13757326E-01
  1.00000000E+00  3.34946043E-02  2.34726953E-01  8.13757326E-01  1.00000000E+00
  3.34946043E-02  2.34726953E-01  8.13757326E-01  1.00000000E+00
P(S=P) Contraction coefficients            R   N=         214
  0.00000000E+00  0.00000000E+00  0.00000000E+00  0.00000000E+00  0.00000000E+00
  0.00000000E+00  7.08742682E-02  3.39752839E-01  7.27158577E-01  1.00000000E+00
  0.00000000E+00  0.00000000E+00  0.00000000E+00  0.00000000E+00  0.00000000E+00
  0.00000000E+00  0.00000000E+00  6.75797439E-02  3.23907296E-01  7.40895140E-01
  1.00000000E+00  0.00000000E+00  0.00000000E+00  0.00000000E+00  0.00000000E+00
  0.00000000E+00  0.00000000E+00  0.00000000E+00  6.89990666E-02  3.16423961E-01
  7.44308291E-01  1.00000000E+00  0.00000000E+00  0.00000000E+00  0.00000000E+00
  0.00000000E+00  0.00000000E+00  0.00000000E+00  0.00000000E+00  6.89990666E-02
  3.16423961E-01  7.44308291E-01  1.00000000E+00  0.00000000E+00  0.00000000E+00
  0.00000000E+00  0.00000000E+00  0.00000000E+00  0.00000000E+00  0.00000000E+00
  6.89990666E-02  3.16423961E-01  7.44308291E-01  1.00000000E+00  0.00000000E+00
  0.00000000E+00  0.00000000E+00  0.00000000E+00  0.00000000E+00  0.00000000E+00
  0.00000000E+00  6.89990666E-02  3.16423961E-01  7.44308291E-01  1.00000000E+00
  0.00000000E+00  0.00000000E+00  0.00000000E+00  0.00000000E+00  0.00000000E+00
  0.00000000E+00  0.00000000E+00  6.89990666E-02  3.16423961E-01  7.44308291E-01
  1.00000000E+00  0.00000000E+00  0.00000000E+00  0.00000000E+00  0.00000000E+00
  0.00000000E+00  0.00000000E+00  0.00000000E+00  6.89990666E-02  3.16423961E-01
  7.44308291E-01  1.00000000E+00  0.00000000E+00  0.00000000E+00  0.00000000E+00
  0.00000000E+00  0.00000000E+00  0.00000000E+00  0.00000000E+00  6.89990666E-02
  3.16423961E-01  7.44308291E-01  1.00000000E+00  0.00000000E+00  0.00000000E+00
  0.00000000E+00  0.00000000E+00  0.00000000E+00  0.00000000E+00  0.00000000E+00
  6.89990666E-02  3.16423961E-01  7.44308291E-01  1.00000000E+00  0.00000000E+00
  0.00000000E+00  0.00000000E+00  0.00000000E+00  0.00000000E+00  0.00000000E+00
  0.00000000E+00  6.89990666E-02  3.16423961E-01  7.44308291E-01  1.00000000E+00
  0.00000000E+00  0.00000000E+00  0.00000000E+00  0.00000000E+00  0.00000000E+00
  0.00000000E+00  0.00000000E+00  6.89990666E-02  3.16423961E-01  7.44308291E-01
  1.00000000E+00  0.00000000E+00  0.00000000E+00  0.00000000E+00  0.00000000E+00
  0.00000000E+00  0.00000000E+00  0.00000000E+00  6.89990666E-02  3.16423961E-01
  7.44308291E-01  1.00000000E+00  0.00000000E+00  0.00000000E+00  0.00000000E+00
  0.00000000E+00  0.00000000E+00  0.00000000E+00  0.00000000E+00  6.89990666E-02
  3.16423961E-01  7.44308291E-01  1.00000000E+00  0.00000000E+00  0.00000000E+00
  0.00000000E+00  0.00000000E+00  0.00000000E+00  0.00000000E+00  0.00000000E+00
  0.00000000E+00  0.00000000E+00  0.00000000E+00  0.00000000E+00  0.00000000E+00
  0.00000000E+00  0.00000000E+00  0.00000000E+00  0.00000000E+00  0.00000000E+00
  0.00000000E+00  0.00000000E+00  0.00000000E+00  0.00000000E+00  0.00000000E+00
  0.00000000E+00  0.00000000E+00  0.00000000E+00  0.00000000E+00  0.00000000E+00
  0.00000000E+00  0.00000000E+00  0.00000000E+00  0.00000000E+00  0.00000000E+00
  0.00000000E+00  0.00000000E+00  0.00000000E+00  0.00000000E+00  0.00000000E+00
  0.00000000E+00  0.00000000E+00  0.00000000E+00  0.00000000E+00  0.00000000E+00
  0.00000000E+00  0.00000000E+00  0.00000000E+00  0.00000000E+00  0.00000000E+00
  0.00000000E+00  0.00000000E+00  0.00000000E+00  0.00000000E+00  0.00000000E+00
  0.00000000E+00  0.00000000E+00  0.00000000E+00  0.00000000E+00  0.00000000E+00
  0.00000000E+00  0.00000000E+00  0.00000000E+00  0.00000000E+00
Coordinates of each shell                  R   N=         258
 -1.76044428E-01  4.45162641E+00 -7.84299420E-01 -1.76044428E-01  4.45162641E+00
 -7.84299420E-01 -1.76044428E-01  4.45162641E+00 -7.84299420E-01 -1.76044428E-01
  4.45162641E+00 -7.84299420E-01  2.06027865E+00  8.67295505E-01  2.05013420E-01
  2.06027865E+00  8.67295505E-01  2.05013420E-01  2.06027865E+00  8.67295505E-01
  2.05013420E-01  2.06027865E+00  8.67295505E-01  2.05013420E-01  6.69405490E+00
 -1.96120590E+00  2.99263089E-01  6.69405490E+00 -1.96120590E+00  2.99263089E-01
  6.69405490E+00 -1.96120590E+00  2.99263089E-01  6.69405490E+00 -1.96120590E+00
  2.99263089E-01  6.41044366E+00  4.57167548E-01 -1.25480585E+00  6.41044366E+00
  4.57167548E-01 -1.25480585E+00  6.41044366E+00  4.57167548E-01 -1.25480585E+00
  6.41044366E+00  4.57167548E-01 -1.25480585E+00  4.13104563E+00 -3.23916808E+00
  6.79089938E-01  4.13104563E+00 -3.23916808E+00  6.79089938E-01  4.13104563E+00
 -3.23916808E+00  6.79089938E-01  4.13104563E+00 -3.23916808E+00  6.79089938E-01
  4.45218173E+00  2.21794259E+00 -8.32791097E-02  4.45218173E+00  2.21794259E+00
 -8.32791097E-02  4.45218173E+00  2.21794259E+00 -8.32791097E-02  4.45218173E+00
  2.21794259E+00 -8.32791097E-02  2.23718329E+00 -1.38060416E+00  1.80241675E+00
  2.23718329E+00 -1.38060416E+00  1.80241675E+00  2.23718329E+00 -1.38060416E+00
  1.80241675E+00  2.23718329E+00 -1.38060416E+00  1.80241675E+00 -1.45400623E-01
  2.18157779E+00 -2.22032057E-01 -1.45400623E-01  2.18157779E+00 -2.22032057E-01
 -1.45400623E-01  2.18157779E+00 -2.22032057E-01 -1.45400623E-01  2.18157779E+00
 -2.22032057E-01 -2.56155893E+00  7.10448873E-01 -1.22799533E-01 -2.56155893E+00
  7.10448873E-01 -1.22799533E-01 -2.56155893E+00  7.10448873E-01 -1.22799533E-01
 -2.56155893E+00  7.10448873E-01 -1.22799533E-01 -4.64516978E+00  1.81333693E+00
  1.07745530E+00 -4.64516978E+00  1.81333693E+00  1.07745530E+00 -4.64516978E+00
  1.81333693E+00  1.07745530E+00 -4.64516978E+00  1.81333693E+00  1.07745530E+00
 -2.84323849E+00 -1.59797021E+00 -1.39041205E+00 -2.84323849E+00 -1.59797021E+00
 -1.39041205E+00 -2.84323849E+00 -1.59797021E+00 -1.39041205E+00 -2.84323849E+00
 -1.59797021E+00 -1.39041205E+00 -6.97111464E+00  5.75217836E-01  1.08343609E+00
 -6.97111464E+00  5.75217836E-01  1.08343609E+00 -6.97111464E+00  5.75217836E-01
  1.08343609E+00 -6.97111464E+00  5.75217836E-01  1.08343609E+00 -5.18316851E+00
 -2.81467495E+00 -1.40823638E+00 -5.18316851E+00 -2.81467495E+00 -1.40823638E+00
 -5.18316851E+00 -2.81467495E+00 -1.40823638E+00 -5.18316851E+00 -2.81467495E+00
 -1.40823638E+00 -7.24512275E+00 -1.74007023E+00 -1.58148992E-01 -7.24512275E+00
 -1.74007023E+00 -1.58148992E-01 -7.24512275E+00 -1.74007023E+00 -1.58148992E-01
 -7.24512275E+00 -1.74007023E+00 -1.58148992E-01  8.02516873E+00 -3.26033093E+00
 -6.11487287E-01  8.02516873E+00 -3.26033093E+00 -6.11487287E-01  7.49434964E+00
 -1.48815420E+00  2.15573505E+00  7.49434964E+00 -1.48815420E+00  2.15573505E+00
  8.22535335E+00  1.44640192E+00 -1.40408999E+00  8.22535335E+00  1.44640192E+00
 -1.40408999E+00  5.80497660E+00 -1.35077050E-02 -3.18015409E+00  5.80497660E+00
 -1.35077050E-02 -3.18015409E+00  3.40409882E+00 -3.91730888E+00 -1.14015740E+00
  3.40409882E+00 -3.91730888E+00 -1.14015740E+00  4.30982175E+00 -4.88354555E+00
  1.92814775E+00  4.30982175E+00 -4.88354555E+00  1.92814775E+00  5.10439531E+00
  2.88740603E+00  1.77724388E+00  5.10439531E+00  2.88740603E+00  1.77724388E+00
  4.09512356E+00  3.87674928E+00 -1.25334492E+00  4.09512356E+00  3.87674928E+00
 -1.25334492E+00  3.71609250E-01 -2.22892745E+00  2.00593959E+00  3.71609250E-01
 -2.22892745E+00  2.00593959E+00  2.87625891E+00 -8.04578910E-01  3.70036429E+00
  2.87625891E+00 -8.04578910E-01  3.70036429E+00 -4.41779342E+00  3.64414532E+00
  1.98113521E+00 -4.41779342E+00  3.64414532E+00  1.98113521E+00 -1.24152898E+00
 -2.40979307E+00 -2.39260975E+00 -1.24152898E+00 -2.40979307E+00 -2.39260975E+00
 -8.57989448E+00  1.42571811E+00  2.03806060E+00 -8.57989448E+00  1.42571811E+00
  2.03806060E+00 -5.40183996E+00 -4.59516779E+00 -2.41111982E+00 -5.40183996E+00
 -4.59516779E+00 -2.41111982E+00 -9.06450711E+00 -2.69517420E+00 -1.66044903E-01
 -9.06450711E+00 -2.69517420E+00 -1.66044903E-01
Constraint Structure                       R   N=          87
 -1.76044428E-01  4.45162641E+00 -7.84299420E-01  2.06027865E+00  8.67295505E-01
  2.05013420E-01  6.69405490E+00 -1.96120590E+00  2.99263089E-01  6.41044366E+00
  4.57167548E-01 -1.25480585E+00  4.13104563E+00 -3.23916808E+00  6.79089938E-01
  4.45218173E+00  2.21794259E+00 -8.32791097E-02  2.23718329E+00 -1.38060416E+00
  1.80241675E+00 -1.45400623E-01  2.18157779E+00 -2.22032057E-01 -2.56155893E+00
  7.10448873E-01 -1.22799533E-01 -4.64516978E+00  1.81333693E+00  1.07745530E+00
 -2.84323849E+00 -1.59797021E+00 -1.39041205E+00 -6.97111464E+00  5.75217836E-01
  1.08343609E+00 -5.18316851E+00 -2.81467495E+00 -1.40823638E+00 -7.24512275E+00
 -1.74007023E+00 -1.58148992E-01  8.02516873E+00 -3.26033093E+00 -6.11487287E-01
  7.49434964E+00 -1.48815420E+00  2.15573505E+00  8.22535335E+00  1.44640192E+00
 -1.40408999E+00  5.80497660E+00 -1.35077050E-02 -3.18015409E+00  3.40409882E+00
 -3.91730888E+00 -1.14015740E+00  4.30982175E+00 -4.88354555E+00  1.92814775E+00
  5.10439531E+00  2.88740603E+00  1.77724388E+00  4.09512356E+00  3.87674928E+00
 -1.25334492E+00  3.71609250E-01 -2.22892745E+00  2.00593959E+00  2.87625891E+00
 -8.04578910E-01  3.70036429E+00 -4.41779342E+00  3.64414532E+00  1.98113521E+00
 -1.24152898E+00 -2.40979307E+00 -2.39260975E+00 -8.57989448E+00  1.42571811E+00
  2.03806060E+00 -5.40183996E+00 -4.59516779E+00 -2.41111982E+00 -9.06450711E+00
 -2.69517420E+00 -1.66044903E-01
Num ILSW                                   I              100
ILSW                                       I   N=         100
           0           1           0           0           2           0
           0           0           0           0           0          -1
           0           0           0           0           0           0
           0           0           0           0           1           0
           1           0           0           0           0           0
           0           0      100000           0          -1           0
           0           0           0           0           0           0
           0           0           0           1           1           0
           0           0           1           0           0           0
           0           0           4          40           0           0
           0           0           0           0           0           0
           0           0           0           0           0           0
           0           0           0           0           0           0
           0           0           0           0           0           0
           0           0           0           0           0           0
           0           0           0           0           0           0
           0           0           0           0
Num RLSW                                   I               40