12204926                                                                
Freq      RMP2-FC                                                     6-31G(d)            
Number of atoms                            I               23
Info1-9                                    I   N=           9
          35          33        1002           0           0         100
           6           2           1
Charge                                     I                0
Multiplicity                               I                1
Number of electrons                        I               84
Number of alpha electrons                  I               42
Number of beta electrons                   I               42
Number of basis functions                  I              202
Number of independent functions            I              202
Number of point charges in /Mol/           I                0
Number of translation vectors              I                0
Atomic numbers                             I   N=          23
           7           6           6           6           6           6
           6           6           6           6           6           6
           1           1           1           1           1           1
           1           1           1           1           1
Nuclear charges                            R   N=          23
  7.00000000E+00  6.00000000E+00  6.00000000E+00  6.00000000E+00  6.00000000E+00
  6.00000000E+00  6.00000000E+00  6.00000000E+00  6.00000000E+00  6.00000000E+00
  6.00000000E+00  6.00000000E+00  1.00000000E+00  1.00000000E+00  1.00000000E+00
  1.00000000E+00  1.00000000E+00  1.00000000E+00  1.00000000E+00  1.00000000E+00
  1.00000000E+00  1.00000000E+00  1.00000000E+00
Current cartesian coordinates              R   N=          69
 -3.31289496E+00  1.22597529E+00  3.75278981E-01 -1.62221663E+00 -6.79117140E-01
 -2.18650186E-01  1.12606785E+00 -3.67421643E-01 -1.29698854E-01 -3.04152722E+00
 -2.80253083E+00 -8.58682476E-01 -5.73803606E+00  3.39824816E-01  1.11661768E-01
 -5.62196078E+00 -2.15858498E+00 -6.58173061E-01 -2.68575905E+00  3.74898598E+00
  1.26459127E+00  2.34693596E+00  1.67146829E+00 -1.31705271E+00  2.60538559E+00
 -2.19662991E+00  1.10279010E+00  4.97294775E+00  1.89227529E+00 -1.23706814E+00
  5.23254468E+00 -1.99301965E+00  1.14422492E+00  6.42491465E+00  6.06759678E-02
 -1.00612238E-02 -2.25459646E+00 -4.59295409E+00 -1.46259999E+00 -7.33652969E+00
  1.54949685E+00  5.17842818E-01 -7.22878713E+00 -3.36693803E+00 -1.03487760E+00
 -4.19758005E+00  4.39968002E+00  2.50819098E+00 -9.20334630E-01  3.68364658E+00
  2.32539954E+00 -2.48294777E+00  5.08029454E+00 -3.03824025E-01  1.23515171E+00
  3.05233321E+00 -2.35818673E+00  1.66533786E+00 -3.76584866E+00  2.04084257E+00
  5.89100655E+00  3.47937277E+00 -2.16655121E+00  6.35149405E+00 -3.42496403E+00
  2.10470115E+00  8.47226981E+00  2.28496678E-01  3.88212426E-02
Force Field                                I                0
Int Atom Types                             I   N=          23
           0           0           0           0           0           0
           0           0           0           0           0           0
           0           0           0           0           0           0
           0           0           0           0           0
MM charges                                 R   N=          23
  0.00000000E+00  0.00000000E+00  0.00000000E+00  0.00000000E+00  0.00000000E+00
  0.00000000E+00  0.00000000E+00  0.00000000E+00  0.00000000E+00  0.00000000E+00
  0.00000000E+00  0.00000000E+00  0.00000000E+00  0.00000000E+00  0.00000000E+00
  0.00000000E+00  0.00000000E+00  0.00000000E+00  0.00000000E+00  0.00000000E+00
  0.00000000E+00  0.00000000E+00  0.00000000E+00
Integer atomic weights                     I   N=          23
          14          12          12          12          12          12
          12          12          12          12          12          12
           1           1           1           1           1           1
           1           1           1           1           1
Real atomic weights                        R   N=          23
  1.40030740E+01  1.20000000E+01  1.20000000E+01  1.20000000E+01  1.20000000E+01
  1.20000000E+01  1.20000000E+01  1.20000000E+01  1.20000000E+01  1.20000000E+01
  1.20000000E+01  1.20000000E+01  1.00782504E+00  1.00782504E+00  1.00782504E+00
  1.00782504E+00  1.00782504E+00  1.00782504E+00  1.00782504E+00  1.00782504E+00
  1.00782504E+00  1.00782504E+00  1.00782504E+00
Atom fragment info                         I   N=          23
           0           0           0           0           0           0
           0           0           0           0           0           0
           0           0           0           0           0           0
           0           0           0           0           0
Atom residue num                           I   N=          23
           0           0           0           0           0           0
           0           0           0           0           0           0
           0           0           0           0           0           0
           0           0           0           0           0
Nuclear spins                              I   N=          23
           2           0           0           0           0           0
           0           0           0           0           0           0
           1           1           1           1           1           1
           1           1           1           1           1
Nuclear ZEff                               R   N=          23
 -4.55000000E+00 -3.60000000E+00 -3.60000000E+00 -3.60000000E+00 -3.60000000E+00
 -3.60000000E+00 -3.60000000E+00 -3.60000000E+00 -3.60000000E+00 -3.60000000E+00
 -3.60000000E+00 -3.60000000E+00 -1.00000000E+00 -1.00000000E+00 -1.00000000E+00
 -1.00000000E+00 -1.00000000E+00 -1.00000000E+00 -1.00000000E+00 -1.00000000E+00
 -1.00000000E+00 -1.00000000E+00 -1.00000000E+00
Nuclear QMom                               R   N=          23
  2.04400000E+00  0.00000000E+00  0.00000000E+00  0.00000000E+00  0.00000000E+00
  0.00000000E+00  0.00000000E+00  0.00000000E+00  0.00000000E+00  0.00000000E+00
  0.00000000E+00  0.00000000E+00  0.00000000E+00  0.00000000E+00  0.00000000E+00
  0.00000000E+00  0.00000000E+00  0.00000000E+00  0.00000000E+00  0.00000000E+00
  0.00000000E+00  0.00000000E+00  0.00000000E+00
Nuclear GFac                               R   N=          23
  4.03761000E-01  0.00000000E+00  0.00000000E+00  0.00000000E+00  0.00000000E+00
  0.00000000E+00  0.00000000E+00  0.00000000E+00  0.00000000E+00  0.00000000E+00
  0.00000000E+00  0.00000000E+00  2.79284600E+00  2.79284600E+00  2.79284600E+00
  2.79284600E+00  2.79284600E+00  2.79284600E+00  2.79284600E+00  2.79284600E+00
  2.79284600E+00  2.79284600E+00  2.79284600E+00
MicOpt                                     I   N=          23
          -1          -1          -1          -1          -1          -1
          -1          -1          -1          -1          -1          -1
          -1          -1          -1          -1          -1          -1
          -1          -1          -1          -1          -1
Number of contracted shells                I               70
Number of primitive shells                 I              176
Pure/Cartesian d shells                    I                1
Pure/Cartesian f shells                    I                0
Highest angular momentum                   I                2
Largest degree of contraction              I                6
Shell types                                I   N=          70
           0          -1          -1           2           0          -1
          -1           2           0          -1          -1           2
           0          -1          -1           2           0          -1
          -1           2           0          -1          -1           2
           0          -1          -1           2           0          -1
          -1           2           0          -1          -1           2
           0          -1          -1           2           0          -1
          -1           2           0          -1          -1           2
           0           0           0           0           0           0
           0           0           0           0           0           0
           0           0           0           0           0           0
           0           0           0           0
Number of primitives per shell             I   N=          70
           6           3           1           1           6           3
           1           1           6           3           1           1
           6           3           1           1           6           3
           1           1           6           3           1           1
           6           3           1           1           6           3
           1           1           6           3           1           1
           6           3           1           1           6           3
           1           1           6           3           1           1
           3           1           3           1           3           1
           3           1           3           1           3           1
           3           1           3           1           3           1
           3           1           3           1
Shell to atom map                          I   N=          70
           1           1           1           1           2           2
           2           2           3           3           3           3
           4           4           4           4           5           5
           5           5           6           6           6           6
           7           7           7           7           8           8
           8           8           9           9           9           9
          10          10          10          10          11          11
          11          11          12          12          12          12
          13          13          14          14          15          15
          16          16          17          17          18          18
          19          19          20          20          21          21
          22          22          23          23
Primitive exponents                        R   N=         176
  4.17351146E+03  6.27457911E+02  1.42902093E+02  4.02343293E+01  1.28202129E+01
  4.39043701E+00  1.16263619E+01  2.71627981E+00  7.72218397E-01  2.12031498E-01
  8.00000000E-01  3.04752488E+03  4.57369518E+02  1.03948685E+02  2.92101553E+01
  9.28666296E+00  3.16392696E+00  7.86827235E+00  1.88128854E+00  5.44249258E-01
  1.68714478E-01  8.00000000E-01  3.04752488E+03  4.57369518E+02  1.03948685E+02
  2.92101553E+01  9.28666296E+00  3.16392696E+00  7.86827235E+00  1.88128854E+00
  5.44249258E-01  1.68714478E-01  8.00000000E-01  3.04752488E+03  4.57369518E+02
  1.03948685E+02  2.92101553E+01  9.28666296E+00  3.16392696E+00  7.86827235E+00
  1.88128854E+00  5.44249258E-01  1.68714478E-01  8.00000000E-01  3.04752488E+03
  4.57369518E+02  1.03948685E+02  2.92101553E+01  9.28666296E+00  3.16392696E+00
  7.86827235E+00  1.88128854E+00  5.44249258E-01  1.68714478E-01  8.00000000E-01
  3.04752488E+03  4.57369518E+02  1.03948685E+02  2.92101553E+01  9.28666296E+00
  3.16392696E+00  7.86827235E+00  1.88128854E+00  5.44249258E-01  1.68714478E-01
  8.00000000E-01  3.04752488E+03  4.57369518E+02  1.03948685E+02  2.92101553E+01
  9.28666296E+00  3.16392696E+00  7.86827235E+00  1.88128854E+00  5.44249258E-01
  1.68714478E-01  8.00000000E-01  3.04752488E+03  4.57369518E+02  1.03948685E+02
  2.92101553E+01  9.28666296E+00  3.16392696E+00  7.86827235E+00  1.88128854E+00
  5.44249258E-01  1.68714478E-01  8.00000000E-01  3.04752488E+03  4.57369518E+02
  1.03948685E+02  2.92101553E+01  9.28666296E+00  3.16392696E+00  7.86827235E+00
  1.88128854E+00  5.44249258E-01  1.68714478E-01  8.00000000E-01  3.04752488E+03
  4.57369518E+02  1.03948685E+02  2.92101553E+01  9.28666296E+00  3.16392696E+00
  7.86827235E+00  1.88128854E+00  5.44249258E-01  1.68714478E-01  8.00000000E-01
  3.04752488E+03  4.57369518E+02  1.03948685E+02  2.92101553E+01  9.28666296E+00
  3.16392696E+00  7.86827235E+00  1.88128854E+00  5.44249258E-01  1.68714478E-01
  8.00000000E-01  3.04752488E+03  4.57369518E+02  1.03948685E+02  2.92101553E+01
  9.28666296E+00  3.16392696E+00  7.86827235E+00  1.88128854E+00  5.44249258E-01
  1.68714478E-01  8.00000000E-01  1.87311370E+01  2.82539436E+00  6.40121692E-01
  1.61277759E-01  1.87311370E+01  2.82539436E+00  6.40121692E-01  1.61277759E-01
  1.87311370E+01  2.82539436E+00  6.40121692E-01  1.61277759E-01  1.87311370E+01
  2.82539436E+00  6.40121692E-01  1.61277759E-01  1.87311370E+01  2.82539436E+00
  6.40121692E-01  1.61277759E-01  1.87311370E+01  2.82539436E+00  6.40121692E-01
  1.61277759E-01  1.87311370E+01  2.82539436E+00  6.40121692E-01  1.61277759E-01
  1.87311370E+01  2.82539436E+00  6.40121692E-01  1.61277759E-01  1.87311370E+01
  2.82539436E+00  6.40121692E-01  1.61277759E-01  1.87311370E+01  2.82539436E+00
  6.40121692E-01  1.61277759E-01  1.87311370E+01  2.82539436E+00  6.40121692E-01
  1.61277759E-01
Contraction coefficients                   R   N=         176
  1.83477216E-03  1.39946270E-02  6.85865518E-02  2.32240873E-01  4.69069948E-01
  3.60455199E-01 -1.14961182E-01 -1.69117479E-01  1.14585195E+00  1.00000000E+00
  1.00000000E+00  1.83473713E-03  1.40373228E-02  6.88426223E-02  2.32184443E-01
  4.67941348E-01  3.62311985E-01 -1.19332420E-01 -1.60854152E-01  1.14345644E+00
  1.00000000E+00  1.00000000E+00  1.83473713E-03  1.40373228E-02  6.88426223E-02
  2.32184443E-01  4.67941348E-01  3.62311985E-01 -1.19332420E-01 -1.60854152E-01
  1.14345644E+00  1.00000000E+00  1.00000000E+00  1.83473713E-03  1.40373228E-02
  6.88426223E-02  2.32184443E-01  4.67941348E-01  3.62311985E-01 -1.19332420E-01
 -1.60854152E-01  1.14345644E+00  1.00000000E+00  1.00000000E+00  1.83473713E-03
  1.40373228E-02  6.88426223E-02  2.32184443E-01  4.67941348E-01  3.62311985E-01
 -1.19332420E-01 -1.60854152E-01  1.14345644E+00  1.00000000E+00  1.00000000E+00
  1.83473713E-03  1.40373228E-02  6.88426223E-02  2.32184443E-01  4.67941348E-01
  3.62311985E-01 -1.19332420E-01 -1.60854152E-01  1.14345644E+00  1.00000000E+00
  1.00000000E+00  1.83473713E-03  1.40373228E-02  6.88426223E-02  2.32184443E-01
  4.67941348E-01  3.62311985E-01 -1.19332420E-01 -1.60854152E-01  1.14345644E+00
  1.00000000E+00  1.00000000E+00  1.83473713E-03  1.40373228E-02  6.88426223E-02
  2.32184443E-01  4.67941348E-01  3.62311985E-01 -1.19332420E-01 -1.60854152E-01
  1.14345644E+00  1.00000000E+00  1.00000000E+00  1.83473713E-03  1.40373228E-02
  6.88426223E-02  2.32184443E-01  4.67941348E-01  3.62311985E-01 -1.19332420E-01
 -1.60854152E-01  1.14345644E+00  1.00000000E+00  1.00000000E+00  1.83473713E-03
  1.40373228E-02  6.88426223E-02  2.32184443E-01  4.67941348E-01  3.62311985E-01
 -1.19332420E-01 -1.60854152E-01  1.14345644E+00  1.00000000E+00  1.00000000E+00
  1.83473713E-03  1.40373228E-02  6.88426223E-02  2.32184443E-01  4.67941348E-01
  3.62311985E-01 -1.19332420E-01 -1.60854152E-01  1.14345644E+00  1.00000000E+00
  1.00000000E+00  1.83473713E-03  1.40373228E-02  6.88426223E-02  2.32184443E-01
  4.67941348E-01  3.62311985E-01 -1.19332420E-01 -1.60854152E-01  1.14345644E+00
  1.00000000E+00  1.00000000E+00  3.34946043E-02  2.34726953E-01  8.13757326E-01
  1.00000000E+00  3.34946043E-02  2.34726953E-01  8.13757326E-01  1.00000000E+00
  3.34946043E-02  2.34726953E-01  8.13757326E-01  1.00000000E+00  3.34946043E-02
  2.34726953E-01  8.13757326E-01  1.00000000E+00  3.34946043E-02  2.34726953E-01
  8.13757326E-01  1.00000000E+00  3.34946043E-02  2.34726953E-01  8.13757326E-01
  1.00000000E+00  3.34946043E-02  2.34726953E-01  8.13757326E-01  1.00000000E+00
  3.34946043E-02  2.34726953E-01  8.13757326E-01  1.00000000E+00  3.34946043E-02
  2.34726953E-01  8.13757326E-01  1.00000000E+00  3.34946043E-02  2.34726953E-01
  8.13757326E-01  1.00000000E+00  3.34946043E-02  2.34726953E-01  8.13757326E-01
  1.00000000E+00
P(S=P) Contraction coefficients            R   N=         176
  0.00000000E+00  0.00000000E+00  0.00000000E+00  0.00000000E+00  0.00000000E+00
  0.00000000E+00  6.75797439E-02  3.23907296E-01  7.40895140E-01  1.00000000E+00
  0.00000000E+00  0.00000000E+00  0.00000000E+00  0.00000000E+00  0.00000000E+00
  0.00000000E+00  0.00000000E+00  6.89990666E-02  3.16423961E-01  7.44308291E-01
  1.00000000E+00  0.00000000E+00  0.00000000E+00  0.00000000E+00  0.00000000E+00
  0.00000000E+00  0.00000000E+00  0.00000000E+00  6.89990666E-02  3.16423961E-01
  7.44308291E-01  1.00000000E+00  0.00000000E+00  0.00000000E+00  0.00000000E+00
  0.00000000E+00  0.00000000E+00  0.00000000E+00  0.00000000E+00  6.89990666E-02
  3.16423961E-01  7.44308291E-01  1.00000000E+00  0.00000000E+00  0.00000000E+00
  0.00000000E+00  0.00000000E+00  0.00000000E+00  0.00000000E+00  0.00000000E+00
  6.89990666E-02  3.16423961E-01  7.44308291E-01  1.00000000E+00  0.00000000E+00
  0.00000000E+00  0.00000000E+00  0.00000000E+00  0.00000000E+00  0.00000000E+00
  0.00000000E+00  6.89990666E-02  3.16423961E-01  7.44308291E-01  1.00000000E+00
  0.00000000E+00  0.00000000E+00  0.00000000E+00  0.00000000E+00  0.00000000E+00
  0.00000000E+00  0.00000000E+00  6.89990666E-02  3.16423961E-01  7.44308291E-01
  1.00000000E+00  0.00000000E+00  0.00000000E+00  0.00000000E+00  0.00000000E+00
  0.00000000E+00  0.00000000E+00  0.00000000E+00  6.89990666E-02  3.16423961E-01
  7.44308291E-01  1.00000000E+00  0.00000000E+00  0.00000000E+00  0.00000000E+00
  0.00000000E+00  0.00000000E+00  0.00000000E+00  0.00000000E+00  6.89990666E-02
  3.16423961E-01  7.44308291E-01  1.00000000E+00  0.00000000E+00  0.00000000E+00
  0.00000000E+00  0.00000000E+00  0.00000000E+00  0.00000000E+00  0.00000000E+00
  6.89990666E-02  3.16423961E-01  7.44308291E-01  1.00000000E+00  0.00000000E+00
  0.00000000E+00  0.00000000E+00  0.00000000E+00  0.00000000E+00  0.00000000E+00
  0.00000000E+00  6.89990666E-02  3.16423961E-01  7.44308291E-01  1.00000000E+00
  0.00000000E+00  0.00000000E+00  0.00000000E+00  0.00000000E+00  0.00000000E+00
  0.00000000E+00  0.00000000E+00  6.89990666E-02  3.16423961E-01  7.44308291E-01
  1.00000000E+00  0.00000000E+00  0.00000000E+00  0.00000000E+00  0.00000000E+00
  0.00000000E+00  0.00000000E+00  0.00000000E+00  0.00000000E+00  0.00000000E+00
  0.00000000E+00  0.00000000E+00  0.00000000E+00  0.00000000E+00  0.00000000E+00
  0.00000000E+00  0.00000000E+00  0.00000000E+00  0.00000000E+00  0.00000000E+00
  0.00000000E+00  0.00000000E+00  0.00000000E+00  0.00000000E+00  0.00000000E+00
  0.00000000E+00  0.00000000E+00  0.00000000E+00  0.00000000E+00  0.00000000E+00
  0.00000000E+00  0.00000000E+00  0.00000000E+00  0.00000000E+00  0.00000000E+00
  0.00000000E+00  0.00000000E+00  0.00000000E+00  0.00000000E+00  0.00000000E+00
  0.00000000E+00  0.00000000E+00  0.00000000E+00  0.00000000E+00  0.00000000E+00
  0.00000000E+00
Coordinates of each shell                  R   N=         210
 -3.31289496E+00  1.22597529E+00  3.75278981E-01 -3.31289496E+00  1.22597529E+00
  3.75278981E-01 -3.31289496E+00  1.22597529E+00  3.75278981E-01 -3.31289496E+00
  1.22597529E+00  3.75278981E-01 -1.62221663E+00 -6.79117140E-01 -2.18650186E-01
 -1.62221663E+00 -6.79117140E-01 -2.18650186E-01 -1.62221663E+00 -6.79117140E-01
 -2.18650186E-01 -1.62221663E+00 -6.79117140E-01 -2.18650186E-01  1.12606785E+00
 -3.67421643E-01 -1.29698854E-01  1.12606785E+00 -3.67421643E-01 -1.29698854E-01
  1.12606785E+00 -3.67421643E-01 -1.29698854E-01  1.12606785E+00 -3.67421643E-01
 -1.29698854E-01 -3.04152722E+00 -2.80253083E+00 -8.58682476E-01 -3.04152722E+00
 -2.80253083E+00 -8.58682476E-01 -3.04152722E+00 -2.80253083E+00 -8.58682476E-01
 -3.04152722E+00 -2.80253083E+00 -8.58682476E-01 -5.73803606E+00  3.39824816E-01
  1.11661768E-01 -5.73803606E+00  3.39824816E-01  1.11661768E-01 -5.73803606E+00
  3.39824816E-01  1.11661768E-01 -5.73803606E+00  3.39824816E-01  1.11661768E-01
 -5.62196078E+00 -2.15858498E+00 -6.58173061E-01 -5.62196078E+00 -2.15858498E+00
 -6.58173061E-01 -5.62196078E+00 -2.15858498E+00 -6.58173061E-01 -5.62196078E+00
 -2.15858498E+00 -6.58173061E-01 -2.68575905E+00  3.74898598E+00  1.26459127E+00
 -2.68575905E+00  3.74898598E+00  1.26459127E+00 -2.68575905E+00  3.74898598E+00
  1.26459127E+00 -2.68575905E+00  3.74898598E+00  1.26459127E+00  2.34693596E+00
  1.67146829E+00 -1.31705271E+00  2.34693596E+00  1.67146829E+00 -1.31705271E+00
  2.34693596E+00  1.67146829E+00 -1.31705271E+00  2.34693596E+00  1.67146829E+00
 -1.31705271E+00  2.60538559E+00 -2.19662991E+00  1.10279010E+00  2.60538559E+00
 -2.19662991E+00  1.10279010E+00  2.60538559E+00 -2.19662991E+00  1.10279010E+00
  2.60538559E+00 -2.19662991E+00  1.10279010E+00  4.97294775E+00  1.89227529E+00
 -1.23706814E+00  4.97294775E+00  1.89227529E+00 -1.23706814E+00  4.97294775E+00
  1.89227529E+00 -1.23706814E+00  4.97294775E+00  1.89227529E+00 -1.23706814E+00
  5.23254468E+00 -1.99301965E+00  1.14422492E+00  5.23254468E+00 -1.99301965E+00
  1.14422492E+00  5.23254468E+00 -1.99301965E+00  1.14422492E+00  5.23254468E+00
 -1.99301965E+00  1.14422492E+00  6.42491465E+00  6.06759678E-02 -1.00612238E-02
  6.42491465E+00  6.06759678E-02 -1.00612238E-02  6.42491465E+00  6.06759678E-02
 -1.00612238E-02  6.42491465E+00  6.06759678E-02 -1.00612238E-02 -2.25459646E+00
 -4.59295409E+00 -1.46259999E+00 -2.25459646E+00 -4.59295409E+00 -1.46259999E+00
 -7.33652969E+00  1.54949685E+00  5.17842818E-01 -7.33652969E+00  1.54949685E+00
  5.17842818E-01 -7.22878713E+00 -3.36693803E+00 -1.03487760E+00 -7.22878713E+00
 -3.36693803E+00 -1.03487760E+00 -4.19758005E+00  4.39968002E+00  2.50819098E+00
 -4.19758005E+00  4.39968002E+00  2.50819098E+00 -9.20334630E-01  3.68364658E+00
  2.32539954E+00 -9.20334630E-01  3.68364658E+00  2.32539954E+00 -2.48294777E+00
  5.08029454E+00 -3.03824025E-01 -2.48294777E+00  5.08029454E+00 -3.03824025E-01
  1.23515171E+00  3.05233321E+00 -2.35818673E+00  1.23515171E+00  3.05233321E+00
 -2.35818673E+00  1.66533786E+00 -3.76584866E+00  2.04084257E+00  1.66533786E+00
 -3.76584866E+00  2.04084257E+00  5.89100655E+00  3.47937277E+00 -2.16655121E+00
  5.89100655E+00  3.47937277E+00 -2.16655121E+00  6.35149405E+00 -3.42496403E+00
  2.10470115E+00  6.35149405E+00 -3.42496403E+00  2.10470115E+00  8.47226981E+00
  2.28496678E-01  3.88212426E-02  8.47226981E+00  2.28496678E-01  3.88212426E-02
Constraint Structure                       R   N=          69
 -3.31289496E+00  1.22597529E+00  3.75278981E-01 -1.62221663E+00 -6.79117140E-01
 -2.18650186E-01  1.12606785E+00 -3.67421643E-01 -1.29698854E-01 -3.04152722E+00
 -2.80253083E+00 -8.58682476E-01 -5.73803606E+00  3.39824816E-01  1.11661768E-01
 -5.62196078E+00 -2.15858498E+00 -6.58173061E-01 -2.68575905E+00  3.74898598E+00
  1.26459127E+00  2.34693596E+00  1.67146829E+00 -1.31705271E+00  2.60538559E+00
 -2.19662991E+00  1.10279010E+00  4.97294775E+00  1.89227529E+00 -1.23706814E+00
  5.23254468E+00 -1.99301965E+00  1.14422492E+00  6.42491465E+00  6.06759678E-02
 -1.00612238E-02 -2.25459646E+00 -4.59295409E+00 -1.46259999E+00 -7.33652969E+00
  1.54949685E+00  5.17842818E-01 -7.22878713E+00 -3.36693803E+00 -1.03487760E+00
 -4.19758005E+00  4.39968002E+00  2.50819098E+00 -9.20334630E-01  3.68364658E+00
  2.32539954E+00 -2.48294777E+00  5.08029454E+00 -3.03824025E-01  1.23515171E+00
  3.05233321E+00 -2.35818673E+00  1.66533786E+00 -3.76584866E+00  2.04084257E+00
  5.89100655E+00  3.47937277E+00 -2.16655121E+00  6.35149405E+00 -3.42496403E+00
  2.10470115E+00  8.47226981E+00  2.28496678E-01  3.88212426E-02
Num ILSW                                   I              100
ILSW                                       I   N=         100
           0           1           0           0           2           0
           0           0           0           0           0          -1
           0           0           0           0           0           0
           0           0           0           0           1           0
           1           0           0           0           0           0
           0           0      100000           0          -1           0
           0           0           0           0           0           0
           0           0           0           1           1           0
           0           0           1           0           0           0
           0           0           4          40           0           0
           0           0           0           0           0           0
           0           0           0           0           0           0
           0           0           0           0           0           0
           0           0           0           0           0           0
           0           0           0           0           0           0
           0           0           0           0           0           0
           0           0           0           0
Num RLSW                                   I               40
RLSW                                       R   N=          40
  1.00000000E+00  1.00000000E+00  1.00000000E+00  1.00000000E+00  1.00000000E+00
  0.00000000E+00  0.00000000E+00  1.00000000E+00  0.00000000E+00  0.00000000E+00
  0.00000000E+00  0.00000000E+00  1.00000000E+00  0.00000000E+00  0.00000000E+00
  0.00000000E+00  0.00000000E+00  1.00000000E+00  0.00000000E+00  0.00000000E+00
  0.00000000E+00  0.00000000E+00  1.00000000E+00  0.00000000E+00  0.00000000E+00
  0.00000000E+00  0.00000000E+00  1.00000000E+00  0.00000000E+00  0.00000000E+00
  0.00000000E+00  0.00000000E+00  0.00000000E+00  0.00000000E+00  0.00000000E+00
  0.00000000E+00  0.00000000E+00  0.00000000E+00  1.00000000E+00  1.00000000E+00
MxBond                                     I                4
NBond                                      I   N=          23
           3           3           3           3           3           3
           4           3           3           3           3           3
           1           1           1           1           1           1
           1           1           1           1           1
IBond                                      I   N=          92
           2           5           7           0           1           3
           4           0           2           8           9           0
           2           6          13           0           1           6
          14           0           4           5          15           0
           1          16          17          18           3          10
          19           0           3          11          20           0
           8          12          21           0           9          12
          22           0          10          11          23           0
           4           0           0           0           5           0
           0           0           6           0           0           0
           7           0           0           0           7           0
           0           0           7           0           0           0
           8           0           0           0           9           0
           0           0          10           0           0           0
          11           0           0           0          12           0
           0           0
RBond                                      R   N=          92
  1.00000000E+00  1.00000000E+00  1.00000000E+00  0.00000000E+00  1.00000000E+00
  1.00000000E+00  1.50000000E+00  0.00000000E+00  1.00000000E+00  1.50000000E+00
  1.50000000E+00  0.00000000E+00  1.50000000E+00  1.50000000E+00  1.00000000E+00
  0.00000000E+00  1.00000000E+00  1.50000000E+00  1.00000000E+00  0.00000000E+00
  1.50000000E+00  1.50000000E+00  1.00000000E+00  0.00000000E+00  1.00000000E+00
  1.00000000E+00  1.00000000E+00  1.00000000E+00  1.50000000E+00  1.50000000E+00
  1.00000000E+00  0.00000000E+00  1.50000000E+00  1.50000000E+00  1.00000000E+00
  0.00000000E+00  1.50000000E+00  1.50000000E+00  1.00000000E+00  0.00000000E+00
  1.50000000E+00  1.50000000E+00  1.00000000E+00  0.00000000E+00  1.50000000E+00
  1.50000000E+00  1.00000000E+00  0.00000000E+00  1.00000000E+00  0.00000000E+00
  0.00000000E+00  0.00000000E+00  1.00000000E+00  0.00000000E+00  0.00000000E+00
  0.00000000E+00  1.00000000E+00  0.00000000E+00  0.00000000E+00  0.00000000E+00
  1.00000000E+00  0.00000000E+00  0.00000000E+00  0.00000000E+00  1.00000000E+00
  0.00000000E+00  0.00000000E+00  0.00000000E+00  1.00000000E+00  0.00000000E+00
  0.00000000E+00  0.00000000E+00  1.00000000E+00  0.00000000E+00  0.00000000E+00
  0.00000000E+00  1.00000000E+00  0.00000000E+00  0.00000000E+00  0.00000000E+00
  1.00000000E+00  0.00000000E+00  0.00000000E+00  0.00000000E+00  1.00000000E+00
  0.00000000E+00  0.00000000E+00  0.00000000E+00  1.00000000E+00  0.00000000E+00
  0.00000000E+00  0.00000000E+00
Virial Ratio                               R      2.002089145415551E+00
SCF Energy                                 R     -4.773861046669800E+02
MP2 Energy                                 R     -4.789560857619595E+02
Total Energy                               R     -4.789560857619595E+02
Post-SCF wavefunction norm                 R      1.770422465514643E+00
RMS Force                                  R      2.513215762215732E-07
RMS Density                                R      1.496357143932782E-09
External E-field                           R   N=          35
  0.00000000E+00  0.00000000E+00  0.00000000E+00  0.00000000E+00  0.00000000E+00
  0.00000000E+00  0.00000000E+00  0.00000000E+00  0.00000000E+00  0.00000000E+00
  0.00000000E+00  0.00000000E+00  0.00000000E+00  0.00000000E+00  0.00000000E+00
  0.00000000E+00  0.00000000E+00  0.00000000E+00  0.00000000E+00  0.00000000E+00
  0.00000000E+00  0.00000000E+00  0.00000000E+00  0.00000000E+00  0.00000000E+00