opt=Tight                                                               
Freq      RMP2-FC                                                     6-31G(d)            
Number of atoms                            I               10
Info1-9                                    I   N=           9
          19          19        1002           0           0         100
           6           2           1
Charge                                     I               -1
Multiplicity                               I                1
Number of electrons                        I               54
Number of alpha electrons                  I               27
Number of beta electrons                   I               27
Number of basis functions                  I              111
Number of independent functions            I              111
Number of point charges in /Mol/           I                0
Number of translation vectors              I                0
Atomic numbers                             I   N=          10
           8           8           8           8           6           6
           6           1           1           1
Nuclear charges                            R   N=          10
  8.00000000E+00  8.00000000E+00  8.00000000E+00  8.00000000E+00  6.00000000E+00
  6.00000000E+00  6.00000000E+00  1.00000000E+00  1.00000000E+00  1.00000000E+00
Current cartesian coordinates              R   N=          30
 -3.02491214E+00 -1.97732552E-01  2.19013583E+00 -3.44827402E+00  4.83363580E-01
 -2.00230546E+00  1.88597500E+00  2.51772820E+00  1.27489274E-01  4.65147546E+00
 -7.81796211E-01  1.06580759E-01  2.69866701E-01 -1.69421056E+00 -4.32768359E-01
 -2.21932252E+00 -3.83563616E-01 -2.45319798E-01  2.49178636E+00  2.12293441E-01
 -1.40673875E-02  3.99787320E-01 -3.21086218E+00  9.63469847E-01  4.45159206E-01
 -2.52256305E+00 -2.31770947E+00 -4.61304413E+00  7.53805502E-01  2.13196966E+00
Force Field                                I                0
Int Atom Types                             I   N=          10
           0           0           0           0           0           0
           0           0           0           0
MM charges                                 R   N=          10
  0.00000000E+00  0.00000000E+00  0.00000000E+00  0.00000000E+00  0.00000000E+00
  0.00000000E+00  0.00000000E+00  0.00000000E+00  0.00000000E+00  0.00000000E+00
Integer atomic weights                     I   N=          10
          16          16          16          16          12          12
          12           1           1           1
Real atomic weights                        R   N=          10
  1.59949146E+01  1.59949146E+01  1.59949146E+01  1.59949146E+01  1.20000000E+01
  1.20000000E+01  1.20000000E+01  1.00782504E+00  1.00782504E+00  1.00782504E+00
Atom fragment info                         I   N=          10
           0           0           0           0           0           0
           0           0           0           0
Atom residue num                           I   N=          10
           0           0           0           0           0           0
           0           0           0           0
Nuclear spins                              I   N=          10
           0           0           0           0           0           0
           0           1           1           1
Nuclear ZEff                               R   N=          10
 -5.60000000E+00 -5.60000000E+00 -5.60000000E+00 -5.60000000E+00 -3.60000000E+00
 -3.60000000E+00 -3.60000000E+00 -1.00000000E+00 -1.00000000E+00 -1.00000000E+00
Nuclear QMom                               R   N=          10
  0.00000000E+00  0.00000000E+00  0.00000000E+00  0.00000000E+00  0.00000000E+00
  0.00000000E+00  0.00000000E+00  0.00000000E+00  0.00000000E+00  0.00000000E+00
Nuclear GFac                               R   N=          10
  0.00000000E+00  0.00000000E+00  0.00000000E+00  0.00000000E+00  0.00000000E+00
  0.00000000E+00  0.00000000E+00  2.79284600E+00  2.79284600E+00  2.79284600E+00
MicOpt                                     I   N=          10
          -1          -1          -1          -1          -1          -1
          -1          -1          -1          -1
Number of contracted shells                I               34
Number of primitive shells                 I               89
Pure/Cartesian d shells                    I                1
Pure/Cartesian f shells                    I                0
Highest angular momentum                   I                2
Largest degree of contraction              I                6
Shell types                                I   N=          34
           0          -1          -1           2           0          -1
          -1           2           0          -1          -1           2
           0          -1          -1           2           0          -1
          -1           2           0          -1          -1           2
           0          -1          -1           2           0           0
           0           0           0           0
Number of primitives per shell             I   N=          34
           6           3           1           1           6           3
           1           1           6           3           1           1
           6           3           1           1           6           3
           1           1           6           3           1           1
           6           3           1           1           3           1
           3           1           3           1
Shell to atom map                          I   N=          34
           1           1           1           1           2           2
           2           2           3           3           3           3
           4           4           4           4           5           5
           5           5           6           6           6           6
           7           7           7           7           8           8
           9           9          10          10
Primitive exponents                        R   N=          89
  5.48467166E+03  8.25234946E+02  1.88046958E+02  5.29645000E+01  1.68975704E+01
  5.79963534E+00  1.55396162E+01  3.59993359E+00  1.01376175E+00  2.70005823E-01
  8.00000000E-01  5.48467166E+03  8.25234946E+02  1.88046958E+02  5.29645000E+01
  1.68975704E+01  5.79963534E+00  1.55396162E+01  3.59993359E+00  1.01376175E+00
  2.70005823E-01  8.00000000E-01  5.48467166E+03  8.25234946E+02  1.88046958E+02
  5.29645000E+01  1.68975704E+01  5.79963534E+00  1.55396162E+01  3.59993359E+00
  1.01376175E+00  2.70005823E-01  8.00000000E-01  5.48467166E+03  8.25234946E+02
  1.88046958E+02  5.29645000E+01  1.68975704E+01  5.79963534E+00  1.55396162E+01
  3.59993359E+00  1.01376175E+00  2.70005823E-01  8.00000000E-01  3.04752488E+03
  4.57369518E+02  1.03948685E+02  2.92101553E+01  9.28666296E+00  3.16392696E+00
  7.86827235E+00  1.88128854E+00  5.44249258E-01  1.68714478E-01  8.00000000E-01
  3.04752488E+03  4.57369518E+02  1.03948685E+02  2.92101553E+01  9.28666296E+00
  3.16392696E+00  7.86827235E+00  1.88128854E+00  5.44249258E-01  1.68714478E-01
  8.00000000E-01  3.04752488E+03  4.57369518E+02  1.03948685E+02  2.92101553E+01
  9.28666296E+00  3.16392696E+00  7.86827235E+00  1.88128854E+00  5.44249258E-01
  1.68714478E-01  8.00000000E-01  1.87311370E+01  2.82539436E+00  6.40121692E-01
  1.61277759E-01  1.87311370E+01  2.82539436E+00  6.40121692E-01  1.61277759E-01
  1.87311370E+01  2.82539436E+00  6.40121692E-01  1.61277759E-01
Contraction coefficients                   R   N=          89
  1.83107443E-03  1.39501722E-02  6.84450781E-02  2.32714336E-01  4.70192898E-01
  3.58520853E-01 -1.10777550E-01 -1.48026263E-01  1.13076702E+00  1.00000000E+00
  1.00000000E+00  1.83107443E-03  1.39501722E-02  6.84450781E-02  2.32714336E-01
  4.70192898E-01  3.58520853E-01 -1.10777550E-01 -1.48026263E-01  1.13076702E+00
  1.00000000E+00  1.00000000E+00  1.83107443E-03  1.39501722E-02  6.84450781E-02
  2.32714336E-01  4.70192898E-01  3.58520853E-01 -1.10777550E-01 -1.48026263E-01
  1.13076702E+00  1.00000000E+00  1.00000000E+00  1.83107443E-03  1.39501722E-02
  6.84450781E-02  2.32714336E-01  4.70192898E-01  3.58520853E-01 -1.10777550E-01
 -1.48026263E-01  1.13076702E+00  1.00000000E+00  1.00000000E+00  1.83473713E-03
  1.40373228E-02  6.88426223E-02  2.32184443E-01  4.67941348E-01  3.62311985E-01
 -1.19332420E-01 -1.60854152E-01  1.14345644E+00  1.00000000E+00  1.00000000E+00
  1.83473713E-03  1.40373228E-02  6.88426223E-02  2.32184443E-01  4.67941348E-01
  3.62311985E-01 -1.19332420E-01 -1.60854152E-01  1.14345644E+00  1.00000000E+00
  1.00000000E+00  1.83473713E-03  1.40373228E-02  6.88426223E-02  2.32184443E-01
  4.67941348E-01  3.62311985E-01 -1.19332420E-01 -1.60854152E-01  1.14345644E+00
  1.00000000E+00  1.00000000E+00  3.34946043E-02  2.34726953E-01  8.13757326E-01
  1.00000000E+00  3.34946043E-02  2.34726953E-01  8.13757326E-01  1.00000000E+00
  3.34946043E-02  2.34726953E-01  8.13757326E-01  1.00000000E+00
P(S=P) Contraction coefficients            R   N=          89
  0.00000000E+00  0.00000000E+00  0.00000000E+00  0.00000000E+00  0.00000000E+00
  0.00000000E+00  7.08742682E-02  3.39752839E-01  7.27158577E-01  1.00000000E+00
  0.00000000E+00  0.00000000E+00  0.00000000E+00  0.00000000E+00  0.00000000E+00
  0.00000000E+00  0.00000000E+00  7.08742682E-02  3.39752839E-01  7.27158577E-01
  1.00000000E+00  0.00000000E+00  0.00000000E+00  0.00000000E+00  0.00000000E+00
  0.00000000E+00  0.00000000E+00  0.00000000E+00  7.08742682E-02  3.39752839E-01
  7.27158577E-01  1.00000000E+00  0.00000000E+00  0.00000000E+00  0.00000000E+00
  0.00000000E+00  0.00000000E+00  0.00000000E+00  0.00000000E+00  7.08742682E-02
  3.39752839E-01  7.27158577E-01  1.00000000E+00  0.00000000E+00  0.00000000E+00
  0.00000000E+00  0.00000000E+00  0.00000000E+00  0.00000000E+00  0.00000000E+00
  6.89990666E-02  3.16423961E-01  7.44308291E-01  1.00000000E+00  0.00000000E+00
  0.00000000E+00  0.00000000E+00  0.00000000E+00  0.00000000E+00  0.00000000E+00
  0.00000000E+00  6.89990666E-02  3.16423961E-01  7.44308291E-01  1.00000000E+00
  0.00000000E+00  0.00000000E+00  0.00000000E+00  0.00000000E+00  0.00000000E+00
  0.00000000E+00  0.00000000E+00  6.89990666E-02  3.16423961E-01  7.44308291E-01
  1.00000000E+00  0.00000000E+00  0.00000000E+00  0.00000000E+00  0.00000000E+00
  0.00000000E+00  0.00000000E+00  0.00000000E+00  0.00000000E+00  0.00000000E+00
  0.00000000E+00  0.00000000E+00  0.00000000E+00  0.00000000E+00
Coordinates of each shell                  R   N=         102
 -3.02491214E+00 -1.97732552E-01  2.19013583E+00 -3.02491214E+00 -1.97732552E-01
  2.19013583E+00 -3.02491214E+00 -1.97732552E-01  2.19013583E+00 -3.02491214E+00
 -1.97732552E-01  2.19013583E+00 -3.44827402E+00  4.83363580E-01 -2.00230546E+00
 -3.44827402E+00  4.83363580E-01 -2.00230546E+00 -3.44827402E+00  4.83363580E-01
 -2.00230546E+00 -3.44827402E+00  4.83363580E-01 -2.00230546E+00  1.88597500E+00
  2.51772820E+00  1.27489274E-01  1.88597500E+00  2.51772820E+00  1.27489274E-01
  1.88597500E+00  2.51772820E+00  1.27489274E-01  1.88597500E+00  2.51772820E+00
  1.27489274E-01  4.65147546E+00 -7.81796211E-01  1.06580759E-01  4.65147546E+00
 -7.81796211E-01  1.06580759E-01  4.65147546E+00 -7.81796211E-01  1.06580759E-01
  4.65147546E+00 -7.81796211E-01  1.06580759E-01  2.69866701E-01 -1.69421056E+00
 -4.32768359E-01  2.69866701E-01 -1.69421056E+00 -4.32768359E-01  2.69866701E-01
 -1.69421056E+00 -4.32768359E-01  2.69866701E-01 -1.69421056E+00 -4.32768359E-01
 -2.21932252E+00 -3.83563616E-01 -2.45319798E-01 -2.21932252E+00 -3.83563616E-01
 -2.45319798E-01 -2.21932252E+00 -3.83563616E-01 -2.45319798E-01 -2.21932252E+00
 -3.83563616E-01 -2.45319798E-01  2.49178636E+00  2.12293441E-01 -1.40673875E-02
  2.49178636E+00  2.12293441E-01 -1.40673875E-02  2.49178636E+00  2.12293441E-01
 -1.40673875E-02  2.49178636E+00  2.12293441E-01 -1.40673875E-02  3.99787320E-01
 -3.21086218E+00  9.63469847E-01  3.99787320E-01 -3.21086218E+00  9.63469847E-01
  4.45159206E-01 -2.52256305E+00 -2.31770947E+00  4.45159206E-01 -2.52256305E+00
 -2.31770947E+00 -4.61304413E+00  7.53805502E-01  2.13196966E+00 -4.61304413E+00
  7.53805502E-01  2.13196966E+00
Constraint Structure                       R   N=          30
 -3.02491214E+00 -1.97732552E-01  2.19013583E+00 -3.44827402E+00  4.83363580E-01
 -2.00230546E+00  1.88597500E+00  2.51772820E+00  1.27489274E-01  4.65147546E+00
 -7.81796211E-01  1.06580759E-01  2.69866701E-01 -1.69421056E+00 -4.32768359E-01
 -2.21932252E+00 -3.83563616E-01 -2.45319798E-01  2.49178636E+00  2.12293441E-01
 -1.40673875E-02  3.99787320E-01 -3.21086218E+00  9.63469847E-01  4.45159206E-01
 -2.52256305E+00 -2.31770947E+00 -4.61304413E+00  7.53805502E-01  2.13196966E+00
Num ILSW                                   I              100
ILSW                                       I   N=         100
           0           1           0           0           2           0
           0           0           0           0           0          -1
           0           0           0           0           0           0
           0           0           0           0           1           0
           1           0           0           0           0           0
           0           0      100000           0          -1           0
           0           0           0           0           0           0
           0           0           0           1           1           0
           0           0           1           0           0           0
           0           0           4          40           0           0
           0           0           0           0           0           0
           0           0           0           0           0           0
           0           0           0           0           0           0
           0           0           0           0           0           0
           0           0           0           0           0           0
           0           0           0           0           0           0
           0           0           0           0
Num RLSW                                   I               40
RLSW                                       R   N=          40
  1.00000000E+00  1.00000000E+00  1.00000000E+00  1.00000000E+00  1.00000000E+00
  0.00000000E+00  0.00000000E+00  1.00000000E+00  0.00000000E+00  0.00000000E+00
  0.00000000E+00  0.00000000E+00  1.00000000E+00  0.00000000E+00  0.00000000E+00
  0.00000000E+00  0.00000000E+00  1.00000000E+00  0.00000000E+00  0.00000000E+00
  0.00000000E+00  0.00000000E+00  1.00000000E+00  0.00000000E+00  0.00000000E+00
  0.00000000E+00  0.00000000E+00  1.00000000E+00  0.00000000E+00  0.00000000E+00
  0.00000000E+00  0.00000000E+00  0.00000000E+00  0.00000000E+00  0.00000000E+00
  0.00000000E+00  0.00000000E+00  0.00000000E+00  1.00000000E+00  1.00000000E+00
MxBond                                     I                4
NBond                                      I   N=          10
           2           1           1           1           4           3
           3           1           1           1
IBond                                      I   N=          40
           6          10           0           0           6           0
           0           0           7           0           0           0
           7           0           0           0           6           7
           8           9           1           2           5           0
           3           4           5           0           5           0
           0           0           5           0           0           0
           1           0           0           0
RBond                                      R   N=          40
  1.50000000E+00  1.00000000E+00  0.00000000E+00  0.00000000E+00  2.00000000E+00
  0.00000000E+00  0.00000000E+00  0.00000000E+00  2.00000000E+00  0.00000000E+00
  0.00000000E+00  0.00000000E+00  2.00000000E+00  0.00000000E+00  0.00000000E+00
  0.00000000E+00  1.00000000E+00  1.00000000E+00  1.00000000E+00  1.00000000E+00
  1.50000000E+00  2.00000000E+00  1.00000000E+00  0.00000000E+00  2.00000000E+00
  2.00000000E+00  1.00000000E+00  0.00000000E+00  1.00000000E+00  0.00000000E+00
  0.00000000E+00  0.00000000E+00  1.00000000E+00  0.00000000E+00  0.00000000E+00
  0.00000000E+00  1.00000000E+00  0.00000000E+00  0.00000000E+00  0.00000000E+00
Virial Ratio                               R      2.003222916761366E+00
SCF Energy                                 R     -4.149551938404835E+02
MP2 Energy                                 R     -4.160460374415136E+02
Total Energy                               R     -4.160460374415136E+02
Post-SCF wavefunction norm                 R      1.626697211770250E+00
RMS Force                                  R      1.070166828330163E-05
RMS Density                                R      3.800541304245759E-09
External E-field                           R   N=          35
  0.00000000E+00  0.00000000E+00  0.00000000E+00  0.00000000E+00  0.00000000E+00
  0.00000000E+00  0.00000000E+00  0.00000000E+00  0.00000000E+00  0.00000000E+00
  0.00000000E+00  0.00000000E+00  0.00000000E+00  0.00000000E+00  0.00000000E+00
  0.00000000E+00  0.00000000E+00  0.00000000E+00  0.00000000E+00  0.00000000E+00
  0.00000000E+00  0.00000000E+00  0.00000000E+00  0.00000000E+00  0.00000000E+00
  0.00000000E+00  0.00000000E+00  0.00000000E+00  0.00000000E+00  0.00000000E+00
  0.00000000E+00  0.00000000E+00  0.00000000E+00  0.00000000E+00  0.00000000E+00
IOpCl                                      I                0
IROHF                                      I                0
Alpha Orbital Energies                     R   N=         111
 -2.06112028E+01 -2.05500364E+01 -2.04789847E+01 -2.04758519E+01 -1.13868166E+01
 -1.13288358E+01 -1.12256465E+01 -1.44859611E+00 -1.34563075E+00 -1.34343231E+00
 -1.24546615E+00 -1.01790881E+00 -8.15064378E-01 -7.07263978E-01 -6.96181508E-01
 -6.60406062E-01 -6.31149525E-01 -5.86418460E-01 -5.83164316E-01 -5.75171118E-01
 -5.52999072E-01 -5.01196127E-01 -4.73326996E-01 -4.48900464E-01 -3.88427749E-01
 -3.76168574E-01 -3.73717747E-01  1.89368452E-01  2.38100781E-01  2.47135022E-01
  2.93605461E-01  3.45571471E-01  4.25340236E-01  4.48243498E-01  4.97724013E-01
  5.14891796E-01  5.41462228E-01  6.33104850E-01  7.65321334E-01  8.11825491E-01
  8.30902877E-01  8.39099593E-01  8.74885775E-01  8.94642849E-01  9.19591614E-01
  9.62199421E-01  9.84740412E-01  1.00461135E+00  1.07603201E+00  1.10233948E+00
  1.12194490E+00  1.14837869E+00  1.15364480E+00  1.16779235E+00  1.22157515E+00
  1.23431059E+00  1.25475189E+00  1.31509765E+00  1.32504708E+00  1.35457062E+00
  1.36158146E+00  1.40312750E+00  1.43847015E+00  1.49540363E+00  1.64665411E+00
  1.67064053E+00  1.71318843E+00  1.73550844E+00  1.76356712E+00  1.82107418E+00
  1.87645225E+00  1.96447060E+00  1.99542076E+00  2.04436629E+00  2.07076336E+00
  2.10086981E+00  2.11361655E+00  2.14095502E+00  2.14249206E+00  2.18450278E+00
  2.21125813E+00  2.25898970E+00  2.28799115E+00  2.30384750E+00  2.32800596E+00
  2.36131267E+00  2.44241025E+00  2.46556402E+00  2.54994411E+00  2.65870572E+00
  2.70950071E+00  2.79268057E+00  2.81128125E+00  2.85894299E+00  2.99567899E+00
  3.05542701E+00  3.09923703E+00  3.17067446E+00  3.21212661E+00  3.28664874E+00
  3.33136109E+00  3.36615676E+00  3.44638750E+00  3.54068541E+00  4.24508150E+00
  4.31947105E+00  4.49336661E+00  4.57387193E+00  4.67057089E+00  4.83467447E+00
  4.99711702E+00
Alpha MO coefficients                      R   N=       12321
  9.94638696E-01  2.11850924E-02 -5.57777703E-04  4.45930461E-04 -1.01674993E-03
  4.01309227E-03  3.55544137E-04 -2.71612611E-04  4.45868605E-04 -4.09084801E-03
 -3.99706483E-03 -4.10002118E-03  9.42734972E-05  4.80110632E-05 -3.30927973E-06
 -2.78677712E-04  4.14104147E-05  8.86497712E-06  3.55707617E-06 -4.47038296E-05
 -3.82259572E-04 -2.23472457E-05  2.11708610E-06 -1.20304465E-04  4.62650924E-05
  1.83516082E-05 -5.06716099E-05 -2.84466819E-05 -5.55275114E-06  6.34238992E-06
 -1.26185099E-05 -3.44489639E-05 -8.23788586E-06  1.27208517E-06  4.89340913E-06
  2.24958794E-04  1.47061434E-05 -7.81963293E-05 -2.30869140E-05 -1.15551027E-05
 -2.58079540E-07 -8.76803422E-06  2.01770739E-06 -1.30824291E-06  2.70202298E-06
  9.01777189E-06  4.43070788E-05 -1.21444242E-06 -1.73787266E-06 -1.43015267E-06
 -2.86251597E-04  8.74389133E-05 -1.40623412E-05  7.40900530E-06  1.39762367E-05
  3.10652984E-05  3.00006704E-05  5.74049347E-06 -3.39009361E-06 -8.36238811E-07
 -1.13695072E-06  3.69414452E-05  6.24983577E-06  1.54936196E-05  1.79020811E-05
  3.43746665E-04 -9.80364061E-05 -2.55402808E-05 -1.80839137E-04 -4.86018748E-05
 -1.06018479E-05 -2.50518116E-05  1.74646642E-05  3.99311410E-05 -6.52584423E-06
 -4.28748655E-06  3.67293801E-04 -1.01790134E-04  1.95171598E-05  2.99985112E-04
 -4.55666517E-05 -3.46099740E-04  2.87277532E-04 -2.02303879E-04 -1.72452625E-05
 -4.70274776E-05 -6.62997512E-05 -2.15110820E-05  2.87497850E-05 -1.56162235E-05
  3.73247112E-06 -3.04539166E-06 -6.02677249E-06 -7.74584770E-06  8.78817166E-06
  1.20087412E-05  1.82714510E-04 -2.19967154E-04  3.02982526E-05  3.62885296E-05
 -5.97103378E-06  1.23623939E-05 -6.67686700E-06 -1.02309975E-05 -6.76746612E-06
  4.33120611E-05 -8.52515506E-05 -2.51823024E-05 -1.51575668E-04  4.27748514E-04
 -2.61933173E-04  2.82916100E-04 -3.47120020E-05  1.45199587E-05 -1.14565289E-05
  3.77186571E-05  1.15329896E-04 -2.74321678E-05  1.49043689E-05 -5.89734770E-05
  1.28450873E-06 -4.96982231E-05 -5.30675517E-05 -3.40598924E-05 -6.22718877E-05
  3.53286272E-05  9.94682874E-01  2.10049985E-02  7.67375148E-04 -5.55217291E-04
  1.15858389E-03  4.51394246E-03 -3.66503642E-05  9.16703908E-06 -4.83974054E-06
 -3.89248007E-03 -4.02951270E-03 -3.75494489E-03 -1.62165225E-04  1.21412830E-04
 -1.12137822E-04 -1.42896449E-05 -7.31447126E-06 -4.17984486E-06 -2.21116258E-06
  8.48838336E-07  6.74877838E-05 -6.70860343E-06 -1.89250279E-05 -4.74805784E-06
  3.60262451E-06  2.52177684E-06  9.63377986E-06  4.50374785E-06  2.78491472E-06
 -1.49132416E-07  7.09988374E-06  4.16782982E-05 -1.62504527E-06 -1.38812885E-07
 -2.63959094E-06 -2.52067374E-04  7.21752996E-05 -2.43983670E-05  1.17401568E-05
  1.60867881E-05  2.80786018E-05  3.09090015E-05  5.96239233E-06 -1.66528335E-06
 -3.12467838E-07  1.68647228E-06  1.00540099E-05  3.80719112E-06  1.85120280E-06
  2.60699958E-05 -1.76457442E-04  1.02531530E-04 -5.00450759E-05 -4.66690918E-05
 -1.55205743E-06 -5.74454225E-06 -3.02481236E-07 -1.49434820E-06 -5.56960042E-05
  2.96472577E-05 -5.18704369E-06  4.79362153E-04  4.30314621E-06 -9.54159214E-06
  2.03098076E-05 -2.81920635E-04  4.33740019E-04 -2.33047204E-04  3.29291331E-04
 -2.49932504E-04 -1.45608966E-04 -4.79768413E-04  1.72246663E-04 -3.30459614E-04
  2.34764135E-04  6.55567135E-06  1.32547888E-05 -5.93138881E-06 -3.17483204E-06
  1.55737556E-06  1.78070800E-05  1.68921970E-04 -9.77078715E-05 -6.49809224E-07
  2.56859194E-05  1.01668722E-05  1.55314496E-05 -4.33296438E-06  4.11356617E-06
 -4.39100380E-06  1.55559575E-05 -3.72562141E-05  1.10746797E-05 -5.06754208E-05
 -2.17026369E-05 -2.37646263E-05  6.77414551E-06 -1.81019039E-05  5.52418191E-06
 -1.68449251E-06  1.98658074E-06  1.05537970E-04  2.05971533E-06  2.58307236E-05
 -5.02285721E-05  7.63945069E-07  5.73809230E-07 -9.22635603E-07 -1.69192273E-07
 -1.89668417E-06 -8.32311146E-06  6.46086103E-06 -4.76730589E-05 -1.86886651E-06
 -2.99147243E-08 -5.15791129E-06  2.81323568E-04  6.57973005E-05 -1.00054457E-05
  7.61367775E-05 -1.97443833E-05 -2.67794891E-05 -1.89986494E-05  1.96305484E-06
  7.65943733E-06  3.90684578E-06  9.94671245E-01  2.09942352E-02  3.31203059E-04
 -1.25703252E-03 -7.63856133E-05  4.23334374E-03 -4.54445495E-05  1.38495929E-04
  8.52412153E-06 -3.90061168E-03 -3.78326312E-03 -4.05477196E-03 -2.33821417E-05
  1.48454931E-05  2.51680960E-05 -5.12682466E-03 -1.74663839E-04 -1.00500044E-05
 -3.02654035E-05 -3.32423242E-06  3.90382766E-04 -1.97216623E-04  4.30073524E-05
 -1.67873629E-05  1.06199877E-04 -1.05127820E-04 -6.19430190E-05  3.74846537E-05
  2.23104178E-05 -7.71607981E-07 -6.15038764E-06 -8.85129684E-06 -1.52565343E-05
 -3.32070460E-05 -4.05225838E-06  1.86318890E-04 -1.07001468E-04  5.11519833E-05
 -1.33662654E-05  1.14252316E-05 -6.50420698E-05 -2.56040629E-05 -3.20270220E-05
  2.33554603E-06 -6.22126089E-06  1.40189126E-05  6.95454162E-05  1.30382551E-05
  1.84848421E-05  8.27631458E-06 -5.28166751E-04 -7.60645042E-05 -1.08032709E-04
  4.55307346E-05  1.54606554E-06  1.95587717E-05  1.44942587E-05  7.46129143E-06
 -1.21169746E-07  3.45377430E-06 -8.87143181E-06  5.07570777E-04 -5.52158643E-05
  1.30750158E-04  5.31929758E-06 -4.94099974E-04 -1.37701703E-04 -2.09998418E-04
 -2.69713916E-05 -1.34709477E-04 -5.58818891E-04 -5.83244945E-05  2.08593210E-04
  9.21503728E-06 -3.05254704E-05  4.62515160E-06 -2.21024420E-05 -3.03599899E-08
 -2.59768755E-05 -1.35104547E-05  3.72616459E-06  1.03815933E-06 -2.33149371E-06
  1.69738209E-06 -7.63486673E-07 -1.11415611E-06  2.53592270E-05  1.16642175E-05
  5.51790748E-06 -5.98956096E-06  2.35844008E-06  2.87742731E-06 -2.20135960E-06
  1.09502425E-06 -3.73448012E-06 -6.18403368E-07  1.48754177E-07 -1.33520740E-05
 -2.70634625E-06 -1.09873872E-07 -3.09747181E-07  8.21451303E-05  4.26132778E-05
 -7.01231301E-06  1.13742153E-05 -2.38164079E-06 -6.03029602E-06 -1.05437344E-05
 -2.94562364E-07  4.26398233E-06  3.78011544E-07  5.10135856E-03  5.42663546E-05
 -2.52620112E-05 -1.57226133E-05 -4.42760011E-06  3.31727815E-04 -1.10735289E-06
 -1.58887004E-04 -1.16639844E-05 -1.16243363E-04  4.73633092E-05 -9.79245157E-05
  7.99601437E-05  4.73062494E-06  2.20265104E-05  9.94672471E-01  2.09990330E-02
 -1.19380099E-03  5.51930956E-04 -6.78506332E-05  4.26901367E-03  1.12001387E-04
 -3.33312205E-05  8.65357408E-06 -3.77587087E-03 -3.88465000E-03 -4.04322172E-03
 -5.96379703E-05  2.42746775E-05  9.57239500E-06 -6.10684350E-06  9.28946948E-07
 -3.23657381E-05 -7.43621294E-06 -4.90775951E-06  1.89530649E-04 -1.92720768E-04
  3.68742238E-05 -5.50107930E-06 -7.15860974E-05  3.35608861E-06 -3.06441633E-05
 -2.22675367E-05 -8.41584580E-06  3.78749687E-06  8.71653277E-06  4.12434038E-05
  9.02540361E-06 -5.54669113E-07  2.57985485E-06 -3.55401825E-04 -1.52007594E-04
  2.17840596E-05  3.33459980E-05  2.15816066E-06  2.34197393E-05  9.72463528E-06
 -2.81251219E-06 -1.94857042E-06  3.44558335E-06 -8.27751624E-06  5.08912958E-04
  1.08569358E-04 -7.63308729E-05  3.75600320E-06 -4.23346762E-04 -3.20606336E-04
 -4.88090634E-05 -3.77287790E-05 -5.10769549E-04 -1.94466731E-04 -5.75239520E-05
  2.91538189E-04 -2.47263240E-05  1.46991414E-05  1.01786154E-05 -4.32330568E-05
  6.51469470E-06 -3.37374813E-05 -2.89821113E-06 -8.29146324E-06 -1.22562017E-04
  4.73240253E-04 -6.21663378E-05  3.21403150E-05 -1.49549156E-04 -5.59323841E-04
  6.22425486E-04 -3.40543861E-04  1.38995270E-03  1.22215234E-04  3.24507906E-04
 -7.35614427E-04  1.74758688E-04  2.07665121E-04 -1.71378925E-05 -2.72170278E-04
  6.26318798E-04  7.60852538E-05 -1.03364481E-04  2.26879794E-04 -3.27634486E-03
 -2.26477151E-04  5.51861307E-04 -1.80722086E-03  3.27186155E-04  3.22664803E-04
 -1.17675763E-04  6.37343996E-05 -2.43192199E-05  1.15609822E-04 -6.18416346E-05
 -2.37542420E-04  1.08540905E-04  5.99680697E-05 -1.58468210E-05  6.33690945E-04
 -2.27832138E-04 -2.21605898E-04  6.86905516E-05 -1.35633983E-04 -1.55057754E-04
 -3.03185372E-04  2.97891018E-05 -3.54111112E-06 -7.10578348E-07 -8.00444780E-05
 -3.45465945E-04  1.90057152E-05  5.36212389E-06  1.31794374E-05  1.99981565E-03
 -5.99003970E-04  1.60711412E-04 -6.29905575E-05 -1.31334192E-04 -2.39572258E-04
 -2.54238888E-04 -3.51686259E-05  1.49889359E-05  8.28969110E-06  1.99543034E-03
 -4.37900394E-05  2.21594888E-05  1.99190116E-05 -3.30662197E-05  5.20958145E-03
 -2.25743733E-03  8.94586227E-04  6.92283182E-04 -3.51218039E-04 -2.21892312E-04
 -1.24581501E-04  1.25768659E-04  1.13126959E-05 -3.98733834E-05  9.95971462E-01
  2.59729401E-02 -6.14354931E-04  4.13832437E-04  6.05860478E-04 -7.78579561E-03
 -4.77451705E-03  2.14232119E-03 -1.19600927E-03 -1.19639995E-03 -1.82292173E-03
 -5.49211879E-04 -6.16781279E-04  2.17480283E-04 -3.06598066E-04 -1.53635909E-04
 -2.86298138E-04  6.76096529E-05 -7.37590891E-06 -8.27783836E-06 -4.93738406E-04
 -1.11430997E-03  5.40780499E-04 -1.39618807E-04 -1.23720500E-04 -7.20867991E-05
 -1.37238474E-04  6.70188259E-05 -3.85760048E-07  2.77522391E-05 -2.37742306E-04
 -1.24012593E-05 -1.36150804E-04  2.73501231E-04  2.91282246E-04  8.79576059E-05
  1.62597269E-05  1.03188375E-04 -6.59795767E-06 -2.03134198E-05 -1.31642631E-05
 -6.22375740E-04 -2.05797383E-04  7.64720009E-05  1.86886657E-04  1.00277670E-05
  2.62384086E-05  6.71837930E-05  1.92865876E-05  4.70433810E-05 -8.23535133E-06
  1.83782727E-05  9.55119817E-05  4.10120369E-05 -1.49829329E-05  1.05271835E-05
 -4.08642693E-04 -3.03467716E-04  5.37064726E-05 -5.16162169E-05  1.65925144E-05
  6.33534699E-05  8.40499999E-05  9.57976242E-06 -2.00887341E-05 -8.97158981E-06
 -2.00378144E-04  5.17661199E-04  1.06360659E-04 -1.66779949E-04  4.26511066E-06
 -1.91612735E-03 -9.60922896E-04  1.32214212E-03 -1.33350997E-05  1.45023278E-04
 -2.17685109E-04  4.25364792E-04  1.51447392E-04 -1.54718487E-05 -4.34136984E-05
 -2.00347612E-04  5.60163943E-04 -1.41362352E-04  1.62959912E-04 -1.41037088E-07
 -2.33169788E-03  1.23661313E-03 -1.26612561E-03  2.18956668E-06 -1.41606644E-04
  1.22007719E-04  4.16170872E-04  2.14044139E-04 -4.30438434E-05 -1.34883436E-05
  2.31861695E-03  3.10136163E-04  2.54352101E-05 -1.05039283E-04 -2.28176740E-05
  2.19296722E-03  2.07630704E-03  1.09488937E-03  2.23855363E-04 -4.47457781E-04
 -3.31274258E-04 -1.14109638E-04 -1.85077431E-04 -4.04867657E-05 -5.35858015E-05
 -3.10765047E-06 -4.22448761E-04 -1.52089335E-04  1.88986098E-05 -1.53365276E-05
  2.36136467E-03  1.01782105E-03 -2.88652846E-04  1.51687325E-04 -4.34804504E-05