
    -----------------------------------------------------------------------
          Psi4: An Open-Source Ab Initio Electronic Structure Package
                               Psi4 1.3.2 release

                         Git: Rev {HEAD} ecbda83 


    R. M. Parrish, L. A. Burns, D. G. A. Smith, A. C. Simmonett,
    A. E. DePrince III, E. G. Hohenstein, U. Bozkaya, A. Yu. Sokolov,
    R. Di Remigio, R. M. Richard, J. F. Gonthier, A. M. James,
    H. R. McAlexander, A. Kumar, M. Saitow, X. Wang, B. P. Pritchard,
    P. Verma, H. F. Schaefer III, K. Patkowski, R. A. King, E. F. Valeev,
    F. A. Evangelista, J. M. Turney, T. D. Crawford, and C. D. Sherrill,
    J. Chem. Theory Comput. 13(7) pp 3185--3197 (2017).
    (doi: 10.1021/acs.jctc.7b00174)


                         Additional Contributions by
    P. Kraus, H. Kruse, M. H. Lechner, M. C. Schieber, R. A. Shaw,
    A. Alenaizan, R. Galvelis, Z. L. Glick, S. Lehtola, and J. P. Misiewicz

    -----------------------------------------------------------------------


    Psi4 started on: Tuesday, 02 February 2021 11:06AM

    Process ID: 924221
    Host:       node56.bme.utexas.edu
    PSIDATADIR: /home/xy3866/psi4conda/share/psi4
    Memory:     500.0 MiB
    Threads:    8
    
  ==> Input File <==

--------------------------------------------------------------------------
#psi4
#
memory 32 gb

molecule  {
0 1
  S        1.4017960     0.0318670    -0.2267910
  C        0.3439980    -1.2907520     0.4304430
  C       -1.0366050    -1.1980160    -0.1526860
  C       -1.6877140    -0.0149620    -0.1717330
  C       -1.0273490     1.2315180     0.1753310
  C        0.1972391     1.5175743     0.1507230
  H        0.3192380    -1.2040060     1.5241050
  H        0.8310050    -2.2339400     0.1718380
  H       -1.5205060    -2.1086570    -0.4970330
  H       -2.7141090     0.0333350    -0.5285000
  H       -1.6282610     2.1139460     0.3806850
  H        0.8050420     2.3317560     0.2174670
units angstrom
no_reorient  #important for SAPT in psi4, default
symmetry c1  #important for SAPT in psi4, default
}

set PROPERTIES_ORIGIN ["COM"]
properties('MP2/aug-cc-pvtz', properties = ['dipole'])
--------------------------------------------------------------------------

  Memory set to  29.802 GiB by Python driver.
    SCF Algorithm Type (re)set to DF.

*** tstart() called on node56.bme.utexas.edu
*** at Tue Feb  2 11:06:56 2021

   => Loading Basis Set <=

    Name: AUG-CC-PVTZ
    Role: ORBITAL
    Keyword: BASIS
    atoms 1    entry S          line   902 file /home/xy3866/psi4conda/share/psi4/basis/aug-cc-pvtz.gbs 
    atoms 2-6  entry C          line   235 file /home/xy3866/psi4conda/share/psi4/basis/aug-cc-pvtz.gbs 
    atoms 7-12 entry H          line    36 file /home/xy3866/psi4conda/share/psi4/basis/aug-cc-pvtz.gbs 


         ---------------------------------------------------------
                                   SCF
               by Justin Turney, Rob Parrish, Andy Simmonett
                          and Daniel G. A. Smith
                              RHF Reference
                        8 Threads,  30517 MiB Core
         ---------------------------------------------------------

  ==> Geometry <==

    Molecular point group: c1
    Full point group: C1

    Geometry (in Angstrom), charge = 0, multiplicity = 1:

       Center              X                  Y                   Z               Mass       
    ------------   -----------------  -----------------  -----------------  -----------------
         S            1.377770228006     0.002410657614    -0.218756299753    31.972071174400
         C            0.319972228006    -1.320208342386     0.438477700247    12.000000000000
         C           -1.060630771994    -1.227472342386    -0.144651299753    12.000000000000
         C           -1.711739771994    -0.044418342386    -0.163698299753    12.000000000000
         C           -1.051374771994     1.202061657614     0.183365700247    12.000000000000
         C            0.173213328006     1.488117957614     0.158757700247    12.000000000000
         H            0.295212228006    -1.233462342386     1.532139700247     1.007825032230
         H            0.806979228006    -2.263396342386     0.179872700247     1.007825032230
         H           -1.544531771994    -2.138113342386    -0.488998299753     1.007825032230
         H           -2.738134771994     0.003878657614    -0.520465299753     1.007825032230
         H           -1.652286771994     2.084489657614     0.388719700247     1.007825032230
         H            0.781016228006     2.302299657614     0.225501700247     1.007825032230

  Running in c1 symmetry.

  Rotational constants: A =      0.15036  B =      0.11504  C =      0.06958 [cm^-1]
  Rotational constants: A =   4507.80041  B =   3448.91167  C =   2085.89966 [MHz]
  Nuclear repulsion =  270.008190313934676

  Charge       = 0
  Multiplicity = 1
  Electrons    = 52
  Nalpha       = 26
  Nbeta        = 26

  ==> Algorithm <==

  SCF Algorithm Type is DF.
  DIIS enabled.
  MOM disabled.
  Fractional occupation disabled.
  Guess Type is SAD.
  Energy threshold   = 1.00e-10
  Density threshold  = 1.00e-10
  Integral threshold = 0.00e+00

  ==> Primary Basis <==

  Basis Set: AUG-CC-PVTZ
    Blend: AUG-CC-PVTZ
    Number of shells: 140
    Number of basis function: 418
    Number of Cartesian functions: 484
    Spherical Harmonics?: true
    Max angular momentum: 3

   => Loading Basis Set <=

    Name: (AUG-CC-PVTZ AUX)
    Role: JKFIT
    Keyword: DF_BASIS_SCF
    atoms 1    entry S          line   730 file /home/xy3866/psi4conda/share/psi4/basis/aug-cc-pvtz-jkfit.gbs 
    atoms 2-6  entry C          line   162 file /home/xy3866/psi4conda/share/psi4/basis/aug-cc-pvtz-jkfit.gbs 
    atoms 7-12 entry H          line    70 file /home/xy3866/psi4conda/share/psi4/basis/aug-cc-pvtz-jkfit.gbs 

  ==> Pre-Iterations <==

   -------------------------------------------------------
    Irrep   Nso     Nmo     Nalpha   Nbeta   Ndocc  Nsocc
   -------------------------------------------------------
     A        418     418       0       0       0       0
   -------------------------------------------------------
    Total     418     418      26      26      26       0
   -------------------------------------------------------

  ==> Integral Setup <==

  DFHelper Memory: AOs need 1.267 GiB; user supplied 22.352 GiB. Using in-core AOs.

  ==> MemDFJK: Density-Fitted J/K Matrices <==

    J tasked:                   Yes
    K tasked:                   Yes
    wK tasked:                   No
    OpenMP threads:               8
    Memory [MiB]:             22888
    Algorithm:                 Core
    Schwarz Cutoff:           1E-12
    Mask sparsity (%):       0.9054
    Fitting Condition:        1E-10

   => Auxiliary Basis Set <=

  Basis Set: (AUG-CC-PVTZ AUX)
    Blend: AUG-CC-PVTZ-JKFIT
    Number of shells: 276
    Number of basis function: 942
    Number of Cartesian functions: 1165
    Spherical Harmonics?: true
    Max angular momentum: 4

  Minimum eigenvalue in the overlap matrix is 3.4864103754E-06.
  Using Symmetric Orthogonalization.

  SCF Guess: Superposition of Atomic Densities via on-the-fly atomic UHF.

  ==> Iterations <==

                           Total Energy        Delta E     RMS |[F,P]|

   @DF-RHF iter SAD:  -589.87735680680521   -5.89877e+02   0.00000e+00 
   @DF-RHF iter   1:  -590.18641747568722   -3.09061e-01   1.31990e-03 DIIS
   @DF-RHF iter   2:  -590.32831566697087   -1.41898e-01   7.17913e-04 DIIS
   @DF-RHF iter   3:  -590.37609729675103   -4.77816e-02   1.35754e-04 DIIS
   @DF-RHF iter   4:  -590.37948075002043   -3.38345e-03   3.81640e-05 DIIS
   @DF-RHF iter   5:  -590.37981515258821   -3.34403e-04   1.33976e-05 DIIS
   @DF-RHF iter   6:  -590.37986597015924   -5.08176e-05   6.49826e-06 DIIS
   @DF-RHF iter   7:  -590.37988083749656   -1.48673e-05   2.07586e-06 DIIS
   @DF-RHF iter   8:  -590.37988269316361   -1.85567e-06   8.19004e-07 DIIS
   @DF-RHF iter   9:  -590.37988292792056   -2.34757e-07   3.06580e-07 DIIS
   @DF-RHF iter  10:  -590.37988296621086   -3.82903e-08   1.16116e-07 DIIS
   @DF-RHF iter  11:  -590.37988297156414   -5.35329e-09   6.07438e-08 DIIS
   @DF-RHF iter  12:  -590.37988297279560   -1.23146e-09   1.90348e-08 DIIS
   @DF-RHF iter  13:  -590.37988297295044   -1.54841e-10   6.41026e-09 DIIS
   @DF-RHF iter  14:  -590.37988297296999   -1.95541e-11   2.23344e-09 DIIS
   @DF-RHF iter  15:  -590.37988297297068   -6.82121e-13   9.43606e-10 DIIS
   @DF-RHF iter  16:  -590.37988297297045    2.27374e-13   4.03893e-10 DIIS
   @DF-RHF iter  17:  -590.37988297296909    1.36424e-12   1.64779e-10 DIIS
   @DF-RHF iter  18:  -590.37988297297090   -1.81899e-12   7.63946e-11 DIIS
  Energy and wave function converged.


  ==> Post-Iterations <==

    Orbital Energies [Eh]
    ---------------------

    Doubly Occupied:                                                      

       1A    -91.949078     2A    -11.264286     3A    -11.264057  
       4A    -11.250554     5A    -11.243838     6A    -11.237481  
       7A     -8.947822     8A     -6.628840     9A     -6.628006  
      10A     -6.627144    11A     -1.142664    12A     -1.047614  
      13A     -1.001713    14A     -0.851047    15A     -0.825960  
      16A     -0.715353    17A     -0.683235    18A     -0.628078  
      19A     -0.603648    20A     -0.579208    21A     -0.536592  
      22A     -0.474536    23A     -0.464796    24A     -0.416536  
      25A     -0.353045    26A     -0.318609  

    Virtual:                                                              

      27A      0.028361    28A      0.032921    29A      0.038071  
      30A      0.045478    31A      0.051123    32A      0.053976  
      33A      0.077161    34A      0.091042    35A      0.097514  
      36A      0.100410    37A      0.107784    38A      0.114657  
      39A      0.118492    40A      0.120997    41A      0.126759  
      42A      0.128452    43A      0.129806    44A      0.137320  
      45A      0.137681    46A      0.146710    47A      0.148346  
      48A      0.152941    49A      0.158083    50A      0.163567  
      51A      0.163764    52A      0.171630    53A      0.191818  
      54A      0.204216    55A      0.223883    56A      0.228405  
      57A      0.245705    58A      0.254288    59A      0.260360  
      60A      0.274116    61A      0.278115    62A      0.284988  
      63A      0.291063    64A      0.295181    65A      0.303146  
      66A      0.311370    67A      0.317073    68A      0.322251  
      69A      0.328535    70A      0.336863    71A      0.339471  
      72A      0.345872    73A      0.355104    74A      0.358649  
      75A      0.370204    76A      0.371726    77A      0.380254  
      78A      0.380984    79A      0.392468    80A      0.399035  
      81A      0.408374    82A      0.416246    83A      0.420397  
      84A      0.422935    85A      0.432119    86A      0.437995  
      87A      0.445538    88A      0.452225    89A      0.452725  
      90A      0.466142    91A      0.471193    92A      0.475921  
      93A      0.489178    94A      0.499208    95A      0.506294  
      96A      0.508510    97A      0.512116    98A      0.519798  
      99A      0.520331   100A      0.529384   101A      0.535347  
     102A      0.543998   103A      0.556124   104A      0.559845  
     105A      0.574970   106A      0.583542   107A      0.589503  
     108A      0.597270   109A      0.615697   110A      0.622376  
     111A      0.636077   112A      0.641246   113A      0.654201  
     114A      0.671122   115A      0.673162   116A      0.696346  
     117A      0.703500   118A      0.731233   119A      0.732856  
     120A      0.751279   121A      0.760878   122A      0.766470  
     123A      0.778630   124A      0.789938   125A      0.792341  
     126A      0.797083   127A      0.805197   128A      0.820143  
     129A      0.832290   130A      0.841541   131A      0.850681  
     132A      0.856064   133A      0.868841   134A      0.873615  
     135A      0.882442   136A      0.886944   137A      0.890985  
     138A      0.897603   139A      0.920433   140A      0.932772  
     141A      0.935529   142A      0.940317   143A      0.953769  
     144A      0.961582   145A      0.968433   146A      0.978888  
     147A      0.994769   148A      0.999561   149A      1.003169  
     150A      1.005686   151A      1.012150   152A      1.023575  
     153A      1.033469   154A      1.044444   155A      1.054464  
     156A      1.062407   157A      1.069025   158A      1.078016  
     159A      1.086775   160A      1.092054   161A      1.101929  
     162A      1.107442   163A      1.111053   164A      1.133458  
     165A      1.138108   166A      1.148788   167A      1.159751  
     168A      1.169447   169A      1.170677   170A      1.182409  
     171A      1.187502   172A      1.192997   173A      1.202576  
     174A      1.212095   175A      1.218909   176A      1.227857  
     177A      1.242697   178A      1.248821   179A      1.256105  
     180A      1.268670   181A      1.272797   182A      1.286723  
     183A      1.292255   184A      1.309001   185A      1.322842  
     186A      1.331794   187A      1.351901   188A      1.366867  
     189A      1.378176   190A      1.383844   191A      1.411443  
     192A      1.425270   193A      1.430636   194A      1.445277  
     195A      1.448762   196A      1.477917   197A      1.492740  
     198A      1.495706   199A      1.512328   200A      1.521963  
     201A      1.537885   202A      1.559338   203A      1.567679  
     204A      1.592855   205A      1.602896   206A      1.613720  
     207A      1.641385   208A      1.654351   209A      1.676115  
     210A      1.683693   211A      1.692759   212A      1.709176  
     213A      1.731492   214A      1.747659   215A      1.751133  
     216A      1.765225   217A      1.782865   218A      1.807464  
     219A      1.808973   220A      1.820802   221A      1.835377  
     222A      1.841377   223A      1.857530   224A      1.876088  
     225A      1.885907   226A      1.896342   227A      1.906818  
     228A      1.917745   229A      1.944269   230A      1.951638  
     231A      1.967119   232A      1.975724   233A      1.992217  
     234A      2.006906   235A      2.016237   236A      2.024762  
     237A      2.046620   238A      2.054964   239A      2.062622  
     240A      2.074128   241A      2.096361   242A      2.124195  
     243A      2.140279   244A      2.146051   245A      2.189790  
     246A      2.201411   247A      2.212422   248A      2.233461  
     249A      2.244087   250A      2.268669   251A      2.284409  
     252A      2.314029   253A      2.322517   254A      2.340567  
     255A      2.349413   256A      2.374495   257A      2.395981  
     258A      2.404661   259A      2.430474   260A      2.441470  
     261A      2.479304   262A      2.492874   263A      2.508203  
     264A      2.516730   265A      2.529825   266A      2.579472  
     267A      2.607921   268A      2.613670   269A      2.619126  
     270A      2.673555   271A      2.686564   272A      2.712580  
     273A      2.741325   274A      2.768735   275A      2.792888  
     276A      2.848845   277A      2.911281   278A      2.939039  
     279A      2.971185   280A      2.996082   281A      3.021787  
     282A      3.056017   283A      3.112061   284A      3.151552  
     285A      3.163654   286A      3.203324   287A      3.263811  
     288A      3.294139   289A      3.301999   290A      3.330282  
     291A      3.368079   292A      3.389956   293A      3.393060  
     294A      3.423067   295A      3.454684   296A      3.473108  
     297A      3.478268   298A      3.516884   299A      3.531211  
     300A      3.544474   301A      3.561424   302A      3.574230  
     303A      3.578171   304A      3.603252   305A      3.622557  
     306A      3.636539   307A      3.661045   308A      3.690401  
     309A      3.703540   310A      3.723262   311A      3.747655  
     312A      3.754759   313A      3.773145   314A      3.795241  
     315A      3.807868   316A      3.816151   317A      3.827229  
     318A      3.842887   319A      3.853908   320A      3.862663  
     321A      3.883973   322A      3.898614   323A      3.914751  
     324A      3.942301   325A      3.951206   326A      3.987686  
     327A      4.005139   328A      4.014556   329A      4.028409  
     330A      4.051777   331A      4.065929   332A      4.091366  
     333A      4.106729   334A      4.119699   335A      4.138636  
     336A      4.169071   337A      4.190079   338A      4.211590  
     339A      4.216589   340A      4.223559   341A      4.247629  
     342A      4.264353   343A      4.291267   344A      4.309834  
     345A      4.332840   346A      4.363764   347A      4.366906  
     348A      4.377363   349A      4.381971   350A      4.403938  
     351A      4.420965   352A      4.432338   353A      4.450759  
     354A      4.476721   355A      4.496678   356A      4.531357  
     357A      4.554719   358A      4.581012   359A      4.604312  
     360A      4.681960   361A      4.712069   362A      4.762099  
     363A      4.787594   364A      4.812329   365A      4.839148  
     366A      4.892690   367A      4.905718   368A      4.928988  
     369A      4.983710   370A      4.988408   371A      5.008855  
     372A      5.039005   373A      5.057792   374A      5.088884  
     375A      5.112911   376A      5.153068   377A      5.161274  
     378A      5.172690   379A      5.191410   380A      5.207873  
     381A      5.215041   382A      5.266064   383A      5.278370  
     384A      5.300888   385A      5.335155   386A      5.354351  
     387A      5.393290   388A      5.451080   389A      5.475988  
     390A      5.497372   391A      5.509489   392A      5.557709  
     393A      5.583984   394A      5.644695   395A      5.713555  
     396A      5.762919   397A      5.812859   398A      5.914807  
     399A      5.975513   400A      5.988241   401A      6.037541  
     402A      6.056665   403A      6.104735   404A      6.169826  
     405A      6.236497   406A      6.453470   407A      6.507210  
     408A      6.617398   409A      6.745911   410A      6.794170  
     411A      6.988371   412A      7.087586   413A      7.605250  
     414A     16.483735   415A     17.096717   416A     18.284834  
     417A     18.823527   418A     19.343695  

    Final Occupation by Irrep:
              A 
    DOCC [    26 ]

  @DF-RHF Final Energy:  -590.37988297297090

   => Energetics <=

    Nuclear Repulsion Energy =            270.0081903139346764
    One-Electron Energy =               -1345.4086697515449487
    Two-Electron Energy =                 485.0205964646394250
    Total Energy =                       -590.3798829729709041

Computation Completed

*** tstop() called on node56.bme.utexas.edu at Tue Feb  2 11:07:05 2021
Module time:
	user time   =      64.63 seconds =       1.08 minutes
	system time =       2.09 seconds =       0.03 minutes
	total time  =          9 seconds =       0.15 minutes
Total time:
	user time   =      64.63 seconds =       1.08 minutes
	system time =       2.09 seconds =       0.03 minutes
	total time  =          9 seconds =       0.15 minutes
   => Loading Basis Set <=

    Name: (AUG-CC-PVTZ AUX)
    Role: RIFIT
    Keyword: DF_BASIS_MP2
    atoms 1    entry S          line   666 file /home/xy3866/psi4conda/share/psi4/basis/aug-cc-pvtz-ri.gbs 
    atoms 2-6  entry C          line   148 file /home/xy3866/psi4conda/share/psi4/basis/aug-cc-pvtz-ri.gbs 
    atoms 7-12 entry H          line    30 file /home/xy3866/psi4conda/share/psi4/basis/aug-cc-pvtz-ri.gbs 


*** tstart() called on node56.bme.utexas.edu
*** at Tue Feb  2 11:07:05 2021


  //>>>>>>>>>>>>>>>>>>>>>>>>>>>>>>>>>>>//
  //               DFMP2               //
  //<<<<<<<<<<<<<<<<<<<<<<<<<<<<<<<<<<<//

	 --------------------------------------------------------
	                          DF-MP2                         
	      2nd-Order Density-Fitted Moller-Plesset Theory     
	              RMP2 Wavefunction,   8 Threads             
	                                                         
	        Rob Parrish, Justin Turney, Andy Simmonett,      
	           Ed Hohenstein, and C. David Sherrill          
	 --------------------------------------------------------

   => Auxiliary Basis Set <=

  Basis Set: (AUG-CC-PVTZ AUX)
    Blend: AUG-CC-PVTZ-RI
    Number of shells: 261
    Number of basis function: 953
    Number of Cartesian functions: 1201
    Spherical Harmonics?: true
    Max angular momentum: 4

	 --------------------------------------------------------
	                 NBF =   418, NAUX =   953
	 --------------------------------------------------------
	   CLASS    FOCC     OCC    AOCC    AVIR     VIR    FVIR
	   PAIRS       0      26      26     392     392       0
	 --------------------------------------------------------

  DFHelper Memory: AOs need 1.267 GiB; user supplied 22.352 GiB. Using in-core AOs.


         ------------------------------------------------------------
                                     CPHF                           
                                  Rob Parrish                       
         ------------------------------------------------------------

  ==> Geometry <==

    Molecular point group: c1
    Full point group: C1

    Geometry (in Angstrom), charge = 0, multiplicity = 1:

       Center              X                  Y                   Z               Mass       
    ------------   -----------------  -----------------  -----------------  -----------------
         S            1.377770228006     0.002410657614    -0.218756299753    31.972071174400
         C            0.319972228006    -1.320208342386     0.438477700247    12.000000000000
         C           -1.060630771994    -1.227472342386    -0.144651299753    12.000000000000
         C           -1.711739771994    -0.044418342386    -0.163698299753    12.000000000000
         C           -1.051374771994     1.202061657614     0.183365700247    12.000000000000
         C            0.173213328006     1.488117957614     0.158757700247    12.000000000000
         H            0.295212228006    -1.233462342386     1.532139700247     1.007825032230
         H            0.806979228006    -2.263396342386     0.179872700247     1.007825032230
         H           -1.544531771994    -2.138113342386    -0.488998299753     1.007825032230
         H           -2.738134771994     0.003878657614    -0.520465299753     1.007825032230
         H           -1.652286771994     2.084489657614     0.388719700247     1.007825032230
         H            0.781016228006     2.302299657614     0.225501700247     1.007825032230

  Nuclear repulsion =  270.008190313934676
  Reference energy  = -590.379882972970904

  ==> Basis Set <==

  Basis Set: AUG-CC-PVTZ
    Blend: AUG-CC-PVTZ
    Number of shells: 140
    Number of basis function: 418
    Number of Cartesian functions: 484
    Spherical Harmonics?: true
    Max angular momentum: 3

  ==> CGRSolver (by Rob Parrish) <==

   Number of roots    =         1
   Preconditioning    =    JACOBI
   Convergence cutoff =     1E-06
   Maximum iterations =       100

  ==> CPHFRHamiltonian (by Rob Parrish) <== 

  ==> MemDFJK: Density-Fitted J/K Matrices <==

    J tasked:                   Yes
    K tasked:                   Yes
    wK tasked:                   No
    OpenMP threads:               8
    Memory [MiB]:             22888
    Algorithm:                 Core
    Schwarz Cutoff:           1E-12
    Mask sparsity (%):       0.9054
    Fitting Condition:        1E-10

   => Auxiliary Basis Set <=

  Basis Set: (AUG-CC-PVTZ AUX)
    Blend: AUG-CC-PVTZ-JKFIT
    Number of shells: 276
    Number of basis function: 942
    Number of Cartesian functions: 1165
    Spherical Harmonics?: true
    Max angular momentum: 4

  ==> CPHF Iterations <==

  => Iterations <=

             Iter  Converged  Remaining    Residual
  CGR           1          0          1   1.166E-01
  CGR           2          0          1   2.669E-02
  CGR           3          0          1   1.151E-02
  CGR           4          0          1   3.830E-03
  CGR           5          0          1   1.673E-03
  CGR           6          0          1   6.258E-04
  CGR           7          0          1   2.332E-04
  CGR           8          0          1   9.099E-05
  CGR           9          0          1   3.133E-05
  CGR          10          0          1   1.251E-05
  CGR          11          0          1   4.583E-06
  CGR          12          0          1   1.444E-06
  CGR          13          1          0   6.720E-07

    CGRSolver converged.

	-----------------------------------------------------------
	 ==================> DF-MP2 Energies <==================== 
	-----------------------------------------------------------
	 Reference Energy          =    -590.3798829729709041 [Eh]
	 Singles Energy            =      -0.0000000000000000 [Eh]
	 Same-Spin Energy          =      -0.2655464712659850 [Eh]
	 Opposite-Spin Energy      =      -0.8608489303067764 [Eh]
	 Correlation Energy        =      -1.1263954015727613 [Eh]
	 Total Energy              =    -591.5062783745436263 [Eh]
	-----------------------------------------------------------
	 ================> DF-SCS-MP2 Energies <================== 
	-----------------------------------------------------------
	 SCS Same-Spin Scale       =       0.3333333333333333 [-]
	 SCS Opposite-Spin Scale   =       1.2000000000000000 [-]
	 SCS Same-Spin Energy      =      -0.0885154904219950 [Eh]
	 SCS Opposite-Spin Energy  =      -1.0330187163681317 [Eh]
	 SCS Correlation Energy    =      -1.1215342067901266 [Eh]
	 SCS Total Energy          =    -591.5014171797610061 [Eh]
	-----------------------------------------------------------



Properties will be evaluated at  -0.000000,  -0.000000,  -0.000000 [a0]

Properties computed using the MP2 density matrix

  Nuclear Dipole Moment: [e a0]
     X:    -3.7620      Y:    -1.1664      Z:     1.2287

  Electronic Dipole Moment: [e a0]
     X:     3.2111      Y:     1.1266      Z:    -1.0086

  Dipole Moment: [e a0]
     X:    -0.5510      Y:    -0.0398      Z:     0.2200     Total:     0.5946

  Dipole Moment: [D]
     X:    -1.4004      Y:    -0.1012      Z:     0.5593     Total:     1.5113


*** tstop() called on node56.bme.utexas.edu at Tue Feb  2 11:07:34 2021
Module time:
	user time   =     194.67 seconds =       3.24 minutes
	system time =       4.57 seconds =       0.08 minutes
	total time  =         29 seconds =       0.48 minutes
Total time:
	user time   =     260.06 seconds =       4.33 minutes
	system time =       6.71 seconds =       0.11 minutes
	total time  =         38 seconds =       0.63 minutes

    Psi4 stopped on: Tuesday, 02 February 2021 11:07AM
    Psi4 wall time for execution: 0:00:38.73

*** Psi4 exiting successfully. Buy a developer a beer!
