106_Ethanimine Gaussian SP Calculation on node35.bme.utexas.edu         
Freq      RMP2-FC                                                     6-31G(d)            
Number of atoms                            I                8
Info1-9                                    I   N=           9
          19          18        1002           0           0         100
           6           2           1
Charge                                     I                0
Multiplicity                               I                1
Number of electrons                        I               24
Number of alpha electrons                  I               12
Number of beta electrons                   I               12
Number of basis functions                  I               55
Number of independent functions            I               55
Number of point charges in /Mol/           I                0
Number of translation vectors              I                0
Atomic numbers                             I   N=           8
           7           6           6           1           1           1
           1           1
Nuclear charges                            R   N=           8
  7.00000000E+00  6.00000000E+00  6.00000000E+00  1.00000000E+00  1.00000000E+00
  1.00000000E+00  1.00000000E+00  1.00000000E+00
Current cartesian coordinates              R   N=          24
 -2.28110945E+00 -6.79109105E-01  1.39950013E-05  2.27314534E+00 -2.71057434E-01
  2.31930500E-05 -3.48018365E-01  7.87828533E-01 -4.53366377E-05  2.17868675E+00
 -2.33062566E+00  1.10044777E-04  3.31775649E+00  3.72005678E-01  1.66641877E+00
  3.31777395E+00  3.71862354E-01 -1.66641638E+00 -4.91667348E-01  2.85933325E+00
 -8.24367415E-05 -3.90554553E+00  3.80561522E-01  4.90350483E-06
Force Field                                I                0
Int Atom Types                             I   N=           8
           0           0           0           0           0           0
           0           0
MM charges                                 R   N=           8
  0.00000000E+00  0.00000000E+00  0.00000000E+00  0.00000000E+00  0.00000000E+00
  0.00000000E+00  0.00000000E+00  0.00000000E+00
Integer atomic weights                     I   N=           8
          14          12          12           1           1           1
           1           1
Real atomic weights                        R   N=           8
  1.40030740E+01  1.20000000E+01  1.20000000E+01  1.00782504E+00  1.00782504E+00
  1.00782504E+00  1.00782504E+00  1.00782504E+00
Atom fragment info                         I   N=           8
           0           0           0           0           0           0
           0           0
Atom residue num                           I   N=           8
           0           0           0           0           0           0
           0           0
Nuclear spins                              I   N=           8
           2           0           0           1           1           1
           1           1
Nuclear ZEff                               R   N=           8
 -4.55000000E+00 -3.60000000E+00 -3.60000000E+00 -1.00000000E+00 -1.00000000E+00
 -1.00000000E+00 -1.00000000E+00 -1.00000000E+00
Nuclear QMom                               R   N=           8
  2.04400000E+00  0.00000000E+00  0.00000000E+00  0.00000000E+00  0.00000000E+00
  0.00000000E+00  0.00000000E+00  0.00000000E+00
Nuclear GFac                               R   N=           8
  4.03761000E-01  0.00000000E+00  0.00000000E+00  2.79284600E+00  2.79284600E+00
  2.79284600E+00  2.79284600E+00  2.79284600E+00
MicOpt                                     I   N=           8
          -1          -1          -1          -1          -1          -1
          -1          -1
Number of contracted shells                I               22
Number of primitive shells                 I               53
Pure/Cartesian d shells                    I                1
Pure/Cartesian f shells                    I                0
Highest angular momentum                   I                2
Largest degree of contraction              I                6
Shell types                                I   N=          22
           0          -1          -1           2           0          -1
          -1           2           0          -1          -1           2
           0           0           0           0           0           0
           0           0           0           0
Number of primitives per shell             I   N=          22
           6           3           1           1           6           3
           1           1           6           3           1           1
           3           1           3           1           3           1
           3           1           3           1
Shell to atom map                          I   N=          22
           1           1           1           1           2           2
           2           2           3           3           3           3
           4           4           5           5           6           6
           7           7           8           8
Primitive exponents                        R   N=          53
  4.17351146E+03  6.27457911E+02  1.42902093E+02  4.02343293E+01  1.28202129E+01
  4.39043701E+00  1.16263619E+01  2.71627981E+00  7.72218397E-01  2.12031498E-01
  8.00000000E-01  3.04752488E+03  4.57369518E+02  1.03948685E+02  2.92101553E+01
  9.28666296E+00  3.16392696E+00  7.86827235E+00  1.88128854E+00  5.44249258E-01
  1.68714478E-01  8.00000000E-01  3.04752488E+03  4.57369518E+02  1.03948685E+02
  2.92101553E+01  9.28666296E+00  3.16392696E+00  7.86827235E+00  1.88128854E+00
  5.44249258E-01  1.68714478E-01  8.00000000E-01  1.87311370E+01  2.82539436E+00
  6.40121692E-01  1.61277759E-01  1.87311370E+01  2.82539436E+00  6.40121692E-01
  1.61277759E-01  1.87311370E+01  2.82539436E+00  6.40121692E-01  1.61277759E-01
  1.87311370E+01  2.82539436E+00  6.40121692E-01  1.61277759E-01  1.87311370E+01
  2.82539436E+00  6.40121692E-01  1.61277759E-01
Contraction coefficients                   R   N=          53
  1.83477216E-03  1.39946270E-02  6.85865518E-02  2.32240873E-01  4.69069948E-01
  3.60455199E-01 -1.14961182E-01 -1.69117479E-01  1.14585195E+00  1.00000000E+00
  1.00000000E+00  1.83473713E-03  1.40373228E-02  6.88426223E-02  2.32184443E-01
  4.67941348E-01  3.62311985E-01 -1.19332420E-01 -1.60854152E-01  1.14345644E+00
  1.00000000E+00  1.00000000E+00  1.83473713E-03  1.40373228E-02  6.88426223E-02
  2.32184443E-01  4.67941348E-01  3.62311985E-01 -1.19332420E-01 -1.60854152E-01
  1.14345644E+00  1.00000000E+00  1.00000000E+00  3.34946043E-02  2.34726953E-01
  8.13757326E-01  1.00000000E+00  3.34946043E-02  2.34726953E-01  8.13757326E-01
  1.00000000E+00  3.34946043E-02  2.34726953E-01  8.13757326E-01  1.00000000E+00
  3.34946043E-02  2.34726953E-01  8.13757326E-01  1.00000000E+00  3.34946043E-02
  2.34726953E-01  8.13757326E-01  1.00000000E+00
P(S=P) Contraction coefficients            R   N=          53
  0.00000000E+00  0.00000000E+00  0.00000000E+00  0.00000000E+00  0.00000000E+00
  0.00000000E+00  6.75797439E-02  3.23907296E-01  7.40895140E-01  1.00000000E+00
  0.00000000E+00  0.00000000E+00  0.00000000E+00  0.00000000E+00  0.00000000E+00
  0.00000000E+00  0.00000000E+00  6.89990666E-02  3.16423961E-01  7.44308291E-01
  1.00000000E+00  0.00000000E+00  0.00000000E+00  0.00000000E+00  0.00000000E+00
  0.00000000E+00  0.00000000E+00  0.00000000E+00  6.89990666E-02  3.16423961E-01
  7.44308291E-01  1.00000000E+00  0.00000000E+00  0.00000000E+00  0.00000000E+00
  0.00000000E+00  0.00000000E+00  0.00000000E+00  0.00000000E+00  0.00000000E+00
  0.00000000E+00  0.00000000E+00  0.00000000E+00  0.00000000E+00  0.00000000E+00
  0.00000000E+00  0.00000000E+00  0.00000000E+00  0.00000000E+00  0.00000000E+00
  0.00000000E+00  0.00000000E+00  0.00000000E+00
Coordinates of each shell                  R   N=          66
 -2.28110945E+00 -6.79109105E-01  1.39950013E-05 -2.28110945E+00 -6.79109105E-01
  1.39950013E-05 -2.28110945E+00 -6.79109105E-01  1.39950013E-05 -2.28110945E+00
 -6.79109105E-01  1.39950013E-05  2.27314534E+00 -2.71057434E-01  2.31930500E-05
  2.27314534E+00 -2.71057434E-01  2.31930500E-05  2.27314534E+00 -2.71057434E-01
  2.31930500E-05  2.27314534E+00 -2.71057434E-01  2.31930500E-05 -3.48018365E-01
  7.87828533E-01 -4.53366377E-05 -3.48018365E-01  7.87828533E-01 -4.53366377E-05
 -3.48018365E-01  7.87828533E-01 -4.53366377E-05 -3.48018365E-01  7.87828533E-01
 -4.53366377E-05  2.17868675E+00 -2.33062566E+00  1.10044777E-04  2.17868675E+00
 -2.33062566E+00  1.10044777E-04  3.31775649E+00  3.72005678E-01  1.66641877E+00
  3.31775649E+00  3.72005678E-01  1.66641877E+00  3.31777395E+00  3.71862354E-01
 -1.66641638E+00  3.31777395E+00  3.71862354E-01 -1.66641638E+00 -4.91667348E-01
  2.85933325E+00 -8.24367415E-05 -4.91667348E-01  2.85933325E+00 -8.24367415E-05
 -3.90554553E+00  3.80561522E-01  4.90350483E-06 -3.90554553E+00  3.80561522E-01
  4.90350483E-06
Constraint Structure                       R   N=          24
 -2.28110945E+00 -6.79109105E-01  1.39950013E-05  2.27314534E+00 -2.71057434E-01
  2.31930500E-05 -3.48018365E-01  7.87828533E-01 -4.53366377E-05  2.17868675E+00
 -2.33062566E+00  1.10044777E-04  3.31775649E+00  3.72005678E-01  1.66641877E+00
  3.31777395E+00  3.71862354E-01 -1.66641638E+00 -4.91667348E-01  2.85933325E+00
 -8.24367415E-05 -3.90554553E+00  3.80561522E-01  4.90350483E-06
Num ILSW                                   I              100
ILSW                                       I   N=         100
           0           1           0           0           2           0
           0           0           0           0           0          -1
           0           0           0           0           0           0
           0           0           0           0           1           0
           1           0           0           0           0           0
           0           0      100000           0          -1           0
           0           0           0           0           0           0
           0           0           0           1           1           0
           0           0           1           0           0           0
           0           0           4          40           0           0
           0           0           0           0           0           0
           0           0           0           0           0           0
           0           0           0           0           0           0
           0           0           0           0           0           0
           0           0           0           0           0           0
           0           0           0           0           0           0
           0           0           0           0
Num RLSW                                   I               40
RLSW                                       R   N=          40
  1.00000000E+00  1.00000000E+00  1.00000000E+00  1.00000000E+00  1.00000000E+00
  0.00000000E+00  0.00000000E+00  1.00000000E+00  0.00000000E+00  0.00000000E+00
  0.00000000E+00  0.00000000E+00  1.00000000E+00  0.00000000E+00  0.00000000E+00
  0.00000000E+00  0.00000000E+00  1.00000000E+00  0.00000000E+00  0.00000000E+00
  0.00000000E+00  0.00000000E+00  1.00000000E+00  0.00000000E+00  0.00000000E+00
  0.00000000E+00  0.00000000E+00  1.00000000E+00  0.00000000E+00  0.00000000E+00
  0.00000000E+00  0.00000000E+00  0.00000000E+00  0.00000000E+00  0.00000000E+00
  0.00000000E+00  0.00000000E+00  0.00000000E+00  1.00000000E+00  1.00000000E+00
MxBond                                     I                4
NBond                                      I   N=           8
           2           4           3           1           1           1
           1           1
IBond                                      I   N=          32
           3           8           0           0           3           4
           5           6           1           2           7           0
           2           0           0           0           2           0
           0           0           2           0           0           0
           3           0           0           0           1           0
           0           0
RBond                                      R   N=          32
  2.00000000E+00  1.00000000E+00  0.00000000E+00  0.00000000E+00  1.00000000E+00
  1.00000000E+00  1.00000000E+00  1.00000000E+00  2.00000000E+00  1.00000000E+00
  1.00000000E+00  0.00000000E+00  1.00000000E+00  0.00000000E+00  0.00000000E+00
  0.00000000E+00  1.00000000E+00  0.00000000E+00  0.00000000E+00  0.00000000E+00
  1.00000000E+00  0.00000000E+00  0.00000000E+00  0.00000000E+00  1.00000000E+00
  0.00000000E+00  0.00000000E+00  0.00000000E+00  1.00000000E+00  0.00000000E+00
  0.00000000E+00  0.00000000E+00
Virial Ratio                               R      2.002503682866917E+00
SCF Energy                                 R     -1.330717017292057E+02
MP2 Energy                                 R     -1.334910561320194E+02
Total Energy                               R     -1.334910561320194E+02
Post-SCF wavefunction norm                 R      1.511628123479974E+00
RMS Force                                  R      1.377829673666866E-06
RMS Density                                R      2.133211562901682E-10
External E-field                           R   N=          35
  0.00000000E+00  0.00000000E+00  0.00000000E+00  0.00000000E+00  0.00000000E+00
  0.00000000E+00  0.00000000E+00  0.00000000E+00  0.00000000E+00  0.00000000E+00
  0.00000000E+00  0.00000000E+00  0.00000000E+00  0.00000000E+00  0.00000000E+00
  0.00000000E+00  0.00000000E+00  0.00000000E+00  0.00000000E+00  0.00000000E+00
  0.00000000E+00  0.00000000E+00  0.00000000E+00  0.00000000E+00  0.00000000E+00
  0.00000000E+00  0.00000000E+00  0.00000000E+00  0.00000000E+00  0.00000000E+00
  0.00000000E+00  0.00000000E+00  0.00000000E+00  0.00000000E+00  0.00000000E+00
IOpCl                                      I                0
IROHF                                      I                0
Alpha Orbital Energies                     R   N=          55
 -1.55560933E+01 -1.12863966E+01 -1.12262948E+01 -1.20012933E+00 -9.89746394E-01
 -7.75754186E-01 -6.87469502E-01 -5.79190804E-01 -5.60572420E-01 -5.41642108E-01
 -4.19369743E-01 -4.19310346E-01  1.72212100E-01  2.38234094E-01  2.71815537E-01
  3.11860525E-01  3.17902333E-01  3.17961199E-01  4.20366292E-01  5.35906311E-01
  7.67507831E-01  7.69553248E-01  7.81905805E-01  8.31300775E-01  8.33021665E-01
  9.48933284E-01  9.89107525E-01  1.04036307E+00  1.04577232E+00  1.12168701E+00
  1.14471530E+00  1.17081078E+00  1.20671605E+00  1.23193622E+00  1.25233872E+00
  1.51498863E+00  1.54534478E+00  1.67326101E+00  1.78852818E+00  2.04217795E+00
  2.05064745E+00  2.11788436E+00  2.29747972E+00  2.36133334E+00  2.44743725E+00
  2.49808341E+00  2.64957322E+00  2.71615927E+00  2.81561023E+00  2.89835342E+00
  3.12792759E+00  3.17059042E+00  4.15461343E+00  4.52270903E+00  4.75688445E+00
Alpha MO coefficients                      R   N=        3025
  9.95144120E-01  2.44058849E-02  2.43358664E-04  1.92485066E-03 -6.58822818E-08
 -2.84421245E-03 -1.30705773E-04 -1.51168179E-03  4.66224168E-08 -2.95826672E-03
 -2.94300808E-03 -3.42518040E-03  2.65390475E-04 -1.02695478E-08 -1.83091074E-08
 -2.00842532E-06 -2.44208160E-05  5.14062984E-06 -7.69283015E-06 -5.89593800E-10
  1.09366697E-04  1.41824309E-04  2.54771755E-04 -1.07495243E-08 -2.43997693E-05
  2.99228116E-05 -1.02451119E-05 -5.30454610E-05  2.96642130E-09 -3.26015281E-09
  2.99802739E-05  2.75368736E-04  1.17001746E-04  8.88330536E-05 -4.27479907E-09
  1.95819149E-03 -9.50013811E-04 -3.21281222E-04  2.02212032E-08 -4.97113174E-04
 -2.51253996E-04 -3.75431674E-05 -3.02348577E-04  1.28315392E-08  9.20987211E-09
  2.50694490E-05  6.19514411E-05 -2.64033605E-06 -8.96040625E-05 -2.64080102E-06
 -8.96012033E-05 -9.35957243E-05 -2.10838867E-04  2.76509617E-04  7.79761647E-04
 -4.68224493E-04 -3.51541927E-08 -3.16993933E-05  6.25467066E-06  2.32208327E-09
  1.16170860E-03  2.95488024E-04 -2.18348852E-04  2.03488361E-08 -2.85389440E-04
 -2.83521338E-04  4.76827861E-05  2.41855004E-05  6.76536510E-09  1.65868484E-08
  5.50825779E-03  2.80045839E-04  1.39440198E-04 -2.78188550E-05  1.19742119E-10
  2.77265186E-03 -1.57263673E-03  5.00412104E-04 -9.58193792E-09 -4.75133644E-04
 -2.13129800E-04 -6.89805998E-05  1.68620470E-04 -1.25849242E-08  9.83593720E-09
  9.95661491E-01  2.68583187E-02 -3.03631457E-05 -1.20932790E-04  9.83353875E-09
 -9.97231083E-03 -1.43593330E-03  7.72887029E-05 -5.55583420E-08 -1.47826099E-03
 -1.73471007E-03 -2.45905884E-03  3.29583183E-04 -1.07739956E-08 -2.25873891E-08
 -7.47270841E-05  1.19444045E-05 -1.40994452E-04  3.58300828E-04 -1.40993192E-04
  3.58330560E-04 -1.46608831E-04  1.99707605E-03  1.59193202E-04  1.08517479E-04
 -1.81598762E-05 -1.67167182E-04 -6.85296556E-05  2.09910523E-05 -2.83919024E-10
  4.53711167E-04  2.84274781E-04  2.77785793E-04 -1.54833053E-08  3.14335965E-05
  2.15148833E-05 -1.38362023E-04  5.12471537E-05 -8.78235163E-10 -9.14094746E-09
  9.95693868E-01  2.86503904E-02 -1.11956221E-04  1.99656971E-04 -1.15520671E-08
 -1.54191590E-02  8.22372160E-04 -5.20741941E-04  4.01939554E-08 -1.88139424E-03
 -1.87728934E-03 -1.89749172E-03  3.87869210E-06 -3.69982276E-10 -1.85463306E-10
 -5.82119340E-03 -6.80266633E-05  1.98481503E-05  7.62915403E-05 -5.65922043E-09
  3.62295314E-03  2.16163733E-03 -6.59194583E-04  4.69445626E-08 -4.95854026E-04
 -1.90351822E-04 -1.44980465E-04  1.20081535E-04 -9.22815880E-09  4.19604457E-09
  1.58260340E-04  2.45985026E-03  1.36058363E-04  2.58279959E-03  1.36060905E-04
  2.58280812E-03 -1.23016724E-04  9.74610786E-05 -1.21026903E-05  2.31002080E-04
 -1.70861628E-01  3.53707273E-01  6.49203673E-02  1.14328250E-01 -3.44386982E-06
  3.45848304E-01  1.71393323E-02  4.92768771E-02 -1.41703983E-06  1.17901641E-02
  6.58312733E-03 -1.12608446E-02  3.54500540E-03 -3.84450392E-07 -5.55376994E-07
 -4.07892147E-02  7.47473462E-02 -4.23012913E-02  9.22311570E-03 -6.70717207E-07
  6.10942087E-02 -1.01631997E-02 -3.88425484E-03 -1.61381576E-07  8.70009021E-03
  4.79399840E-04 -7.45193704E-04 -2.67899501E-03  2.16020700E-07 -9.22221313E-08
 -1.31438657E-01  2.56395797E-01 -1.08708644E-01 -8.72622223E-02  4.14736208E-06
  1.14066795E-01  2.94063311E-03  1.99806004E-02 -4.44607799E-07  1.44122028E-02
  3.98502397E-03 -1.37586862E-02  1.59571700E-02 -6.28355632E-07 -6.97812070E-07
  2.03271249E-02 -5.95998886E-04  1.65357363E-02  9.27773625E-04  1.65357122E-02
  9.27459378E-04  4.86167903E-02 -4.36965475E-03  1.02123747E-01 -1.82527484E-03
  7.35111006E-02 -1.54664911E-01  4.85585461E-02 -4.51290401E-02  1.23126064E-06
 -1.72274622E-01  2.18035734E-02 -2.23859964E-02  5.20876320E-07 -3.56058494E-03
 -4.73141621E-03  5.37236454E-03  6.55378101E-03 -4.56509858E-09  3.09029409E-07
 -1.73628783E-01  3.23834357E-01 -2.61557858E-02  2.26774822E-02 -1.36500036E-06
  3.15182429E-01  1.63080196E-03  7.00496683E-03 -4.65448400E-07  7.25014032E-03
  8.19647581E-03  8.06403078E-03 -6.19840496E-04  1.08801363E-07 -3.72844254E-08
 -5.82129806E-02  1.17680274E-01  1.84395499E-01  8.97581937E-03  9.16320232E-07
  9.40466202E-02  3.28018903E-02  8.81528187E-03  2.85188166E-08  8.54208468E-03
  3.98044629E-03 -4.57953295E-03 -1.56278110E-02  8.46418131E-07 -2.92829295E-07
  1.05457639E-01  2.03522506E-02  1.13027247E-01  2.51276830E-02  1.13027264E-01
  2.51275109E-02  3.97961482E-02  6.48181795E-03 -7.93633993E-02 -1.24436783E-02
  7.11497902E-02 -1.53890670E-01  1.75701334E-01  5.20153288E-02 -3.11323830E-06
 -2.10123039E-01  8.86990527E-02  1.37467998E-02 -1.40382311E-06 -9.75903085E-03
  4.32265438E-03  3.79881185E-03  2.15727283E-02 -4.36495304E-07 -2.29872349E-07
  7.24457492E-02 -1.33310192E-01 -1.46423189E-01  9.38823461E-02 -4.61549934E-06
 -1.76101478E-01 -5.10339833E-02  2.55730626E-02 -1.78312336E-06  1.00101181E-02
 -8.56530529E-03 -1.04487082E-02 -1.31667661E-02  7.56289816E-07 -1.86032495E-07
 -1.32208983E-01  2.70439134E-01  1.50321696E-02  1.42735586E-01 -2.99549768E-06
  2.80315295E-01  1.25438849E-02  7.86914921E-02 -1.62679911E-06 -8.25111816E-03
  2.28367631E-02 -1.04253891E-02 -1.45853375E-03  9.66389000E-08 -7.39053245E-07
 -1.02943389E-01 -5.16633097E-02 -8.14249264E-02 -3.78003831E-02 -8.14251902E-02
 -3.78010189E-02  1.89097033E-01  8.47298505E-02 -1.25250349E-01 -4.74511931E-02
 -6.85094306E-03  1.97006021E-02  3.46724290E-01 -7.42640055E-02 -1.51254329E-06
 -1.17917509E-02  1.53851651E-01 -5.26479238E-02 -7.04647026E-08 -8.06047519E-04
 -1.11457836E-02  4.30635467E-03  3.02623262E-02 -8.14435566E-07  1.21651191E-07
  9.28997322E-03 -1.17425573E-02 -1.17909806E-01 -1.16327733E-01  1.77095092E-06
 -4.14021230E-02 -3.57948597E-02 -5.69701936E-02  1.55351488E-06  4.69831776E-03
  4.74900282E-03 -1.02121168E-02 -9.54856227E-04  1.23418251E-07 -8.96139817E-07
 -1.15055013E-02  3.30007260E-02 -5.62330410E-02 -3.32043826E-01  8.76648307E-06
  1.34973013E-02  1.71548671E-05 -1.21389026E-01  3.09430569E-06 -7.37145855E-04
 -9.03541804E-03 -1.19182755E-03  1.10770150E-02 -2.43995364E-07 -2.38247517E-07
  6.19368331E-02  3.06004048E-02 -6.19586730E-02 -3.98955345E-02 -6.19563382E-02
 -3.98936221E-02 -1.66143849E-01 -1.10493343E-01 -1.90483289E-01 -1.05471357E-01
  8.00041295E-07 -1.60194550E-06  6.70897119E-06  7.94851435E-06  1.03691352E-01
 -4.24072107E-06  3.59953865E-06  4.42649967E-06  6.79797239E-02 -2.46491878E-07
  9.58917801E-07 -5.80914440E-07  8.76977824E-07  6.63686397E-03  9.23632182E-03
 -1.70008570E-07  3.52399149E-07  1.77934989E-06  9.25959267E-06  4.12202788E-01
  4.81053508E-07  8.01019167E-07  4.71648712E-06  2.12839489E-01 -6.46424422E-07
  2.19440503E-06 -1.40295306E-06  1.21901996E-06  2.32710254E-02  2.11863439E-02
  5.78491039E-07 -1.10193164E-06 -9.68552704E-06  5.88555565E-06  1.48290830E-01
 -1.91170005E-06 -3.59973036E-06  2.93863692E-06  7.64270959E-02 -6.31848424E-07
 -5.49266417E-08  6.19928400E-07  5.52238905E-07  4.52427160E-03 -6.89519921E-03
  5.34446668E-06  3.70761492E-06  2.16588297E-01  1.72386588E-01 -2.16588405E-01
 -1.72386556E-01  1.75546603E-06  1.76796429E-06 -2.24748960E-06 -1.77008470E-06
 -3.10308189E-02  6.62862865E-02 -2.09563082E-01 -2.39352078E-01  1.41744049E-05
  1.51215232E-01 -1.20908134E-01 -1.30438457E-01  8.27651179E-06  1.29003685E-02
 -2.00953156E-02  2.91403462E-03 -2.21331669E-02  8.67392016E-07  1.46599163E-06
 -2.57890204E-04  1.01930438E-02 -3.14410960E-01  1.27912575E-01  1.16419144E-06
 -4.13485378E-02 -1.41953581E-01  6.19577109E-02  1.36200834E-06  1.47077075E-02
 -7.21016712E-03 -1.30652263E-02 -1.58805476E-02  1.50288552E-06 -3.25052545E-09
 -3.56545096E-03  3.21311483E-03  3.92740699E-01 -6.57674779E-02  7.73478664E-06
  4.89750939E-02  1.66174679E-01 -6.18839567E-02  4.78910736E-06  9.86815447E-03
 -7.32866770E-03  1.63340100E-03 -1.63084970E-02  8.88514538E-07 -1.35534624E-07
 -7.25618917E-02 -4.73144291E-02 -7.93186519E-02 -6.60107172E-02 -7.93278885E-02
 -6.60183404E-02 -5.85270795E-02 -4.36388709E-02  7.25617354E-02  6.06200487E-02
 -2.45963749E-02  5.88228679E-02  1.34359800E-01 -3.85549083E-02 -1.60545209E-06
  5.59666902E-02  5.55199471E-02 -3.14652026E-02 -5.11404255E-07 -6.16283068E-04
 -5.32341142E-03  2.35036757E-03  1.06922749E-02 -3.46008581E-07  5.41368148E-08
  4.84954259E-03 -9.79649741E-03  1.48747161E-01  3.87329725E-01 -9.38781577E-06
 -3.25135600E-02  8.80392436E-02  2.36191474E-01 -5.62635917E-06  1.01723477E-02
 -3.38052935E-02  2.32969409E-02  5.85343328E-03  1.56558116E-07  3.15131296E-06
  5.34123980E-03 -9.58557745E-03 -2.66044452E-02 -1.27732504E-01  2.76765468E-06
 -7.79396693E-03 -1.11786222E-02 -8.99536033E-02  2.03373846E-06  8.05988676E-03
 -1.43147248E-02  6.39112942E-04  1.72180518E-02 -3.24542416E-07  4.61366571E-07
 -2.63585179E-01 -1.91560099E-01  1.27414209E-01  1.04438730E-01  1.27406944E-01
  1.04433023E-01 -9.28343540E-02 -7.16979905E-02 -6.80956747E-02 -5.86850220E-02
  6.89692717E-02 -1.51607695E-01 -7.14652553E-02  4.70213423E-01  5.07832527E-03
 -3.07998452E-01 -3.08077125E-02  3.72929718E-01  4.03569643E-03  7.51507399E-03
  2.70586231E-02 -1.09801203E-02 -7.67865156E-03  2.00295441E-04  3.97049788E-04
 -2.40319095E-02  4.24122119E-02 -1.65262209E-01  6.80831815E-02 -1.68351705E-03
  1.61562145E-01 -1.14378465E-01  3.26423405E-02 -1.13767033E-03  1.06135631E-02
 -7.39061673E-03 -3.99462808E-03 -5.95841118E-03 -2.52054126E-04 -7.42328106E-05
 -2.11402302E-02  6.59674401E-02  3.55442947E-02 -2.05299280E-01  3.79494385E-03
 -4.91310320E-02  7.44340064E-03 -3.93812482E-02  2.97312130E-03  3.08740219E-02
 -3.80434414E-02 -6.48854920E-04 -9.98739665E-03 -3.50632442E-04 -2.03032307E-04
 -3.48213619E-02 -8.45452648E-02 -2.33527586E-02 -3.54937284E-02 -2.10378864E-02
 -3.29571785E-02 -1.66452126E-01 -2.17231742E-01  1.52924994E-01  1.34610928E-01
 -8.23012259E-04  1.80939819E-03  8.60343823E-04 -5.59601353E-03  4.26727448E-01
  3.67466651E-03  3.72732807E-04 -4.43887895E-03  3.39165242E-01 -8.95951751E-05
 -3.20917634E-04  1.29058676E-04  9.27032138E-05  1.67839683E-02  3.33770857E-02
  2.87068667E-04 -5.06495828E-04  1.97571463E-03 -8.15851251E-04 -1.40828328E-01
 -1.93192719E-03  1.36839774E-03 -3.92478851E-04 -9.51654658E-02 -1.26278039E-04
  8.73744273E-05  4.81551728E-05  7.04936432E-05 -2.11726668E-02 -6.22815222E-03
  2.53229846E-04 -7.89439745E-04 -4.27207913E-04  2.45817482E-03  3.17494933E-01
  5.83954581E-04 -8.87290386E-05  4.76798492E-04  2.49118409E-01 -3.68727142E-04
  4.53035948E-04  8.85342225E-06  1.18401124E-04 -2.94133465E-02 -1.70991051E-02
  4.13243412E-04  1.00690951E-03 -9.67901374E-02 -1.05973286E-01  9.73228230E-02
  1.06793698E-01  1.98671691E-03  2.59235671E-03 -1.82550871E-03 -1.60765936E-03
 -8.56022054E-07  2.71244439E-06 -2.68881366E-06 -9.71060309E-06 -3.68996383E-01
 -1.37273858E-06 -9.83424615E-06 -1.72716030E-05 -6.08967299E-01  3.83763353E-08
 -6.28361425E-09  1.86921866E-07  3.96114307E-07  1.71235272E-02 -7.68281912E-03
 -2.39431900E-06  3.58305669E-06 -4.42355666E-06  1.79883721E-06  1.08257322E-02
  2.58942100E-05 -1.54708379E-06  8.52738037E-06  7.12303617E-02  2.89881035E-07
  3.29104595E-07 -8.21039817E-07 -1.33907917E-06 -3.22052589E-02  6.40914700E-03
  2.64233262E-06 -3.02904654E-06 -2.30418538E-06  1.08509706E-05  3.95718707E-01
 -2.31777168E-05 -9.83858034E-06  9.63683067E-06  6.99207109E-01  8.02581307E-07
  1.19411783E-06 -1.14477035E-06  8.52469711E-07  2.24780275E-02  1.80675010E-02
 -3.62809888E-07 -9.76417370E-06 -8.22732664E-02 -2.81683819E-01  8.22733276E-02
  2.81664429E-01  3.71657279E-06  1.73465267E-05 -1.76328262E-06 -9.61584719E-06
  6.34182017E-02 -5.57933753E-02  1.52255647E-01 -5.98182896E-02 -1.51713530E-06
 -1.09457171E+00  3.12960404E-01 -2.45324231E-01  8.88450326E-07  2.30257379E-02
  1.10890794E-02  2.32376210E-02  2.64195709E-04 -5.01499276E-08  4.42928705E-07
  5.56604683E-02 -4.04137679E-02 -8.39552745E-02 -2.90824338E-02 -2.53298928E-06
 -9.44261256E-01 -3.16461877E-01  4.24472344E-02 -1.54614735E-05  8.69109616E-03
 -3.91261406E-03  8.24536315E-03  1.00617747E-02 -2.65427803E-07  9.28353188E-07
  4.64831708E-02 -7.23687000E-02  1.24919589E-03 -2.04792901E-01  6.44145835E-06
 -6.36441026E-01 -1.49454571E-01 -6.97789774E-01  2.06626930E-05 -1.18698821E-02
  6.92853107E-03  5.42117838E-03 -4.91804222E-03  6.02778795E-08  2.07607077E-07
 -2.55502321E-02  1.63934916E-01  1.34378418E-02  6.33333554E-01  1.34366780E-02
  6.33306288E-01 -6.00764641E-04  1.16272033E+00  5.89075805E-02  1.17967128E+00
  2.22886338E-02  1.21950266E-02  9.92632545E-02 -7.76117667E-02  5.05723628E-06
 -5.80834719E-01  2.18768405E-01 -2.23546599E-01  1.05602282E-05  1.56749352E-02
  6.97845832E-03  1.64919448E-02  6.22652017E-03 -4.68447207E-07  4.13747729E-07
 -1.33100263E-01  7.86361420E-02  1.27829789E-01 -2.61853876E-02 -2.10595264E-06
  2.56425969E+00  3.92481416E-01 -7.06062442E-03 -1.80572957E-05 -1.82618062E-03
 -1.57556113E-02 -1.05371985E-02  4.06329551E-03  4.32809856E-07  3.76719465E-07
  3.00357056E-02  1.98418250E-02 -2.16502043E-02 -6.97638789E-02 -2.04176809E-06
 -5.85707808E-01 -3.94248483E-01 -2.31842112E-01 -2.73819533E-07  2.94878970E-03
  1.32988750E-02  6.03692257E-04 -5.49437855E-03 -1.17083933E-07 -4.97880491E-07
 -2.47089998E-02 -1.04066694E+00  8.33879289E-03 -1.14927185E+00  8.33560987E-03
 -1.14931583E+00  4.47913525E-02  5.37131558E-01 -3.01795297E-04  6.10780128E-01
  6.90643018E-02 -7.45034381E-02  1.01196163E-01 -1.47430756E-01  5.77294979E-06
 -1.12909795E+00  3.41124410E-01 -6.07697540E-01  3.60196982E-05  1.13715365E-02
  3.42571114E-03  3.03057058E-02  1.06712223E-02  1.27364121E-06 -1.42944779E-07
  3.24619797E-02 -4.21794622E-02  1.08428091E-01  3.39088793E-02  6.28388760E-05
 -3.11915596E-01  3.13185169E-01 -1.72501825E-01  3.00966655E-04  6.45952339E-03
 -6.17355348E-03 -4.51880577E-04 -6.06762801E-03 -7.78677182E-07 -1.58596630E-06
 -9.76465452E-02  8.81956758E-02  1.53966175E-02  1.63585692E-01 -7.99838241E-06
  1.90019828E+00 -1.70005063E-01  7.06659828E-01 -8.79797508E-05 -1.15518950E-02
  1.94550572E-03 -2.30026701E-04 -3.16943965E-03  2.09500634E-06 -3.06515991E-06
 -3.10648973E-02  1.38056236E-01  5.16161233E-03 -1.97952719E-02  5.17574924E-03
 -1.91810386E-02 -2.12963318E-02 -1.76954736E+00  4.84312967E-03  1.25800334E+00
  4.05904516E-06 -2.41320709E-05 -2.63165785E-04 -1.31214336E-04  3.26267220E-02
  7.49071191E-05 -6.82935099E-04 -8.96594203E-05  1.79428562E-01  9.72789285E-06
 -1.70310744E-05  5.88522954E-06  1.30722555E-06  5.68481377E-03 -4.51974834E-03
 -2.53967719E-05  4.14520721E-05 -2.24254119E-04 -7.02293586E-04  3.32425793E-01
  4.69558788E-04 -1.17952254E-03 -3.53670607E-03  1.57575419E+00  1.34956956E-05
 -4.57973610E-05  3.01019610E-05 -5.98748008E-06 -2.53231834E-03 -9.58053337E-03
 -5.90984306E-05  1.19365132E-06 -1.58076767E-05  1.04955622E-05 -5.04623986E-02
  1.28013196E-03 -1.92048517E-04  4.01672635E-04 -5.02781789E-01 -4.29944443E-05