
    -----------------------------------------------------------------------
          Psi4: An Open-Source Ab Initio Electronic Structure Package
                               Psi4 1.3.2 release

                         Git: Rev {HEAD} ecbda83 


    R. M. Parrish, L. A. Burns, D. G. A. Smith, A. C. Simmonett,
    A. E. DePrince III, E. G. Hohenstein, U. Bozkaya, A. Yu. Sokolov,
    R. Di Remigio, R. M. Richard, J. F. Gonthier, A. M. James,
    H. R. McAlexander, A. Kumar, M. Saitow, X. Wang, B. P. Pritchard,
    P. Verma, H. F. Schaefer III, K. Patkowski, R. A. King, E. F. Valeev,
    F. A. Evangelista, J. M. Turney, T. D. Crawford, and C. D. Sherrill,
    J. Chem. Theory Comput. 13(7) pp 3185--3197 (2017).
    (doi: 10.1021/acs.jctc.7b00174)


                         Additional Contributions by
    P. Kraus, H. Kruse, M. H. Lechner, M. C. Schieber, R. A. Shaw,
    A. Alenaizan, R. Galvelis, Z. L. Glick, S. Lehtola, and J. P. Misiewicz

    -----------------------------------------------------------------------


    Psi4 started on: Thursday, 05 November 2020 09:12PM

    Process ID: 17129
    Host:       node37.bme.utexas.edu
    PSIDATADIR: /home/xy3866/psi4conda/share/psi4
    Memory:     500.0 MiB
    Threads:    8
    
  ==> Input File <==

--------------------------------------------------------------------------
#psi4
#
memory 32 gb

molecule  {
0 1
  O        2.8066476     0.5906191     0.0199285
  O        2.1944780    -1.5825590    -0.0163220
  N        2.0004500    -0.3550410     0.0008100
  C       -1.7439920    -0.3903900    -0.0133100
  C       -0.4149300    -0.8260450    -0.0068870
  C        0.6078150     0.1183000     0.0001420
  C       -2.0019240     0.9878430    -0.0100420
  C        0.3698690     1.4898440     0.0027510
  C       -0.9581620     1.9149690    -0.0035660
  C       -2.8732770    -1.3864780     0.0172390
  H       -0.1671010    -1.8828910    -0.0126110
  H       -3.0325270     1.3382360    -0.0191480
  H        1.1996340     2.1873950     0.0050900
  H       -1.1788320     2.9793390    -0.0057220
  H       -2.5659080    -2.3418330    -0.4157720
  H       -3.1988470    -1.5742060     1.0458220
  H       -3.7365580    -1.0178890    -0.5434620
units angstrom
no_reorient  #important for SAPT in psi4, default
symmetry c1  #important for SAPT in psi4, default
}

set PROPERTIES_ORIGIN ["COM"]
properties('MP2/aug-cc-pvtz', properties = ['dipole'])
--------------------------------------------------------------------------

  Memory set to  29.802 GiB by Python driver.
    SCF Algorithm Type (re)set to DF.

*** tstart() called on node37.bme.utexas.edu
*** at Thu Nov  5 21:12:10 2020

   => Loading Basis Set <=

    Name: AUG-CC-PVTZ
    Role: ORBITAL
    Keyword: BASIS
    atoms 1-2   entry O          line   327 file /home/xy3866/psi4conda/share/psi4/basis/aug-cc-pvtz.gbs 
    atoms 3     entry N          line   281 file /home/xy3866/psi4conda/share/psi4/basis/aug-cc-pvtz.gbs 
    atoms 4-10  entry C          line   235 file /home/xy3866/psi4conda/share/psi4/basis/aug-cc-pvtz.gbs 
    atoms 11-17 entry H          line    36 file /home/xy3866/psi4conda/share/psi4/basis/aug-cc-pvtz.gbs 


         ---------------------------------------------------------
                                   SCF
               by Justin Turney, Rob Parrish, Andy Simmonett
                          and Daniel G. A. Smith
                              RHF Reference
                        8 Threads,  30517 MiB Core
         ---------------------------------------------------------

  ==> Geometry <==

    Molecular point group: c1
    Full point group: C1

    Geometry (in Angstrom), charge = 0, multiplicity = 1:

       Center              X                  Y                   Z               Mass       
    ------------   -----------------  -----------------  -----------------  -----------------
         O            2.726015421528     0.577889461781     0.020223483160    15.994914619570
         O            2.113845821528    -1.595288638219    -0.016027016840    15.994914619570
         N            1.919817821528    -0.367770638219     0.001104983160    14.003074004430
         C           -1.824624178472    -0.403119638219    -0.013015016840    12.000000000000
         C           -0.495562178472    -0.838774638219    -0.006592016840    12.000000000000
         C            0.527182821528     0.105570361781     0.000436983160    12.000000000000
         C           -2.082556178472     0.975113361781    -0.009747016840    12.000000000000
         C            0.289236821528     1.477114361781     0.003045983160    12.000000000000
         C           -1.038794178472     1.902239361781    -0.003271016840    12.000000000000
         C           -2.953909178472    -1.399207638219     0.017533983160    12.000000000000
         H           -0.247733178472    -1.895620638219    -0.012316016840     1.007825032230
         H           -3.113159178472     1.325506361781    -0.018853016840     1.007825032230
         H            1.119001821528     2.174665361781     0.005384983160     1.007825032230
         H           -1.259464178472     2.966609361781    -0.005427016840     1.007825032230
         H           -2.646540178472    -2.354562638219    -0.415477016840     1.007825032230
         H           -3.279479178472    -1.586935638219     1.046116983160     1.007825032230
         H           -3.817190178472    -1.030618638219    -0.543167016840     1.007825032230

  Running in c1 symmetry.

  Rotational constants: A =      0.08751  B =      0.03332  C =      0.02424 [cm^-1]
  Rotational constants: A =   2623.48905  B =    998.96366  C =    726.79412 [MHz]
  Nuclear repulsion =  494.631537074399375

  Charge       = 0
  Multiplicity = 1
  Electrons    = 72
  Nalpha       = 36
  Nbeta        = 36

  ==> Algorithm <==

  SCF Algorithm Type is DF.
  DIIS enabled.
  MOM disabled.
  Fractional occupation disabled.
  Guess Type is SAD.
  Energy threshold   = 1.00e-10
  Density threshold  = 1.00e-10
  Integral threshold = 0.00e+00

  ==> Primary Basis <==

  Basis Set: AUG-CC-PVTZ
    Blend: AUG-CC-PVTZ
    Number of shells: 203
    Number of basis function: 621
    Number of Cartesian functions: 725
    Spherical Harmonics?: true
    Max angular momentum: 3

   => Loading Basis Set <=

    Name: (AUG-CC-PVTZ AUX)
    Role: JKFIT
    Keyword: DF_BASIS_SCF
    atoms 1-2   entry O          line   286 file /home/xy3866/psi4conda/share/psi4/basis/aug-cc-pvtz-jkfit.gbs 
    atoms 3     entry N          line   224 file /home/xy3866/psi4conda/share/psi4/basis/aug-cc-pvtz-jkfit.gbs 
    atoms 4-10  entry C          line   162 file /home/xy3866/psi4conda/share/psi4/basis/aug-cc-pvtz-jkfit.gbs 
    atoms 11-17 entry H          line    70 file /home/xy3866/psi4conda/share/psi4/basis/aug-cc-pvtz-jkfit.gbs 

  ==> Pre-Iterations <==

   -------------------------------------------------------
    Irrep   Nso     Nmo     Nalpha   Nbeta   Ndocc  Nsocc
   -------------------------------------------------------
     A        621     621       0       0       0       0
   -------------------------------------------------------
    Total     621     621      36      36      36       0
   -------------------------------------------------------

  ==> Integral Setup <==

  DFHelper Memory: AOs need 3.795 GiB; user supplied 22.352 GiB. Using in-core AOs.

  ==> MemDFJK: Density-Fitted J/K Matrices <==

    J tasked:                   Yes
    K tasked:                   Yes
    wK tasked:                   No
    OpenMP threads:               8
    Memory [MiB]:             22888
    Algorithm:                 Disk
    Schwarz Cutoff:           1E-12
    Mask sparsity (%):       5.9423
    Fitting Condition:        1E-10

   => Auxiliary Basis Set <=

  Basis Set: (AUG-CC-PVTZ AUX)
    Blend: AUG-CC-PVTZ-JKFIT
    Number of shells: 398
    Number of basis function: 1362
    Number of Cartesian functions: 1695
    Spherical Harmonics?: true
    Max angular momentum: 4

  Minimum eigenvalue in the overlap matrix is 6.1987203934E-07.
  Using Symmetric Orthogonalization.

  SCF Guess: Superposition of Atomic Densities via on-the-fly atomic UHF.

  ==> Iterations <==

                           Total Energy        Delta E     RMS |[F,P]|

   @DF-RHF iter SAD:  -472.67420289827430   -4.72674e+02   0.00000e+00 
   @DF-RHF iter   1:  -473.02609967702188   -3.51897e-01   1.34807e-03 DIIS
   @DF-RHF iter   2:  -473.23092196980826   -2.04822e-01   9.76776e-04 DIIS
   @DF-RHF iter   3:  -473.36148145990592   -1.30559e-01   1.59220e-04 DIIS
   @DF-RHF iter   4:  -473.36682784168988   -5.34638e-03   5.98126e-05 DIIS
   @DF-RHF iter   5:  -473.36773085955099   -9.03018e-04   1.50081e-05 DIIS
   @DF-RHF iter   6:  -473.36780789016200   -7.70306e-05   5.77684e-06 DIIS
   @DF-RHF iter   7:  -473.36782568596834   -1.77958e-05   2.30534e-06 DIIS
   @DF-RHF iter   8:  -473.36782973368895   -4.04772e-06   1.23259e-06 DIIS
   @DF-RHF iter   9:  -473.36783095441547   -1.22073e-06   5.95765e-07 DIIS
   @DF-RHF iter  10:  -473.36783130156090   -3.47145e-07   2.69568e-07 DIIS
   @DF-RHF iter  11:  -473.36783135252591   -5.09650e-08   1.23583e-07 DIIS
   @DF-RHF iter  12:  -473.36783136217076   -9.64485e-09   3.82663e-08 DIIS
   @DF-RHF iter  13:  -473.36783136305979   -8.89031e-10   1.11686e-08 DIIS
   @DF-RHF iter  14:  -473.36783136313886   -7.90692e-11   4.82801e-09 DIIS
   @DF-RHF iter  15:  -473.36783136315194   -1.30740e-11   1.55613e-09 DIIS
   @DF-RHF iter  16:  -473.36783136315069    1.25056e-12   6.29925e-10 DIIS
   @DF-RHF iter  17:  -473.36783136315290   -2.21689e-12   3.04450e-10 DIIS
   @DF-RHF iter  18:  -473.36783136315239    5.11591e-13   1.26530e-10 DIIS
   @DF-RHF iter  19:  -473.36783136315063    1.76215e-12   5.99190e-11 DIIS
  Energy and wave function converged.


  ==> Post-Iterations <==

    Orbital Energies [Eh]
    ---------------------

    Doubly Occupied:                                                      

       1A    -20.611806     2A    -20.607437     3A    -15.856579  
       4A    -11.306201     5A    -11.270235     6A    -11.267639  
       7A    -11.267059     8A    -11.265401     9A    -11.262339  
      10A    -11.243231    11A     -1.587983    12A     -1.398281  
      13A     -1.194076    14A     -1.095752    15A     -1.062624  
      16A     -0.965545    17A     -0.953636    18A     -0.846909  
      19A     -0.818390    20A     -0.762718    21A     -0.727874  
      22A     -0.710492    23A     -0.699117    24A     -0.663727  
      25A     -0.632971    26A     -0.601169    27A     -0.596034  
      28A     -0.563415    29A     -0.540129    30A     -0.518672  
      31A     -0.518038    32A     -0.501503    33A     -0.488148  
      34A     -0.459049    35A     -0.370677    36A     -0.353280  

    Virtual:                                                              

      37A      0.022525    38A      0.028532    39A      0.032259  
      40A      0.037002    41A      0.040274    42A      0.048243  
      43A      0.051307    44A      0.070268    45A      0.080606  
      46A      0.090370    47A      0.093943    48A      0.096391  
      49A      0.104575    50A      0.106124    51A      0.109425  
      52A      0.114391    53A      0.119670    54A      0.125845  
      55A      0.128789    56A      0.131975    57A      0.133899  
      58A      0.139172    59A      0.143206    60A      0.146425  
      61A      0.148854    62A      0.152525    63A      0.158309  
      64A      0.161664    65A      0.171477    66A      0.174578  
      67A      0.179293    68A      0.185523    69A      0.199780  
      70A      0.206022    71A      0.213963    72A      0.218077  
      73A      0.222370    74A      0.224075    75A      0.239905  
      76A      0.247470    77A      0.255411    78A      0.257129  
      79A      0.261385    80A      0.269541    81A      0.273820  
      82A      0.280252    83A      0.284936    84A      0.294644  
      85A      0.296274    86A      0.305531    87A      0.310554  
      88A      0.312474    89A      0.319070    90A      0.320781  
      91A      0.324307    92A      0.326969    93A      0.333729  
      94A      0.336287    95A      0.346800    96A      0.350090  
      97A      0.356370    98A      0.359220    99A      0.364895  
     100A      0.366612   101A      0.382109   102A      0.385685  
     103A      0.386039   104A      0.396004   105A      0.406326  
     106A      0.407070   107A      0.412040   108A      0.413140  
     109A      0.414577   110A      0.428070   111A      0.433322  
     112A      0.436295   113A      0.437798   114A      0.444819  
     115A      0.449590   116A      0.459194   117A      0.461480  
     118A      0.469634   119A      0.474900   120A      0.477886  
     121A      0.478886   122A      0.484718   123A      0.488901  
     124A      0.493908   125A      0.497085   126A      0.502266  
     127A      0.509534   128A      0.512536   129A      0.520676  
     130A      0.526797   131A      0.530036   132A      0.535124  
     133A      0.536361   134A      0.540410   135A      0.543823  
     136A      0.551999   137A      0.563203   138A      0.574605  
     139A      0.580810   140A      0.587375   141A      0.595563  
     142A      0.598783   143A      0.609077   144A      0.622342  
     145A      0.628624   146A      0.636079   147A      0.650705  
     148A      0.653371   149A      0.673747   150A      0.675400  
     151A      0.683483   152A      0.692206   153A      0.699480  
     154A      0.703597   155A      0.710410   156A      0.718405  
     157A      0.725436   158A      0.736136   159A      0.743696  
     160A      0.754313   161A      0.761895   162A      0.765402  
     163A      0.778373   164A      0.793657   165A      0.798522  
     166A      0.807541   167A      0.810335   168A      0.822452  
     169A      0.831276   170A      0.837287   171A      0.839150  
     172A      0.844800   173A      0.852899   174A      0.859314  
     175A      0.865024   176A      0.869358   177A      0.873109  
     178A      0.882483   179A      0.889094   180A      0.892346  
     181A      0.898191   182A      0.907460   183A      0.909315  
     184A      0.913914   185A      0.920991   186A      0.921600  
     187A      0.928631   188A      0.931831   189A      0.935710  
     190A      0.939016   191A      0.945199   192A      0.952974  
     193A      0.960539   194A      0.966064   195A      0.977082  
     196A      0.986699   197A      0.990605   198A      0.996605  
     199A      1.000589   200A      1.008329   201A      1.017901  
     202A      1.025806   203A      1.029757   204A      1.035663  
     205A      1.043298   206A      1.049629   207A      1.050660  
     208A      1.058316   209A      1.064760   210A      1.076683  
     211A      1.078094   212A      1.080995   213A      1.087698  
     214A      1.089576   215A      1.098144   216A      1.105016  
     217A      1.113751   218A      1.122475   219A      1.128917  
     220A      1.131238   221A      1.138750   222A      1.143930  
     223A      1.155403   224A      1.166094   225A      1.169691  
     226A      1.185064   227A      1.188191   228A      1.192371  
     229A      1.194609   230A      1.199410   231A      1.207526  
     232A      1.210118   233A      1.217517   234A      1.225105  
     235A      1.229349   236A      1.241731   237A      1.250180  
     238A      1.257406   239A      1.271059   240A      1.283854  
     241A      1.289397   242A      1.296940   243A      1.301904  
     244A      1.313186   245A      1.318254   246A      1.326980  
     247A      1.338618   248A      1.348578   249A      1.353110  
     250A      1.360897   251A      1.363493   252A      1.381673  
     253A      1.386540   254A      1.403653   255A      1.419235  
     256A      1.426157   257A      1.433228   258A      1.441347  
     259A      1.442032   260A      1.455506   261A      1.472646  
     262A      1.483493   263A      1.501055   264A      1.518479  
     265A      1.522271   266A      1.532898   267A      1.546659  
     268A      1.551073   269A      1.564230   270A      1.589437  
     271A      1.590173   272A      1.601313   273A      1.610383  
     274A      1.620444   275A      1.624134   276A      1.639250  
     277A      1.644791   278A      1.653873   279A      1.657141  
     280A      1.677793   281A      1.695916   282A      1.700896  
     283A      1.704775   284A      1.710128   285A      1.724220  
     286A      1.727909   287A      1.738615   288A      1.750143  
     289A      1.757257   290A      1.771950   291A      1.784285  
     292A      1.789094   293A      1.806172   294A      1.810006  
     295A      1.818272   296A      1.832640   297A      1.841278  
     298A      1.841816   299A      1.851222   300A      1.871155  
     301A      1.875894   302A      1.885373   303A      1.896137  
     304A      1.904728   305A      1.917929   306A      1.931016  
     307A      1.936836   308A      1.958029   309A      1.959962  
     310A      1.973567   311A      1.991804   312A      2.013426  
     313A      2.017657   314A      2.028657   315A      2.036666  
     316A      2.049206   317A      2.054366   318A      2.061983  
     319A      2.070181   320A      2.077484   321A      2.083418  
     322A      2.099078   323A      2.108366   324A      2.117266  
     325A      2.123155   326A      2.130734   327A      2.149353  
     328A      2.158996   329A      2.172122   330A      2.178970  
     331A      2.199542   332A      2.209809   333A      2.222376  
     334A      2.235194   335A      2.236825   336A      2.244103  
     337A      2.260721   338A      2.272001   339A      2.285998  
     340A      2.291329   341A      2.296194   342A      2.315506  
     343A      2.318829   344A      2.333645   345A      2.336216  
     346A      2.356813   347A      2.361444   348A      2.381139  
     349A      2.397045   350A      2.400774   351A      2.409483  
     352A      2.431219   353A      2.450809   354A      2.452855  
     355A      2.458089   356A      2.467300   357A      2.491458  
     358A      2.513063   359A      2.527220   360A      2.549502  
     361A      2.575489   362A      2.577981   363A      2.592866  
     364A      2.603289   365A      2.609438   366A      2.626339  
     367A      2.636579   368A      2.654490   369A      2.676732  
     370A      2.710518   371A      2.714274   372A      2.715735  
     373A      2.734856   374A      2.744084   375A      2.788689  
     376A      2.800877   377A      2.834357   378A      2.863614  
     379A      2.879358   380A      2.905041   381A      2.928353  
     382A      2.953647   383A      2.978508   384A      3.007434  
     385A      3.018001   386A      3.031534   387A      3.066719  
     388A      3.103718   389A      3.143972   390A      3.148831  
     391A      3.170793   392A      3.207149   393A      3.214147  
     394A      3.241685   395A      3.252449   396A      3.271522  
     397A      3.277307   398A      3.290148   399A      3.328169  
     400A      3.346198   401A      3.353868   402A      3.382199  
     403A      3.391464   404A      3.406400   405A      3.414358  
     406A      3.434970   407A      3.451545   408A      3.463127  
     409A      3.473418   410A      3.477560   411A      3.482100  
     412A      3.501493   413A      3.504604   414A      3.522469  
     415A      3.527045   416A      3.536698   417A      3.551336  
     418A      3.560922   419A      3.567894   420A      3.581429  
     421A      3.588372   422A      3.603136   423A      3.613053  
     424A      3.640020   425A      3.657281   426A      3.673416  
     427A      3.681048   428A      3.692236   429A      3.696978  
     430A      3.717085   431A      3.732174   432A      3.743153  
     433A      3.754477   434A      3.757320   435A      3.783928  
     436A      3.793070   437A      3.804491   438A      3.822711  
     439A      3.841728   440A      3.845949   441A      3.849865  
     442A      3.867385   443A      3.890634   444A      3.894861  
     445A      3.902470   446A      3.913660   447A      3.935002  
     448A      3.948668   449A      3.956741   450A      3.963799  
     451A      3.968484   452A      3.978275   453A      3.990015  
     454A      4.011799   455A      4.024591   456A      4.029645  
     457A      4.051505   458A      4.063504   459A      4.069161  
     460A      4.092498   461A      4.108834   462A      4.124601  
     463A      4.132125   464A      4.151141   465A      4.164268  
     466A      4.180241   467A      4.192102   468A      4.203863  
     469A      4.213789   470A      4.225310   471A      4.234572  
     472A      4.244125   473A      4.255789   474A      4.270822  
     475A      4.290570   476A      4.304502   477A      4.318900  
     478A      4.345623   479A      4.356149   480A      4.369397  
     481A      4.378814   482A      4.391915   483A      4.395968  
     484A      4.416605   485A      4.429054   486A      4.433871  
     487A      4.449300   488A      4.462538   489A      4.472642  
     490A      4.491385   491A      4.503683   492A      4.528598  
     493A      4.559465   494A      4.583059   495A      4.598673  
     496A      4.616910   497A      4.632554   498A      4.654867  
     499A      4.679914   500A      4.690154   501A      4.704256  
     502A      4.714704   503A      4.734517   504A      4.760101  
     505A      4.773507   506A      4.799476   507A      4.819941  
     508A      4.828212   509A      4.849002   510A      4.850842  
     511A      4.872687   512A      4.900078   513A      4.908454  
     514A      4.921594   515A      4.937976   516A      4.947170  
     517A      4.960638   518A      5.003163   519A      5.014786  
     520A      5.041205   521A      5.072296   522A      5.073996  
     523A      5.097931   524A      5.102973   525A      5.123021  
     526A      5.125995   527A      5.144076   528A      5.159008  
     529A      5.161606   530A      5.179673   531A      5.188679  
     532A      5.221507   533A      5.235877   534A      5.268122  
     535A      5.276123   536A      5.288580   537A      5.291815  
     538A      5.316418   539A      5.346058   540A      5.361834  
     541A      5.385909   542A      5.395966   543A      5.404447  
     544A      5.426954   545A      5.439144   546A      5.453662  
     547A      5.480666   548A      5.517899   549A      5.541222  
     550A      5.557808   551A      5.611506   552A      5.630497  
     553A      5.666895   554A      5.679658   555A      5.696330  
     556A      5.713874   557A      5.729953   558A      5.738771  
     559A      5.751086   560A      5.812811   561A      5.817389  
     562A      5.831925   563A      5.845197   564A      5.936316  
     565A      6.041834   566A      6.053718   567A      6.113652  
     568A      6.136065   569A      6.154682   570A      6.184403  
     571A      6.212740   572A      6.224221   573A      6.278360  
     574A      6.373819   575A      6.381363   576A      6.410429  
     577A      6.468418   578A      6.509897   579A      6.571565  
     580A      6.640252   581A      6.672166   582A      6.716299  
     583A      6.760697   584A      6.772131   585A      6.780809  
     586A      6.793781   587A      6.827161   588A      6.835602  
     589A      6.840294   590A      6.843322   591A      6.930093  
     592A      6.976672   593A      7.050460   594A      7.061332  
     595A      7.170696   596A      7.228788   597A      7.248865  
     598A      7.330612   599A      7.341654   600A      7.370187  
     601A      7.412019   602A      7.430457   603A      7.627924  
     604A      7.692051   605A      7.695897   606A      7.822824  
     607A      7.984944   608A      7.992031   609A      8.176900  
     610A      8.304044   611A      8.594769   612A     15.563269  
     613A     15.863819   614A     16.406631   615A     16.541920  
     616A     17.911474   617A     18.423375   618A     19.317532  
     619A     19.544742   620A     20.268248   621A     20.379717  

    Final Occupation by Irrep:
              A 
    DOCC [    36 ]

  @DF-RHF Final Energy:  -473.36783136315063

   => Energetics <=

    Nuclear Repulsion Energy =            494.6315370743993753
    One-Electron Energy =               -1624.8224654249208925
    Two-Electron Energy =                 656.8230969873708318
    Total Energy =                       -473.3678313631506853

Computation Completed

*** tstop() called on node37.bme.utexas.edu at Thu Nov  5 21:13:47 2020
Module time:
	user time   =     340.69 seconds =       5.68 minutes
	system time =      71.85 seconds =       1.20 minutes
	total time  =         97 seconds =       1.62 minutes
Total time:
	user time   =     340.69 seconds =       5.68 minutes
	system time =      71.85 seconds =       1.20 minutes
	total time  =         97 seconds =       1.62 minutes
   => Loading Basis Set <=

    Name: (AUG-CC-PVTZ AUX)
    Role: RIFIT
    Keyword: DF_BASIS_MP2
    atoms 1-2   entry O          line   264 file /home/xy3866/psi4conda/share/psi4/basis/aug-cc-pvtz-ri.gbs 
    atoms 3     entry N          line   206 file /home/xy3866/psi4conda/share/psi4/basis/aug-cc-pvtz-ri.gbs 
    atoms 4-10  entry C          line   148 file /home/xy3866/psi4conda/share/psi4/basis/aug-cc-pvtz-ri.gbs 
    atoms 11-17 entry H          line    30 file /home/xy3866/psi4conda/share/psi4/basis/aug-cc-pvtz-ri.gbs 


*** tstart() called on node37.bme.utexas.edu
*** at Thu Nov  5 21:13:47 2020


  //>>>>>>>>>>>>>>>>>>>>>>>>>>>>>>>>>>>//
  //               DFMP2               //
  //<<<<<<<<<<<<<<<<<<<<<<<<<<<<<<<<<<<//

	 --------------------------------------------------------
	                          DF-MP2                         
	      2nd-Order Density-Fitted Moller-Plesset Theory     
	              RMP2 Wavefunction,   8 Threads             
	                                                         
	        Rob Parrish, Justin Turney, Andy Simmonett,      
	           Ed Hohenstein, and C. David Sherrill          
	 --------------------------------------------------------

   => Auxiliary Basis Set <=

  Basis Set: (AUG-CC-PVTZ AUX)
    Blend: AUG-CC-PVTZ-RI
    Number of shells: 378
    Number of basis function: 1382
    Number of Cartesian functions: 1745
    Spherical Harmonics?: true
    Max angular momentum: 4

	 --------------------------------------------------------
	                 NBF =   621, NAUX =  1382
	 --------------------------------------------------------
	   CLASS    FOCC     OCC    AOCC    AVIR     VIR    FVIR
	   PAIRS       0      36      36     585     585       0
	 --------------------------------------------------------

  DFHelper Memory: AOs need 3.795 GiB; user supplied 22.352 GiB. Using in-core AOs.


         ------------------------------------------------------------
                                     CPHF                           
                                  Rob Parrish                       
         ------------------------------------------------------------

  ==> Geometry <==

    Molecular point group: c1
    Full point group: C1

    Geometry (in Angstrom), charge = 0, multiplicity = 1:

       Center              X                  Y                   Z               Mass       
    ------------   -----------------  -----------------  -----------------  -----------------
         O            2.726015421528     0.577889461781     0.020223483160    15.994914619570
         O            2.113845821528    -1.595288638219    -0.016027016840    15.994914619570
         N            1.919817821528    -0.367770638219     0.001104983160    14.003074004430
         C           -1.824624178472    -0.403119638219    -0.013015016840    12.000000000000
         C           -0.495562178472    -0.838774638219    -0.006592016840    12.000000000000
         C            0.527182821528     0.105570361781     0.000436983160    12.000000000000
         C           -2.082556178472     0.975113361781    -0.009747016840    12.000000000000
         C            0.289236821528     1.477114361781     0.003045983160    12.000000000000
         C           -1.038794178472     1.902239361781    -0.003271016840    12.000000000000
         C           -2.953909178472    -1.399207638219     0.017533983160    12.000000000000
         H           -0.247733178472    -1.895620638219    -0.012316016840     1.007825032230
         H           -3.113159178472     1.325506361781    -0.018853016840     1.007825032230
         H            1.119001821528     2.174665361781     0.005384983160     1.007825032230
         H           -1.259464178472     2.966609361781    -0.005427016840     1.007825032230
         H           -2.646540178472    -2.354562638219    -0.415477016840     1.007825032230
         H           -3.279479178472    -1.586935638219     1.046116983160     1.007825032230
         H           -3.817190178472    -1.030618638219    -0.543167016840     1.007825032230

  Nuclear repulsion =  494.631537074399375
  Reference energy  = -473.367831363150628

  ==> Basis Set <==

  Basis Set: AUG-CC-PVTZ
    Blend: AUG-CC-PVTZ
    Number of shells: 203
    Number of basis function: 621
    Number of Cartesian functions: 725
    Spherical Harmonics?: true
    Max angular momentum: 3

  ==> CGRSolver (by Rob Parrish) <==

   Number of roots    =         1
   Preconditioning    =    JACOBI
   Convergence cutoff =     1E-06
   Maximum iterations =       100

  ==> CPHFRHamiltonian (by Rob Parrish) <== 

  ==> MemDFJK: Density-Fitted J/K Matrices <==

    J tasked:                   Yes
    K tasked:                   Yes
    wK tasked:                   No
    OpenMP threads:               8
    Memory [MiB]:             22888
    Algorithm:                 Disk
    Schwarz Cutoff:           1E-12
    Mask sparsity (%):       5.9423
    Fitting Condition:        1E-10

   => Auxiliary Basis Set <=

  Basis Set: (AUG-CC-PVTZ AUX)
    Blend: AUG-CC-PVTZ-JKFIT
    Number of shells: 398
    Number of basis function: 1362
    Number of Cartesian functions: 1695
    Spherical Harmonics?: true
    Max angular momentum: 4

  ==> CPHF Iterations <==

  => Iterations <=

             Iter  Converged  Remaining    Residual
  CGR           1          0          1   1.545E-01
  CGR           2          0          1   5.328E-02
  CGR           3          0          1   2.528E-02
  CGR           4          0          1   9.348E-03
  CGR           5          0          1   4.587E-03
  CGR           6          0          1   2.230E-03
  CGR           7          0          1   8.497E-04
  CGR           8          0          1   3.857E-04
  CGR           9          0          1   1.535E-04
  CGR          10          0          1   5.537E-05
  CGR          11          0          1   1.600E-05
  CGR          12          0          1   5.089E-06
  CGR          13          0          1   2.254E-06
  CGR          14          1          0   8.794E-07

    CGRSolver converged.

	-----------------------------------------------------------
	 ==================> DF-MP2 Energies <==================== 
	-----------------------------------------------------------
	 Reference Energy          =    -473.3678313631506285 [Eh]
	 Singles Energy            =      -0.0000000000000000 [Eh]
	 Same-Spin Energy          =      -0.5035420290228646 [Eh]
	 Opposite-Spin Energy      =      -1.5168927617193615 [Eh]
	 Correlation Energy        =      -2.0204347907422262 [Eh]
	 Total Energy              =    -475.3882661538928573 [Eh]
	-----------------------------------------------------------
	 ================> DF-SCS-MP2 Energies <================== 
	-----------------------------------------------------------
	 SCS Same-Spin Scale       =       0.3333333333333333 [-]
	 SCS Opposite-Spin Scale   =       1.2000000000000000 [-]
	 SCS Same-Spin Energy      =      -0.1678473430076215 [Eh]
	 SCS Opposite-Spin Energy  =      -1.8202713140632336 [Eh]
	 SCS Correlation Energy    =      -1.9881186570708551 [Eh]
	 SCS Total Energy          =    -475.3559500202214849 [Eh]
	-----------------------------------------------------------



Properties will be evaluated at  -0.000000,   0.000000,   0.000000 [a0]

Properties computed using the MP2 density matrix

  Nuclear Dipole Moment: [e a0]
     X:   -12.3987      Y:    -0.3797      Z:     0.0528

  Electronic Dipole Moment: [e a0]
     X:    10.7381      Y:     0.7353      Z:    -0.0393

  Dipole Moment: [e a0]
     X:    -1.6606      Y:     0.3556      Z:     0.0135     Total:     1.6983

  Dipole Moment: [D]
     X:    -4.2209      Y:     0.9038      Z:     0.0342     Total:     4.3167


*** tstop() called on node37.bme.utexas.edu at Thu Nov  5 21:17:14 2020
Module time:
	user time   =     982.62 seconds =      16.38 minutes
	system time =     110.25 seconds =       1.84 minutes
	total time  =        207 seconds =       3.45 minutes
Total time:
	user time   =    1324.57 seconds =      22.08 minutes
	system time =     182.19 seconds =       3.04 minutes
	total time  =        304 seconds =       5.07 minutes

    Psi4 stopped on: Thursday, 05 November 2020 09:17PM
    Psi4 wall time for execution: 0:05:03.86

*** Psi4 exiting successfully. Buy a developer a beer!
