
    -----------------------------------------------------------------------
          Psi4: An Open-Source Ab Initio Electronic Structure Package
                               Psi4 1.3.2 release

                         Git: Rev {HEAD} ecbda83 


    R. M. Parrish, L. A. Burns, D. G. A. Smith, A. C. Simmonett,
    A. E. DePrince III, E. G. Hohenstein, U. Bozkaya, A. Yu. Sokolov,
    R. Di Remigio, R. M. Richard, J. F. Gonthier, A. M. James,
    H. R. McAlexander, A. Kumar, M. Saitow, X. Wang, B. P. Pritchard,
    P. Verma, H. F. Schaefer III, K. Patkowski, R. A. King, E. F. Valeev,
    F. A. Evangelista, J. M. Turney, T. D. Crawford, and C. D. Sherrill,
    J. Chem. Theory Comput. 13(7) pp 3185--3197 (2017).
    (doi: 10.1021/acs.jctc.7b00174)


                         Additional Contributions by
    P. Kraus, H. Kruse, M. H. Lechner, M. C. Schieber, R. A. Shaw,
    A. Alenaizan, R. Galvelis, Z. L. Glick, S. Lehtola, and J. P. Misiewicz

    -----------------------------------------------------------------------


    Psi4 started on: Wednesday, 04 November 2020 03:54AM

    Process ID: 129001
    Host:       node57.bme.utexas.edu
    PSIDATADIR: /home/xy3866/psi4conda/share/psi4
    Memory:     500.0 MiB
    Threads:    8
    
  ==> Input File <==

--------------------------------------------------------------------------
#psi4
#
memory 32 gb

molecule  {
0 1
  O       -2.8692073     0.4670961    -0.2820030
  O       -0.5220660     1.5374290     0.0548780
  N        0.6562510    -0.3746370    -0.3360270
  C        1.9647450     0.2268840    -0.0956960
  C       -1.8012180    -0.4504720    -0.3698720
  C        3.0067800    -0.5070980    -0.9241520
  C        2.2930000     0.2310680     1.3932270
  C       -0.4931590     0.3235730    -0.1949090
  C       -1.9724170    -1.5121580     0.7102480
  H        1.8788190     1.2611790    -0.4401960
  H        0.6035260    -1.3822150    -0.4365740
  H       -1.7714623    -0.9390385    -1.3565443
  H        3.9904500    -0.0508330    -0.7882090
  H        3.0812650    -1.5550640    -0.6116920
  H        2.7529100    -0.4768670    -1.9861430
  H        1.5225120     0.7762450     1.9430400
  H        3.2574000     0.7146530     1.5762130
  H        2.3438960    -0.7932520     1.7757830
  H       -2.9590570    -1.9673470     0.6070900
  H       -1.9090200    -1.0432980     1.6949070
  H       -1.2193110    -2.3035120     0.6420620
  H       -2.4442120     1.3312090    -0.1521090
units angstrom
no_reorient  #important for SAPT in psi4, default
symmetry c1  #important for SAPT in psi4, default
}

set PROPERTIES_ORIGIN ["COM"]
properties('MP2/aug-cc-pvtz', properties = ['dipole'])
--------------------------------------------------------------------------

  Memory set to  29.802 GiB by Python driver.
    SCF Algorithm Type (re)set to DF.

*** tstart() called on node57.bme.utexas.edu
*** at Wed Nov  4 03:54:17 2020

   => Loading Basis Set <=

    Name: AUG-CC-PVTZ
    Role: ORBITAL
    Keyword: BASIS
    atoms 1-2   entry O          line   327 file /home/xy3866/psi4conda/share/psi4/basis/aug-cc-pvtz.gbs 
    atoms 3     entry N          line   281 file /home/xy3866/psi4conda/share/psi4/basis/aug-cc-pvtz.gbs 
    atoms 4-9   entry C          line   235 file /home/xy3866/psi4conda/share/psi4/basis/aug-cc-pvtz.gbs 
    atoms 10-22 entry H          line    36 file /home/xy3866/psi4conda/share/psi4/basis/aug-cc-pvtz.gbs 


         ---------------------------------------------------------
                                   SCF
               by Justin Turney, Rob Parrish, Andy Simmonett
                          and Daniel G. A. Smith
                              RHF Reference
                        8 Threads,  30517 MiB Core
         ---------------------------------------------------------

  ==> Geometry <==

    Molecular point group: c1
    Full point group: C1

    Geometry (in Angstrom), charge = 0, multiplicity = 1:

       Center              X                  Y                   Z               Mass       
    ------------   -----------------  -----------------  -----------------  -----------------
         O           -2.870109829754     0.466491488768    -0.284862255476    15.994914619570
         O           -0.522968529754     1.536824388768     0.052018744524    15.994914619570
         N            0.655348470246    -0.375241611232    -0.338886255476    14.003074004430
         C            1.963842470246     0.226279388768    -0.098555255476    12.000000000000
         C           -1.802120529754    -0.451076611232    -0.372731255476    12.000000000000
         C            3.005877470246    -0.507702611232    -0.927011255476    12.000000000000
         C            2.292097470246     0.230463388768     1.390367744524    12.000000000000
         C           -0.494061529754     0.322968388768    -0.197768255476    12.000000000000
         C           -1.973319529754    -1.512762611232     0.707388744524    12.000000000000
         H            1.877916470246     1.260574388768    -0.443055255476     1.007825032230
         H            0.602623470246    -1.382819611232    -0.439433255476     1.007825032230
         H           -1.772364829754    -0.939643111232    -1.359403555476     1.007825032230
         H            3.989547470246    -0.051437611232    -0.791068255476     1.007825032230
         H            3.080362470246    -1.555668611232    -0.614551255476     1.007825032230
         H            2.752007470246    -0.477471611232    -1.989002255476     1.007825032230
         H            1.521609470246     0.775640388768     1.940180744524     1.007825032230
         H            3.256497470246     0.714048388768     1.573353744524     1.007825032230
         H            2.342993470246    -0.793856611232     1.772923744524     1.007825032230
         H           -2.959959529754    -1.967951611232     0.604230744524     1.007825032230
         H           -1.909922529754    -1.043902611232     1.692047744524     1.007825032230
         H           -1.220213529754    -2.304116611232     0.639202744524     1.007825032230
         H           -2.445114529754     1.330604388768    -0.154968255476     1.007825032230

  Running in c1 symmetry.

  Rotational constants: A =      0.10232  B =      0.02845  C =      0.02688 [cm^-1]
  Rotational constants: A =   3067.49558  B =    852.90311  C =    805.73580 [MHz]
  Nuclear repulsion =  485.557555275725974

  Charge       = 0
  Multiplicity = 1
  Electrons    = 72
  Nalpha       = 36
  Nbeta        = 36

  ==> Algorithm <==

  SCF Algorithm Type is DF.
  DIIS enabled.
  MOM disabled.
  Fractional occupation disabled.
  Guess Type is SAD.
  Energy threshold   = 1.00e-10
  Density threshold  = 1.00e-10
  Integral threshold = 0.00e+00

  ==> Primary Basis <==

  Basis Set: AUG-CC-PVTZ
    Blend: AUG-CC-PVTZ
    Number of shells: 243
    Number of basis function: 713
    Number of Cartesian functions: 820
    Spherical Harmonics?: true
    Max angular momentum: 3

   => Loading Basis Set <=

    Name: (AUG-CC-PVTZ AUX)
    Role: JKFIT
    Keyword: DF_BASIS_SCF
    atoms 1-2   entry O          line   286 file /home/xy3866/psi4conda/share/psi4/basis/aug-cc-pvtz-jkfit.gbs 
    atoms 3     entry N          line   224 file /home/xy3866/psi4conda/share/psi4/basis/aug-cc-pvtz-jkfit.gbs 
    atoms 4-9   entry C          line   162 file /home/xy3866/psi4conda/share/psi4/basis/aug-cc-pvtz-jkfit.gbs 
    atoms 10-22 entry H          line    70 file /home/xy3866/psi4conda/share/psi4/basis/aug-cc-pvtz-jkfit.gbs 

  ==> Pre-Iterations <==

   -------------------------------------------------------
    Irrep   Nso     Nmo     Nalpha   Nbeta   Ndocc  Nsocc
   -------------------------------------------------------
     A        713     713       0       0       0       0
   -------------------------------------------------------
    Total     713     713      36      36      36       0
   -------------------------------------------------------

  ==> Integral Setup <==

  DFHelper Memory: AOs need 5.580 GiB; user supplied 22.352 GiB. Using in-core AOs.

  ==> MemDFJK: Density-Fitted J/K Matrices <==

    J tasked:                   Yes
    K tasked:                   Yes
    wK tasked:                   No
    OpenMP threads:               8
    Memory [MiB]:             22888
    Algorithm:                 Disk
    Schwarz Cutoff:           1E-12
    Mask sparsity (%):       6.5543
    Fitting Condition:        1E-10

   => Auxiliary Basis Set <=

  Basis Set: (AUG-CC-PVTZ AUX)
    Blend: AUG-CC-PVTZ-JKFIT
    Number of shells: 452
    Number of basis function: 1534
    Number of Cartesian functions: 1894
    Spherical Harmonics?: true
    Max angular momentum: 4

  Minimum eigenvalue in the overlap matrix is 2.6836360282E-06.
  Using Symmetric Orthogonalization.

  SCF Guess: Superposition of Atomic Densities via on-the-fly atomic UHF.

  ==> Iterations <==

                           Total Energy        Delta E     RMS |[F,P]|

   @DF-RHF iter SAD:  -438.34267815559224   -4.38343e+02   0.00000e+00 
   @DF-RHF iter   1:  -438.78191781428745   -4.39240e-01   1.14905e-03 DIIS
   @DF-RHF iter   2:  -439.06052909716925   -2.78611e-01   6.15276e-04 DIIS
   @DF-RHF iter   3:  -439.13251786163119   -7.19888e-02   1.27727e-04 DIIS
   @DF-RHF iter   4:  -439.13738553135551   -4.86767e-03   5.36778e-05 DIIS
   @DF-RHF iter   5:  -439.13821005875837   -8.24527e-04   1.09493e-05 DIIS
   @DF-RHF iter   6:  -439.13826118611223   -5.11274e-05   5.05564e-06 DIIS
   @DF-RHF iter   7:  -439.13827127985940   -1.00937e-05   1.52021e-06 DIIS
   @DF-RHF iter   8:  -439.13827317741016   -1.89755e-06   6.90790e-07 DIIS
   @DF-RHF iter   9:  -439.13827353397727   -3.56567e-07   2.29015e-07 DIIS
   @DF-RHF iter  10:  -439.13827357621784   -4.22406e-08   7.08595e-08 DIIS
   @DF-RHF iter  11:  -439.13827357932416   -3.10632e-09   2.29728e-08 DIIS
   @DF-RHF iter  12:  -439.13827357957223   -2.48065e-10   8.14164e-09 DIIS
   @DF-RHF iter  13:  -439.13827357959968   -2.74554e-11   2.15482e-09 DIIS
   @DF-RHF iter  14:  -439.13827357960514   -5.45697e-12   7.25564e-10 DIIS
   @DF-RHF iter  15:  -439.13827357960270    2.44427e-12   2.25325e-10 DIIS
   @DF-RHF iter  16:  -439.13827357960190    7.95808e-13   9.57256e-11 DIIS
  Energy and wave function converged.


  ==> Post-Iterations <==

    Orbital Energies [Eh]
    ---------------------

    Doubly Occupied:                                                      

       1A    -20.547351     2A    -20.531917     3A    -15.595420  
       4A    -11.357800     5A    -11.297853     6A    -11.277059  
       7A    -11.232199     8A    -11.230546     9A    -11.222128  
      10A     -1.397703    11A     -1.347385    12A     -1.247744  
      13A     -1.072348    14A     -1.024365    15A     -0.949723  
      16A     -0.895115    17A     -0.822527    18A     -0.794847  
      19A     -0.736860    20A     -0.680464    21A     -0.651302  
      22A     -0.632297    23A     -0.628560    24A     -0.596837  
      25A     -0.581558    26A     -0.567032    27A     -0.554997  
      28A     -0.548002    29A     -0.539786    30A     -0.530160  
      31A     -0.512380    32A     -0.502618    33A     -0.491272  
      34A     -0.445946    35A     -0.433832    36A     -0.401127  

    Virtual:                                                              

      37A      0.021333    38A      0.031269    39A      0.033340  
      40A      0.039673    41A      0.047228    42A      0.049195  
      43A      0.053702    44A      0.056780    45A      0.059120  
      46A      0.067382    47A      0.074595    48A      0.074827  
      49A      0.084306    50A      0.103490    51A      0.109337  
      52A      0.112562    53A      0.115454    54A      0.117860  
      55A      0.121097    56A      0.127554    57A      0.129160  
      58A      0.133801    59A      0.137524    60A      0.141814  
      61A      0.147858    62A      0.149450    63A      0.153246  
      64A      0.153908    65A      0.155661    66A      0.163362  
      67A      0.170324    68A      0.173537    69A      0.178934  
      70A      0.185117    71A      0.190754    72A      0.200143  
      73A      0.203820    74A      0.222464    75A      0.223976  
      76A      0.227621    77A      0.233913    78A      0.238147  
      79A      0.243985    80A      0.249304    81A      0.255509  
      82A      0.264657    83A      0.270884    84A      0.274806  
      85A      0.275882    86A      0.281099    87A      0.286611  
      88A      0.290928    89A      0.299655    90A      0.302854  
      91A      0.310617    92A      0.316533    93A      0.319199  
      94A      0.325855    95A      0.330978    96A      0.334983  
      97A      0.341833    98A      0.343223    99A      0.345376  
     100A      0.351927   101A      0.353806   102A      0.361263  
     103A      0.363957   104A      0.370123   105A      0.371302  
     106A      0.375617   107A      0.378240   108A      0.382781  
     109A      0.386450   110A      0.389665   111A      0.394064  
     112A      0.402510   113A      0.405639   114A      0.407531  
     115A      0.414415   116A      0.418923   117A      0.427814  
     118A      0.430071   119A      0.435590   120A      0.441262  
     121A      0.441872   122A      0.447602   123A      0.454127  
     124A      0.456416   125A      0.462192   126A      0.463579  
     127A      0.468737   128A      0.471608   129A      0.478849  
     130A      0.481370   131A      0.483238   132A      0.487995  
     133A      0.488692   134A      0.495854   135A      0.501467  
     136A      0.504654   137A      0.508482   138A      0.511326  
     139A      0.523614   140A      0.526731   141A      0.528840  
     142A      0.534829   143A      0.539113   144A      0.541995  
     145A      0.546460   146A      0.559116   147A      0.565415  
     148A      0.569822   149A      0.572328   150A      0.575526  
     151A      0.577684   152A      0.585194   153A      0.594243  
     154A      0.598589   155A      0.603060   156A      0.607253  
     157A      0.613098   158A      0.622447   159A      0.625022  
     160A      0.632329   161A      0.636628   162A      0.641457  
     163A      0.641862   164A      0.652236   165A      0.661796  
     166A      0.666554   167A      0.678753   168A      0.690659  
     169A      0.696006   170A      0.698665   171A      0.713654  
     172A      0.720879   173A      0.722416   174A      0.728472  
     175A      0.736616   176A      0.746167   177A      0.757038  
     178A      0.767012   179A      0.776527   180A      0.779998  
     181A      0.788821   182A      0.794021   183A      0.798058  
     184A      0.805087   185A      0.806827   186A      0.818229  
     187A      0.820961   188A      0.830099   189A      0.835966  
     190A      0.839937   191A      0.850951   192A      0.856974  
     193A      0.864703   194A      0.871035   195A      0.879447  
     196A      0.880925   197A      0.885387   198A      0.892849  
     199A      0.899176   200A      0.904382   201A      0.908261  
     202A      0.915023   203A      0.925502   204A      0.930325  
     205A      0.932197   206A      0.938370   207A      0.943230  
     208A      0.945831   209A      0.951345   210A      0.958250  
     211A      0.962865   212A      0.971752   213A      0.972166  
     214A      0.974794   215A      0.983105   216A      0.991390  
     217A      0.996821   218A      1.009421   219A      1.011637  
     220A      1.014932   221A      1.021122   222A      1.024857  
     223A      1.030818   224A      1.035778   225A      1.043656  
     226A      1.050941   227A      1.056030   228A      1.067695  
     229A      1.076274   230A      1.080839   231A      1.083749  
     232A      1.089160   233A      1.102505   234A      1.104081  
     235A      1.108587   236A      1.114894   237A      1.121799  
     238A      1.127561   239A      1.130638   240A      1.140741  
     241A      1.145971   242A      1.154863   243A      1.159543  
     244A      1.168869   245A      1.171492   246A      1.178859  
     247A      1.188569   248A      1.193302   249A      1.196657  
     250A      1.203329   251A      1.207509   252A      1.216609  
     253A      1.225868   254A      1.230159   255A      1.237677  
     256A      1.243594   257A      1.246234   258A      1.255237  
     259A      1.265333   260A      1.269587   261A      1.272270  
     262A      1.277912   263A      1.282832   264A      1.296061  
     265A      1.301786   266A      1.309503   267A      1.317149  
     268A      1.320635   269A      1.325661   270A      1.327886  
     271A      1.333661   272A      1.348563   273A      1.356133  
     274A      1.364573   275A      1.369358   276A      1.374023  
     277A      1.386754   278A      1.391032   279A      1.405647  
     280A      1.410621   281A      1.414337   282A      1.424416  
     283A      1.426287   284A      1.435706   285A      1.440281  
     286A      1.453233   287A      1.460160   288A      1.463501  
     289A      1.471214   290A      1.484645   291A      1.490587  
     292A      1.499659   293A      1.503811   294A      1.512693  
     295A      1.522228   296A      1.525690   297A      1.537788  
     298A      1.538480   299A      1.550132   300A      1.560422  
     301A      1.565541   302A      1.575552   303A      1.586383  
     304A      1.595451   305A      1.598781   306A      1.608598  
     307A      1.614253   308A      1.618893   309A      1.632155  
     310A      1.646803   311A      1.653388   312A      1.660959  
     313A      1.666697   314A      1.669000   315A      1.680303  
     316A      1.683440   317A      1.684662   318A      1.696186  
     319A      1.701197   320A      1.709021   321A      1.718398  
     322A      1.726588   323A      1.736836   324A      1.739417  
     325A      1.744154   326A      1.753164   327A      1.760998  
     328A      1.762187   329A      1.769158   330A      1.776040  
     331A      1.781544   332A      1.785283   333A      1.794512  
     334A      1.803982   335A      1.807071   336A      1.819869  
     337A      1.820644   338A      1.829334   339A      1.845089  
     340A      1.861393   341A      1.866513   342A      1.878810  
     343A      1.883039   344A      1.886024   345A      1.896766  
     346A      1.912077   347A      1.919971   348A      1.926491  
     349A      1.935634   350A      1.941950   351A      1.945418  
     352A      1.960964   353A      1.966144   354A      1.970831  
     355A      1.986811   356A      1.991893   357A      1.996243  
     358A      1.999275   359A      2.012499   360A      2.015568  
     361A      2.027894   362A      2.033173   363A      2.046446  
     364A      2.060169   365A      2.069672   366A      2.075564  
     367A      2.079144   368A      2.098507   369A      2.105496  
     370A      2.133374   371A      2.136059   372A      2.149948  
     373A      2.154525   374A      2.170131   375A      2.179689  
     376A      2.185052   377A      2.194221   378A      2.205784  
     379A      2.214972   380A      2.234742   381A      2.242033  
     382A      2.251659   383A      2.254248   384A      2.267660  
     385A      2.280436   386A      2.287177   387A      2.297933  
     388A      2.300636   389A      2.307921   390A      2.319056  
     391A      2.330090   392A      2.342034   393A      2.352235  
     394A      2.363356   395A      2.368069   396A      2.381652  
     397A      2.392220   398A      2.405995   399A      2.421754  
     400A      2.430398   401A      2.448427   402A      2.455233  
     403A      2.474864   404A      2.497814   405A      2.502439  
     406A      2.519602   407A      2.525485   408A      2.546529  
     409A      2.556091   410A      2.567397   411A      2.585158  
     412A      2.593734   413A      2.606900   414A      2.624990  
     415A      2.641473   416A      2.651860   417A      2.680193  
     418A      2.689283   419A      2.718630   420A      2.726420  
     421A      2.733132   422A      2.768881   423A      2.789552  
     424A      2.808043   425A      2.816001   426A      2.821533  
     427A      2.850255   428A      2.864707   429A      2.885233  
     430A      2.887015   431A      2.898474   432A      2.946156  
     433A      2.967954   434A      2.978357   435A      3.005539  
     436A      3.024879   437A      3.045539   438A      3.051617  
     439A      3.079438   440A      3.093300   441A      3.113741  
     442A      3.120167   443A      3.143954   444A      3.158303  
     445A      3.206557   446A      3.217932   447A      3.252702  
     448A      3.275996   449A      3.302394   450A      3.336442  
     451A      3.350730   452A      3.379340   453A      3.399588  
     454A      3.414724   455A      3.431560   456A      3.452084  
     457A      3.471935   458A      3.483243   459A      3.494220  
     460A      3.508779   461A      3.528185   462A      3.539193  
     463A      3.548194   464A      3.558939   465A      3.570163  
     466A      3.591465   467A      3.617488   468A      3.627983  
     469A      3.646475   470A      3.660693   471A      3.668997  
     472A      3.669677   473A      3.684059   474A      3.697581  
     475A      3.708418   476A      3.714362   477A      3.719365  
     478A      3.727056   479A      3.735521   480A      3.748510  
     481A      3.756835   482A      3.772948   483A      3.781152  
     484A      3.792231   485A      3.801900   486A      3.812982  
     487A      3.846019   488A      3.851339   489A      3.856934  
     490A      3.881850   491A      3.886461   492A      3.893827  
     493A      3.896083   494A      3.906770   495A      3.928738  
     496A      3.939474   497A      3.945289   498A      3.955527  
     499A      3.961676   500A      3.979892   501A      3.985186  
     502A      3.992799   503A      4.007648   504A      4.023813  
     505A      4.027658   506A      4.037104   507A      4.043764  
     508A      4.056224   509A      4.065888   510A      4.073945  
     511A      4.086460   512A      4.100165   513A      4.108709  
     514A      4.114778   515A      4.137254   516A      4.150312  
     517A      4.155012   518A      4.165376   519A      4.174435  
     520A      4.189140   521A      4.198201   522A      4.205838  
     523A      4.220619   524A      4.225573   525A      4.234946  
     526A      4.247928   527A      4.249898   528A      4.267570  
     529A      4.287252   530A      4.294420   531A      4.302735  
     532A      4.318224   533A      4.325622   534A      4.331826  
     535A      4.338100   536A      4.361542   537A      4.367186  
     538A      4.381692   539A      4.395714   540A      4.409271  
     541A      4.433679   542A      4.447633   543A      4.461634  
     544A      4.478425   545A      4.481082   546A      4.510829  
     547A      4.511702   548A      4.529045   549A      4.549333  
     550A      4.555691   551A      4.577010   552A      4.581857  
     553A      4.591965   554A      4.608454   555A      4.621432  
     556A      4.628803   557A      4.647100   558A      4.659586  
     559A      4.666343   560A      4.701619   561A      4.705890  
     562A      4.727173   563A      4.733851   564A      4.736302  
     565A      4.754307   566A      4.760291   567A      4.792606  
     568A      4.807072   569A      4.822435   570A      4.828348  
     571A      4.844294   572A      4.852313   573A      4.867433  
     574A      4.878196   575A      4.880949   576A      4.892101  
     577A      4.902891   578A      4.922782   579A      4.937245  
     580A      4.944270   581A      4.963783   582A      4.976362  
     583A      4.994679   584A      5.000384   585A      5.007354  
     586A      5.046142   587A      5.055377   588A      5.070129  
     589A      5.078236   590A      5.098944   591A      5.115769  
     592A      5.127112   593A      5.135899   594A      5.140009  
     595A      5.159182   596A      5.183002   597A      5.190602  
     598A      5.196884   599A      5.223103   600A      5.242966  
     601A      5.253160   602A      5.270245   603A      5.271260  
     604A      5.291280   605A      5.311276   606A      5.326037  
     607A      5.340662   608A      5.348722   609A      5.356561  
     610A      5.371575   611A      5.378772   612A      5.400123  
     613A      5.427534   614A      5.434612   615A      5.441955  
     616A      5.451711   617A      5.461428   618A      5.479684  
     619A      5.491953   620A      5.507139   621A      5.516803  
     622A      5.531227   623A      5.542213   624A      5.560288  
     625A      5.578970   626A      5.604313   627A      5.616929  
     628A      5.631954   629A      5.654559   630A      5.675015  
     631A      5.688674   632A      5.704805   633A      5.739091  
     634A      5.745874   635A      5.773646   636A      5.782296  
     637A      5.790721   638A      5.819301   639A      5.844490  
     640A      5.855841   641A      5.873912   642A      5.898193  
     643A      5.931574   644A      5.934972   645A      5.953567  
     646A      6.005628   647A      6.006919   648A      6.049280  
     649A      6.074971   650A      6.139766   651A      6.159056  
     652A      6.168043   653A      6.190422   654A      6.195561  
     655A      6.216896   656A      6.231202   657A      6.245514  
     658A      6.267705   659A      6.283187   660A      6.307324  
     661A      6.325424   662A      6.326816   663A      6.404732  
     664A      6.422409   665A      6.562587   666A      6.576743  
     667A      6.627746   668A      6.678496   669A      6.763701  
     670A      6.780512   671A      6.817669   672A      6.836289  
     673A      6.850709   674A      6.872609   675A      6.882762  
     676A      6.899709   677A      6.932571   678A      6.946610  
     679A      7.015817   680A      7.024237   681A      7.043261  
     682A      7.053744   683A      7.104595   684A      7.148018  
     685A      7.153852   686A      7.257065   687A      7.274822  
     688A      7.366272   689A      7.416055   690A      7.470621  
     691A      7.503041   692A      7.579304   693A      7.588388  
     694A      7.662791   695A      7.716165   696A      7.772006  
     697A      7.787033   698A      7.855728   699A      7.913650  
     700A      8.013577   701A      8.067384   702A      8.175136  
     703A      8.336011   704A      8.591528   705A     15.968028  
     706A     16.661535   707A     17.709328   708A     17.959092  
     709A     18.230712   710A     18.515605   711A     18.783675  
     712A     19.498225   713A     21.220368  

    Final Occupation by Irrep:
              A 
    DOCC [    36 ]

  @DF-RHF Final Energy:  -439.13827357960190

   => Energetics <=

    Nuclear Repulsion Energy =            485.5575552757259743
    One-Electron Energy =               -1561.6335418123039744
    Two-Electron Energy =                 636.9377129569761564
    Total Energy =                       -439.1382735796019006

Computation Completed

*** tstop() called on node57.bme.utexas.edu at Wed Nov  4 03:56:22 2020
Module time:
	user time   =     360.38 seconds =       6.01 minutes
	system time =      42.22 seconds =       0.70 minutes
	total time  =        125 seconds =       2.08 minutes
Total time:
	user time   =     360.38 seconds =       6.01 minutes
	system time =      42.22 seconds =       0.70 minutes
	total time  =        125 seconds =       2.08 minutes
   => Loading Basis Set <=

    Name: (AUG-CC-PVTZ AUX)
    Role: RIFIT
    Keyword: DF_BASIS_MP2
    atoms 1-2   entry O          line   264 file /home/xy3866/psi4conda/share/psi4/basis/aug-cc-pvtz-ri.gbs 
    atoms 3     entry N          line   206 file /home/xy3866/psi4conda/share/psi4/basis/aug-cc-pvtz-ri.gbs 
    atoms 4-9   entry C          line   148 file /home/xy3866/psi4conda/share/psi4/basis/aug-cc-pvtz-ri.gbs 
    atoms 10-22 entry H          line    30 file /home/xy3866/psi4conda/share/psi4/basis/aug-cc-pvtz-ri.gbs 


*** tstart() called on node57.bme.utexas.edu
*** at Wed Nov  4 03:56:22 2020


  //>>>>>>>>>>>>>>>>>>>>>>>>>>>>>>>>>>>//
  //               DFMP2               //
  //<<<<<<<<<<<<<<<<<<<<<<<<<<<<<<<<<<<//

	 --------------------------------------------------------
	                          DF-MP2                         
	      2nd-Order Density-Fitted Moller-Plesset Theory     
	              RMP2 Wavefunction,   8 Threads             
	                                                         
	        Rob Parrish, Justin Turney, Andy Simmonett,      
	           Ed Hohenstein, and C. David Sherrill          
	 --------------------------------------------------------

   => Auxiliary Basis Set <=

  Basis Set: (AUG-CC-PVTZ AUX)
    Blend: AUG-CC-PVTZ-RI
    Number of shells: 434
    Number of basis function: 1552
    Number of Cartesian functions: 1939
    Spherical Harmonics?: true
    Max angular momentum: 4

	 --------------------------------------------------------
	                 NBF =   713, NAUX =  1552
	 --------------------------------------------------------
	   CLASS    FOCC     OCC    AOCC    AVIR     VIR    FVIR
	   PAIRS       0      36      36     677     677       0
	 --------------------------------------------------------

  DFHelper Memory: AOs need 5.580 GiB; user supplied 22.352 GiB. Using in-core AOs.


         ------------------------------------------------------------
                                     CPHF                           
                                  Rob Parrish                       
         ------------------------------------------------------------

  ==> Geometry <==

    Molecular point group: c1
    Full point group: C1

    Geometry (in Angstrom), charge = 0, multiplicity = 1:

       Center              X                  Y                   Z               Mass       
    ------------   -----------------  -----------------  -----------------  -----------------
         O           -2.870109829754     0.466491488768    -0.284862255476    15.994914619570
         O           -0.522968529754     1.536824388768     0.052018744524    15.994914619570
         N            0.655348470246    -0.375241611232    -0.338886255476    14.003074004430
         C            1.963842470246     0.226279388768    -0.098555255476    12.000000000000
         C           -1.802120529754    -0.451076611232    -0.372731255476    12.000000000000
         C            3.005877470246    -0.507702611232    -0.927011255476    12.000000000000
         C            2.292097470246     0.230463388768     1.390367744524    12.000000000000
         C           -0.494061529754     0.322968388768    -0.197768255476    12.000000000000
         C           -1.973319529754    -1.512762611232     0.707388744524    12.000000000000
         H            1.877916470246     1.260574388768    -0.443055255476     1.007825032230
         H            0.602623470246    -1.382819611232    -0.439433255476     1.007825032230
         H           -1.772364829754    -0.939643111232    -1.359403555476     1.007825032230
         H            3.989547470246    -0.051437611232    -0.791068255476     1.007825032230
         H            3.080362470246    -1.555668611232    -0.614551255476     1.007825032230
         H            2.752007470246    -0.477471611232    -1.989002255476     1.007825032230
         H            1.521609470246     0.775640388768     1.940180744524     1.007825032230
         H            3.256497470246     0.714048388768     1.573353744524     1.007825032230
         H            2.342993470246    -0.793856611232     1.772923744524     1.007825032230
         H           -2.959959529754    -1.967951611232     0.604230744524     1.007825032230
         H           -1.909922529754    -1.043902611232     1.692047744524     1.007825032230
         H           -1.220213529754    -2.304116611232     0.639202744524     1.007825032230
         H           -2.445114529754     1.330604388768    -0.154968255476     1.007825032230

  Nuclear repulsion =  485.557555275725974
  Reference energy  = -439.138273579601901

  ==> Basis Set <==

  Basis Set: AUG-CC-PVTZ
    Blend: AUG-CC-PVTZ
    Number of shells: 243
    Number of basis function: 713
    Number of Cartesian functions: 820
    Spherical Harmonics?: true
    Max angular momentum: 3

  ==> CGRSolver (by Rob Parrish) <==

   Number of roots    =         1
   Preconditioning    =    JACOBI
   Convergence cutoff =     1E-06
   Maximum iterations =       100

  ==> CPHFRHamiltonian (by Rob Parrish) <== 

  ==> MemDFJK: Density-Fitted J/K Matrices <==

    J tasked:                   Yes
    K tasked:                   Yes
    wK tasked:                   No
    OpenMP threads:               8
    Memory [MiB]:             22888
    Algorithm:                 Disk
    Schwarz Cutoff:           1E-12
    Mask sparsity (%):       6.5543
    Fitting Condition:        1E-10

   => Auxiliary Basis Set <=

  Basis Set: (AUG-CC-PVTZ AUX)
    Blend: AUG-CC-PVTZ-JKFIT
    Number of shells: 452
    Number of basis function: 1534
    Number of Cartesian functions: 1894
    Spherical Harmonics?: true
    Max angular momentum: 4

  ==> CPHF Iterations <==

  => Iterations <=

             Iter  Converged  Remaining    Residual
  CGR           1          0          1   1.112E-01
  CGR           2          0          1   3.230E-02
  CGR           3          0          1   1.240E-02
  CGR           4          0          1   3.357E-03
  CGR           5          0          1   1.294E-03
  CGR           6          0          1   3.663E-04
  CGR           7          0          1   1.265E-04
  CGR           8          0          1   5.131E-05
  CGR           9          0          1   2.075E-05
  CGR          10          0          1   7.883E-06
  CGR          11          0          1   2.472E-06
  CGR          12          1          0   7.176E-07

    CGRSolver converged.

	-----------------------------------------------------------
	 ==================> DF-MP2 Energies <==================== 
	-----------------------------------------------------------
	 Reference Energy          =    -439.1382735796019006 [Eh]
	 Singles Energy            =      -0.0000000000000000 [Eh]
	 Same-Spin Energy          =      -0.4458859310047681 [Eh]
	 Opposite-Spin Energy      =      -1.4632721404268623 [Eh]
	 Correlation Energy        =      -1.9091580714316303 [Eh]
	 Total Energy              =    -441.0474316510335484 [Eh]
	-----------------------------------------------------------
	 ================> DF-SCS-MP2 Energies <================== 
	-----------------------------------------------------------
	 SCS Same-Spin Scale       =       0.3333333333333333 [-]
	 SCS Opposite-Spin Scale   =       1.2000000000000000 [-]
	 SCS Same-Spin Energy      =      -0.1486286436682560 [Eh]
	 SCS Opposite-Spin Energy  =      -1.7559265685122347 [Eh]
	 SCS Correlation Energy    =      -1.9045552121804907 [Eh]
	 SCS Total Energy          =    -441.0428287917823695 [Eh]
	-----------------------------------------------------------



Properties will be evaluated at   0.000000,   0.000000,   0.000000 [a0]

Properties computed using the MP2 density matrix

  Nuclear Dipole Moment: [e a0]
     X:     8.5277      Y:    -6.0228      Z:     2.2783

  Electronic Dipole Moment: [e a0]
     X:    -7.1766      Y:     4.8172      Z:    -2.3528

  Dipole Moment: [e a0]
     X:     1.3511      Y:    -1.2056      Z:    -0.0745     Total:     1.8124

  Dipole Moment: [D]
     X:     3.4342      Y:    -3.0644      Z:    -0.1892     Total:     4.6065


*** tstop() called on node57.bme.utexas.edu at Wed Nov  4 03:59:43 2020
Module time:
	user time   =    1157.80 seconds =      19.30 minutes
	system time =      52.48 seconds =       0.87 minutes
	total time  =        201 seconds =       3.35 minutes
Total time:
	user time   =    1519.44 seconds =      25.32 minutes
	system time =      94.76 seconds =       1.58 minutes
	total time  =        326 seconds =       5.43 minutes

    Psi4 stopped on: Wednesday, 04 November 2020 03:59AM
    Psi4 wall time for execution: 0:05:25.73

*** Psi4 exiting successfully. Buy a developer a beer!
