
    -----------------------------------------------------------------------
          Psi4: An Open-Source Ab Initio Electronic Structure Package
                               Psi4 1.4a3.dev225 

                         Git: Rev {master} 7105e37 


    D. G. A. Smith, L. A. Burns, A. C. Simmonett, R. M. Parrish,
    M. C. Schieber, R. Galvelis, P. Kraus, H. Kruse, R. Di Remigio,
    A. Alenaizan, A. M. James, S. Lehtola, J. P. Misiewicz, M. Scheurer,
    R. A. Shaw, J. B. Schriber, Y. Xie, Z. L. Glick, D. A. Sirianni,
    J. S. O'Brien, J. M. Waldrop, A. Kumar, E. G. Hohenstein,
    B. P. Pritchard, B. R. Brooks, H. F. Schaefer III, A. Yu. Sokolov,
    K. Patkowski, A. E. DePrince III, U. Bozkaya, R. A. King,
    F. A. Evangelista, J. M. Turney, T. D. Crawford, C. D. Sherrill,
    J. Chem. Phys. 152(18) 184108 (2020). https://doi.org/10.1063/5.0006002

                            Additional Code Authors
    E. T. Seidl, C. L. Janssen, E. F. Valeev, M. L. Leininger,
    J. F. Gonthier, R. M. Richard, H. R. McAlexander, M. Saitow, X. Wang,
    P. Verma, and M. H. Lechner

             Previous Authors, Complete List of Code Contributors,
                       and Citations for Specific Modules
    https://github.com/psi4/psi4/blob/master/codemeta.json
    https://github.com/psi4/psi4/graphs/contributors
    http://psicode.org/psi4manual/master/introduction.html#citing-psifour

    -----------------------------------------------------------------------


    Psi4 started on: Saturday, 20 March 2021 08:30AM

    Process ID: 94627
    Host:       c445-091.stampede2.tacc.utexas.edu
    PSIDATADIR: /home1/07844/xy3866/miniconda3/envs/p4env/share/psi4
    Memory:     500.0 MiB
    Threads:    32
    
  ==> Input File <==

--------------------------------------------------------------------------
#psi4
#
memory 32 gb

molecule  {
0 1
  O        2.9110620    -0.5703060    -0.4523520
  O        0.5539390    -1.5540470     0.1662040
  N       -0.5943370     0.3369340    -0.3930300
  C       -1.9154150    -0.2304160    -0.1256420
  C        1.8655780     0.3788930    -0.3941620
  C       -2.9513150     0.5221750    -0.9483650
  C       -2.2232580    -0.2086170     1.3682650
  C        0.5615855    -0.3565093    -0.1936974
  C        2.1035320     1.3624180     0.7499890
  H       -1.8664900    -1.2716350    -0.4595930
  H       -0.5281980     1.3181660    -0.6377390
  H        1.8317100     0.9202690    -1.3505730
  H       -3.9433690     0.0896600    -0.7945050
  H       -2.9965010     1.5743390    -0.6446630
  H       -2.7149650     0.4749500    -2.0147890
  H       -1.4563020    -0.7629570     1.9136170
  H       -3.1950150    -0.6709470     1.5682930
  H       -2.2473660     0.8219210     1.7368640
  H        3.0888910     1.8183940     0.6312910
  H        2.0827360     0.8223960     1.7004970
  H        1.3487660     2.1553220     0.7756360
  H        2.4958040    -1.4028240    -0.1381920
units angstrom
no_reorient  #important for SAPT in psi4, default
symmetry c1  #important for SAPT in psi4, default
}

set PROPERTIES_ORIGIN ["COM"]
properties('MP2/aug-cc-pvtz', properties = ['dipole'])
--------------------------------------------------------------------------

  Memory set to  29.802 GiB by Python driver.
    SCF Algorithm Type (re)set to DF.

*** tstart() called on c445-091.stampede2.tacc.utexas.edu
*** at Sat Mar 20 08:30:57 2021

   => Loading Basis Set <=

    Name: AUG-CC-PVTZ
    Role: ORBITAL
    Keyword: BASIS
    atoms 1-2   entry O          line   331 file /home1/07844/xy3866/miniconda3/envs/p4env/share/psi4/basis/aug-cc-pvtz.gbs 
    atoms 3     entry N          line   285 file /home1/07844/xy3866/miniconda3/envs/p4env/share/psi4/basis/aug-cc-pvtz.gbs 
    atoms 4-9   entry C          line   239 file /home1/07844/xy3866/miniconda3/envs/p4env/share/psi4/basis/aug-cc-pvtz.gbs 
    atoms 10-22 entry H          line    40 file /home1/07844/xy3866/miniconda3/envs/p4env/share/psi4/basis/aug-cc-pvtz.gbs 


         ---------------------------------------------------------
                                   SCF
               by Justin Turney, Rob Parrish, Andy Simmonett
                          and Daniel G. A. Smith
                              RHF Reference
                       32 Threads,  30517 MiB Core
         ---------------------------------------------------------

  ==> Geometry <==

    Molecular point group: c1
    Full point group: C1

    Geometry (in Angstrom), charge = 0, multiplicity = 1:

       Center              X                  Y                   Z               Mass       
    ------------   -----------------  -----------------  -----------------  -----------------
         O            2.848323685392    -0.526732221339    -0.434808514981    15.994914619570
         O            0.491200685392    -1.510473221339     0.183747485019    15.994914619570
         N           -0.657075314608     0.380507778661    -0.375486514981    14.003074004430
         C           -1.978153314608    -0.186842221339    -0.108098514981    12.000000000000
         C            1.802839685392     0.422466778661    -0.376618514981    12.000000000000
         C           -3.014053314608     0.565748778661    -0.930821514981    12.000000000000
         C           -2.285996314608    -0.165043221339     1.385808485019    12.000000000000
         C            0.498847185392    -0.312935521339    -0.176153914981    12.000000000000
         C            2.040793685392     1.405991778661     0.767532485019    12.000000000000
         H           -1.929228314608    -1.228061221339    -0.442049514981     1.007825032230
         H           -0.590936314608     1.361739778661    -0.620195514981     1.007825032230
         H            1.768971685392     0.963842778661    -1.333029514981     1.007825032230
         H           -4.006107314608     0.133233778661    -0.776961514981     1.007825032230
         H           -3.059239314608     1.617912778661    -0.627119514981     1.007825032230
         H           -2.777703314608     0.518523778661    -1.997245514981     1.007825032230
         H           -1.519040314608    -0.719383221339     1.931160485019     1.007825032230
         H           -3.257753314608    -0.627373221339     1.585836485019     1.007825032230
         H           -2.310104314608     0.865494778661     1.754407485019     1.007825032230
         H            3.026152685392     1.861967778661     0.648834485019     1.007825032230
         H            2.019997685392     0.865969778661     1.718040485019     1.007825032230
         H            1.286027685392     2.198895778661     0.793179485019     1.007825032230
         H            2.433065685392    -1.359250221339    -0.120648514981     1.007825032230

  Running in c1 symmetry.

  Rotational constants: A =      0.10309  B =      0.02812  C =      0.02698 [cm^-1]
  Rotational constants: A =   3090.59566  B =    843.01179  C =    808.79481 [MHz]
  Nuclear repulsion =  484.990049550453705

  Charge       = 0
  Multiplicity = 1
  Electrons    = 72
  Nalpha       = 36
  Nbeta        = 36

  ==> Algorithm <==

  SCF Algorithm Type is DF.
  DIIS enabled.
  MOM disabled.
  Fractional occupation disabled.
  Guess Type is SAD.
  Energy threshold   = 1.00e-10
  Density threshold  = 1.00e-10
  Integral threshold = 1.00e-12

  ==> Primary Basis <==

  Basis Set: AUG-CC-PVTZ
    Blend: AUG-CC-PVTZ
    Number of shells: 243
    Number of basis functions: 713
    Number of Cartesian functions: 820
    Spherical Harmonics?: true
    Max angular momentum: 3

   => Loading Basis Set <=

    Name: (AUG-CC-PVTZ AUX)
    Role: JKFIT
    Keyword: DF_BASIS_SCF
    atoms 1-2   entry O          line   286 file /home1/07844/xy3866/miniconda3/envs/p4env/share/psi4/basis/aug-cc-pvtz-jkfit.gbs 
    atoms 3     entry N          line   224 file /home1/07844/xy3866/miniconda3/envs/p4env/share/psi4/basis/aug-cc-pvtz-jkfit.gbs 
    atoms 4-9   entry C          line   162 file /home1/07844/xy3866/miniconda3/envs/p4env/share/psi4/basis/aug-cc-pvtz-jkfit.gbs 
    atoms 10-22 entry H          line    70 file /home1/07844/xy3866/miniconda3/envs/p4env/share/psi4/basis/aug-cc-pvtz-jkfit.gbs 

  ==> Integral Setup <==

  DFHelper Memory: AOs need 5.421 GiB; user supplied 22.352 GiB. Using in-core AOs.

  ==> MemDFJK: Density-Fitted J/K Matrices <==

    J tasked:                   Yes
    K tasked:                   Yes
    wK tasked:                   No
    OpenMP threads:              32
    Memory [MiB]:             22888
    Algorithm:                 Core
    Schwarz Cutoff:           1E-12
    Mask sparsity (%):      10.8484
    Fitting Condition:        1E-10

   => Auxiliary Basis Set <=

  Basis Set: (AUG-CC-PVTZ AUX)
    Blend: AUG-CC-PVTZ-JKFIT
    Number of shells: 452
    Number of basis functions: 1534
    Number of Cartesian functions: 1894
    Spherical Harmonics?: true
    Max angular momentum: 4

  Minimum eigenvalue in the overlap matrix is 2.7110893675E-06.
  Reciprocal condition number of the overlap matrix is 1.2830428076E-07.
    Using symmetric orthogonalization.

  ==> Pre-Iterations <==

  SCF Guess: Superposition of Atomic Densities via on-the-fly atomic UHF (no occupation information).

   -------------------------
    Irrep   Nso     Nmo    
   -------------------------
     A        713     713 
   -------------------------
    Total     713     713
   -------------------------

  ==> Iterations <==

                           Total Energy        Delta E     RMS |[F,P]|

   @DF-RHF iter SAD:  -438.29193891936416   -4.38292e+02   0.00000e+00 
   @DF-RHF iter   1:  -438.78026747455135   -4.88329e-01   1.14669e-03 DIIS
   @DF-RHF iter   2:  -439.05756334875326   -2.77296e-01   6.18355e-04 DIIS
   @DF-RHF iter   3:  -439.13015706846858   -7.25937e-02   1.30477e-04 DIIS
   @DF-RHF iter   4:  -439.13514305200300   -4.98598e-03   5.48053e-05 DIIS
   @DF-RHF iter   5:  -439.13600730360588   -8.64252e-04   1.11154e-05 DIIS
   @DF-RHF iter   6:  -439.13605989726318   -5.25937e-05   5.10861e-06 DIIS
   @DF-RHF iter   7:  -439.13607030899254   -1.04117e-05   1.54542e-06 DIIS
   @DF-RHF iter   8:  -439.13607228308950   -1.97410e-06   7.08381e-07 DIIS
   @DF-RHF iter   9:  -439.13607266542505   -3.82336e-07   2.37628e-07 DIIS
   @DF-RHF iter  10:  -439.13607271239385   -4.69688e-08   7.50267e-08 DIIS
   @DF-RHF iter  11:  -439.13607271602859   -3.63474e-09   2.46903e-08 DIIS
   @DF-RHF iter  12:  -439.13607271632583   -2.97234e-10   8.89580e-09 DIIS
   @DF-RHF iter  13:  -439.13607271635948   -3.36513e-11   2.40050e-09 DIIS
   @DF-RHF iter  14:  -439.13607271636329   -3.80851e-12   8.31780e-10 DIIS
   @DF-RHF iter  15:  -439.13607271636243    8.52651e-13   2.58536e-10 DIIS
   @DF-RHF iter  16:  -439.13607271636317   -7.38964e-13   1.11196e-10 DIIS
   @DF-RHF iter  17:  -439.13607271636283    3.41061e-13   4.82412e-11 DIIS
  Energy and wave function converged.


  ==> Post-Iterations <==

    Orbital Energies [Eh]
    ---------------------

    Doubly Occupied:                                                      

       1A    -20.549672     2A    -20.531327     3A    -15.595841  
       4A    -11.359819     5A    -11.298615     6A    -11.277828  
       7A    -11.233124     8A    -11.231272     9A    -11.220492  
      10A     -1.392611    11A     -1.344850    12A     -1.243003  
      13A     -1.071929    14A     -1.025359    15A     -0.949004  
      16A     -0.897659    17A     -0.821531    18A     -0.791720  
      19A     -0.739348    20A     -0.677463    21A     -0.643186  
      22A     -0.633588    23A     -0.628514    24A     -0.592832  
      25A     -0.582954    26A     -0.571882    27A     -0.554655  
      28A     -0.548144    29A     -0.537020    30A     -0.527473  
      31A     -0.512097    32A     -0.500976    33A     -0.490394  
      34A     -0.447471    35A     -0.434583    36A     -0.399736  

    Virtual:                                                              

      37A      0.021421    38A      0.031249    39A      0.033541  
      40A      0.039635    41A      0.047082    42A      0.049238  
      43A      0.053612    44A      0.056864    45A      0.059356  
      46A      0.067272    47A      0.074467    48A      0.074729  
      49A      0.084333    50A      0.102995    51A      0.109276  
      52A      0.111911    53A      0.114609    54A      0.118213  
      55A      0.122600    56A      0.127863    57A      0.129109  
      58A      0.133563    59A      0.136933    60A      0.141621  
      61A      0.146875    62A      0.149347    63A      0.152722  
      64A      0.153366    65A      0.155704    66A      0.163173  
      67A      0.168904    68A      0.172480    69A      0.178098  
      70A      0.183747    71A      0.190515    72A      0.200148  
      73A      0.202923    74A      0.220870    75A      0.224212  
      76A      0.226705    77A      0.235556    78A      0.239593  
      79A      0.242548    80A      0.251679    81A      0.257449  
      82A      0.263179    83A      0.269739    84A      0.272814  
      85A      0.276440    86A      0.280754    87A      0.287553  
      88A      0.294935    89A      0.297125    90A      0.303523  
      91A      0.308543    92A      0.315966    93A      0.320466  
      94A      0.326777    95A      0.329295    96A      0.333004  
      97A      0.340494    98A      0.343482    99A      0.346434  
     100A      0.350245   101A      0.355602   102A      0.361346  
     103A      0.363026   104A      0.368459   105A      0.372909  
     106A      0.374539   107A      0.379195   108A      0.380441  
     109A      0.387402   110A      0.388233   111A      0.393169  
     112A      0.401830   113A      0.403438   114A      0.406891  
     115A      0.414243   116A      0.418434   117A      0.428028  
     118A      0.433329   119A      0.435706   120A      0.439430  
     121A      0.443521   122A      0.445497   123A      0.452870  
     124A      0.457685   125A      0.462909   126A      0.467111  
     127A      0.470108   128A      0.473219   129A      0.474884  
     130A      0.481174   131A      0.484641   132A      0.486558  
     133A      0.490008   134A      0.493738   135A      0.497283  
     136A      0.505790   137A      0.507333   138A      0.508977  
     139A      0.520932   140A      0.523335   141A      0.530105  
     142A      0.533343   143A      0.540627   144A      0.541847  
     145A      0.545541   146A      0.559243   147A      0.564614  
     148A      0.567159   149A      0.571969   150A      0.574447  
     151A      0.578025   152A      0.585793   153A      0.591200  
     154A      0.599598   155A      0.603343   156A      0.605371  
     157A      0.609364   158A      0.621301   159A      0.624130  
     160A      0.628010   161A      0.633967   162A      0.640381  
     163A      0.645130   164A      0.651460   165A      0.662361  
     166A      0.666011   167A      0.676266   168A      0.684150  
     169A      0.694083   170A      0.697792   171A      0.713468  
     172A      0.716466   173A      0.720404   174A      0.729377  
     175A      0.740415   176A      0.749948   177A      0.757068  
     178A      0.766195   179A      0.779938   180A      0.782291  
     181A      0.785391   182A      0.786285   183A      0.795749  
     184A      0.801152   185A      0.804239   186A      0.815753  
     187A      0.818724   188A      0.826844   189A      0.830520  
     190A      0.840180   191A      0.852364   192A      0.858173  
     193A      0.866787   194A      0.870063   195A      0.877068  
     196A      0.879161   197A      0.886493   198A      0.889566  
     199A      0.894996   200A      0.901207   201A      0.908759  
     202A      0.912342   203A      0.924089   204A      0.927604  
     205A      0.933914   206A      0.940236   207A      0.945515  
     208A      0.950144   209A      0.953556   210A      0.959210  
     211A      0.961910   212A      0.969433   213A      0.973449  
     214A      0.976726   215A      0.979045   216A      0.990281  
     217A      0.995373   218A      0.999993   219A      1.009604  
     220A      1.015603   221A      1.024493   222A      1.028992  
     223A      1.030961   224A      1.034520   225A      1.045078  
     226A      1.051548   227A      1.057827   228A      1.069027  
     229A      1.075179   230A      1.081822   231A      1.086707  
     232A      1.088953   233A      1.094153   234A      1.107228  
     235A      1.108465   236A      1.112646   237A      1.121250  
     238A      1.123965   239A      1.130138   240A      1.141348  
     241A      1.147562   242A      1.150620   243A      1.154632  
     244A      1.167320   245A      1.170050   246A      1.179376  
     247A      1.185860   248A      1.188163   249A      1.193050  
     250A      1.198609   251A      1.207855   252A      1.213563  
     253A      1.223169   254A      1.228259   255A      1.231833  
     256A      1.241082   257A      1.248144   258A      1.255964  
     259A      1.258398   260A      1.260656   261A      1.269012  
     262A      1.274424   263A      1.281122   264A      1.291139  
     265A      1.300052   266A      1.307033   267A      1.318949  
     268A      1.320789   269A      1.321426   270A      1.330186  
     271A      1.339253   272A      1.343586   273A      1.347218  
     274A      1.353059   275A      1.365265   276A      1.381328  
     277A      1.396487   278A      1.397098   279A      1.407766  
     280A      1.410006   281A      1.415296   282A      1.418558  
     283A      1.427429   284A      1.432683   285A      1.434601  
     286A      1.454972   287A      1.458363   288A      1.464086  
     289A      1.469283   290A      1.477185   291A      1.494220  
     292A      1.495835   293A      1.503647   294A      1.507966  
     295A      1.516121   296A      1.529507   297A      1.535428  
     298A      1.540300   299A      1.549907   300A      1.554670  
     301A      1.567237   302A      1.580320   303A      1.585709  
     304A      1.589766   305A      1.602352   306A      1.610109  
     307A      1.614166   308A      1.622618   309A      1.632840  
     310A      1.648233   311A      1.651382   312A      1.655953  
     313A      1.659727   314A      1.669035   315A      1.676299  
     316A      1.685874   317A      1.688645   318A      1.693132  
     319A      1.700860   320A      1.712008   321A      1.719633  
     322A      1.724325   323A      1.734852   324A      1.740786  
     325A      1.745259   326A      1.752201   327A      1.756502  
     328A      1.760641   329A      1.768760   330A      1.773920  
     331A      1.776054   332A      1.781519   333A      1.795395  
     334A      1.810271   335A      1.814069   336A      1.821056  
     337A      1.828790   338A      1.831938   339A      1.842995  
     340A      1.860500   341A      1.866065   342A      1.873925  
     343A      1.878011   344A      1.887478   345A      1.899957  
     346A      1.911432   347A      1.915738   348A      1.922152  
     349A      1.935769   350A      1.939015   351A      1.946934  
     352A      1.953482   353A      1.956763   354A      1.974142  
     355A      1.978066   356A      1.983979   357A      1.998514  
     358A      2.006660   359A      2.009320   360A      2.022157  
     361A      2.028690   362A      2.034844   363A      2.042621  
     364A      2.056050   365A      2.069150   366A      2.073561  
     367A      2.079432   368A      2.096502   369A      2.109385  
     370A      2.130444   371A      2.140437   372A      2.147410  
     373A      2.151540   374A      2.158947   375A      2.174872  
     376A      2.177068   377A      2.192693   378A      2.201205  
     379A      2.215296   380A      2.222599   381A      2.243664  
     382A      2.245673   383A      2.254254   384A      2.259085  
     385A      2.265944   386A      2.268769   387A      2.284128  
     388A      2.288357   389A      2.290897   390A      2.314870  
     391A      2.321293   392A      2.337787   393A      2.342951  
     394A      2.351010   395A      2.364322   396A      2.375775  
     397A      2.392568   398A      2.410011   399A      2.418775  
     400A      2.430093   401A      2.446483   402A      2.473629  
     403A      2.477208   404A      2.492738   405A      2.510901  
     406A      2.520357   407A      2.531133   408A      2.539938  
     409A      2.564201   410A      2.575877   411A      2.586508  
     412A      2.600948   413A      2.608541   414A      2.618322  
     415A      2.643930   416A      2.667826   417A      2.677194  
     418A      2.682849   419A      2.711755   420A      2.723380  
     421A      2.735375   422A      2.786434   423A      2.788741  
     424A      2.797602   425A      2.821457   426A      2.827925  
     427A      2.844447   428A      2.866244   429A      2.885076  
     430A      2.892742   431A      2.904915   432A      2.942101  
     433A      2.968937   434A      2.973091   435A      3.004546  
     436A      3.022121   437A      3.039225   438A      3.060422  
     439A      3.077329   440A      3.095898   441A      3.115055  
     442A      3.125229   443A      3.139454   444A      3.152507  
     445A      3.185731   446A      3.231145   447A      3.245365  
     448A      3.278175   449A      3.288604   450A      3.326749  
     451A      3.336016   452A      3.368874   453A      3.389527  
     454A      3.412420   455A      3.440058   456A      3.445448  
     457A      3.472397   458A      3.488565   459A      3.504747  
     460A      3.513373   461A      3.527881   462A      3.537183  
     463A      3.542565   464A      3.563114   465A      3.567942  
     466A      3.587063   467A      3.619268   468A      3.623339  
     469A      3.640808   470A      3.653704   471A      3.664064  
     472A      3.676891   473A      3.686139   474A      3.691389  
     475A      3.699843   476A      3.715362   477A      3.719424  
     478A      3.726063   479A      3.735925   480A      3.744512  
     481A      3.752078   482A      3.764568   483A      3.781765  
     484A      3.795392   485A      3.804726   486A      3.817545  
     487A      3.842170   488A      3.849014   489A      3.854745  
     490A      3.870685   491A      3.883572   492A      3.892759  
     493A      3.908811   494A      3.917055   495A      3.926236  
     496A      3.945957   497A      3.947245   498A      3.951968  
     499A      3.964844   500A      3.975466   501A      3.983049  
     502A      3.995799   503A      4.004290   504A      4.013378  
     505A      4.026190   506A      4.033927   507A      4.041024  
     508A      4.053055   509A      4.058102   510A      4.067534  
     511A      4.090866   512A      4.095730   513A      4.108394  
     514A      4.117058   515A      4.139186   516A      4.164561  
     517A      4.166642   518A      4.172916   519A      4.183133  
     520A      4.188800   521A      4.201937   522A      4.206998  
     523A      4.216752   524A      4.220206   525A      4.230952  
     526A      4.238465   527A      4.248560   528A      4.267116  
     529A      4.278470   530A      4.289327   531A      4.303432  
     532A      4.312019   533A      4.325260   534A      4.332289  
     535A      4.337629   536A      4.356123   537A      4.364087  
     538A      4.366551   539A      4.380736   540A      4.402124  
     541A      4.424077   542A      4.427491   543A      4.459358  
     544A      4.478772   545A      4.489424   546A      4.505026  
     547A      4.525083   548A      4.525801   549A      4.539471  
     550A      4.555377   551A      4.559669   552A      4.586918  
     553A      4.595897   554A      4.607020   555A      4.616288  
     556A      4.633590   557A      4.635361   558A      4.664771  
     559A      4.677051   560A      4.702903   561A      4.708730  
     562A      4.715921   563A      4.730297   564A      4.742708  
     565A      4.747321   566A      4.772569   567A      4.786281  
     568A      4.805754   569A      4.817170   570A      4.825790  
     571A      4.840751   572A      4.852273   573A      4.859949  
     574A      4.872100   575A      4.886410   576A      4.887835  
     577A      4.910844   578A      4.914111   579A      4.929348  
     580A      4.941757   581A      4.956572   582A      4.972509  
     583A      4.987030   584A      5.001680   585A      5.014184  
     586A      5.032905   587A      5.043961   588A      5.052393  
     589A      5.069719   590A      5.090887   591A      5.111045  
     592A      5.124004   593A      5.128580   594A      5.142580  
     595A      5.155793   596A      5.176576   597A      5.190501  
     598A      5.209692   599A      5.217966   600A      5.225291  
     601A      5.239996   602A      5.256772   603A      5.273844  
     604A      5.289784   605A      5.317434   606A      5.324286  
     607A      5.340871   608A      5.342025   609A      5.355272  
     610A      5.379326   611A      5.384679   612A      5.396525  
     613A      5.420003   614A      5.428423   615A      5.439373  
     616A      5.453362   617A      5.460692   618A      5.478873  
     619A      5.488166   620A      5.507128   621A      5.518545  
     622A      5.525767   623A      5.528241   624A      5.573336  
     625A      5.578906   626A      5.596206   627A      5.617564  
     628A      5.635253   629A      5.655663   630A      5.667655  
     631A      5.687068   632A      5.705143   633A      5.740680  
     634A      5.744046   635A      5.756924   636A      5.770959  
     637A      5.785532   638A      5.818815   639A      5.841097  
     640A      5.849358   641A      5.874445   642A      5.897022  
     643A      5.919136   644A      5.927049   645A      5.943890  
     646A      6.004697   647A      6.013524   648A      6.044178  
     649A      6.070904   650A      6.124678   651A      6.154814  
     652A      6.164201   653A      6.181964   654A      6.199019  
     655A      6.223590   656A      6.226152   657A      6.241728  
     658A      6.257540   659A      6.283358   660A      6.308384  
     661A      6.323164   662A      6.329156   663A      6.410323  
     664A      6.430655   665A      6.560181   666A      6.582921  
     667A      6.637194   668A      6.689299   669A      6.754512  
     670A      6.763196   671A      6.808228   672A      6.827367  
     673A      6.847133   674A      6.863030   675A      6.877507  
     676A      6.887250   677A      6.931043   678A      6.953182  
     679A      7.016160   680A      7.029672   681A      7.034601  
     682A      7.067714   683A      7.095498   684A      7.137355  
     685A      7.162309   686A      7.229809   687A      7.264899  
     688A      7.336750   689A      7.415082   690A      7.478468  
     691A      7.519251   692A      7.548022   693A      7.599457  
     694A      7.644474   695A      7.694617   696A      7.763216  
     697A      7.778946   698A      7.835837   699A      7.931083  
     700A      8.016088   701A      8.054489   702A      8.153804  
     703A      8.311336   704A      8.586357   705A     15.797197  
     706A     16.577198   707A     17.685930   708A     17.870999  
     709A     18.231003   710A     18.435484   711A     18.791347  
     712A     19.459894   713A     21.137772  

    Final Occupation by Irrep:
              A 
    DOCC [    36 ]

  @DF-RHF Final Energy:  -439.13607271636283

   => Energetics <=

    Nuclear Repulsion Energy =            484.9900495504537048
    One-Electron Energy =               -1560.5362946708401068
    Two-Electron Energy =                 636.4101724040235695
    Total Energy =                       -439.1360727163628326

Computation Completed

*** tstop() called on c445-091.stampede2.tacc.utexas.edu at Sat Mar 20 08:31:38 2021
Module time:
	user time   =     753.43 seconds =      12.56 minutes
	system time =      50.29 seconds =       0.84 minutes
	total time  =         41 seconds =       0.68 minutes
Total time:
	user time   =     753.43 seconds =      12.56 minutes
	system time =      50.29 seconds =       0.84 minutes
	total time  =         41 seconds =       0.68 minutes
   => Loading Basis Set <=

    Name: (AUG-CC-PVTZ AUX)
    Role: RIFIT
    Keyword: DF_BASIS_MP2
    atoms 1-2   entry O          line   264 file /home1/07844/xy3866/miniconda3/envs/p4env/share/psi4/basis/aug-cc-pvtz-ri.gbs 
    atoms 3     entry N          line   206 file /home1/07844/xy3866/miniconda3/envs/p4env/share/psi4/basis/aug-cc-pvtz-ri.gbs 
    atoms 4-9   entry C          line   148 file /home1/07844/xy3866/miniconda3/envs/p4env/share/psi4/basis/aug-cc-pvtz-ri.gbs 
    atoms 10-22 entry H          line    30 file /home1/07844/xy3866/miniconda3/envs/p4env/share/psi4/basis/aug-cc-pvtz-ri.gbs 


*** tstart() called on c445-091.stampede2.tacc.utexas.edu
*** at Sat Mar 20 08:31:39 2021


  //>>>>>>>>>>>>>>>>>>>>>>>>>>>>>>>>>>>//
  //               DFMP2               //
  //<<<<<<<<<<<<<<<<<<<<<<<<<<<<<<<<<<<//

	 --------------------------------------------------------
	                          DF-MP2                         
	      2nd-Order Density-Fitted Moller-Plesset Theory     
	              RMP2 Wavefunction,  32 Threads             
	                                                         
	        Rob Parrish, Justin Turney, Andy Simmonett,      
	           Ed Hohenstein, and C. David Sherrill          
	 --------------------------------------------------------

   => Auxiliary Basis Set <=

  Basis Set: (AUG-CC-PVTZ AUX)
    Blend: AUG-CC-PVTZ-RI
    Number of shells: 434
    Number of basis functions: 1552
    Number of Cartesian functions: 1939
    Spherical Harmonics?: true
    Max angular momentum: 4

	 --------------------------------------------------------
	                 NBF =   713, NAUX =  1552
	 --------------------------------------------------------
	   CLASS    FOCC     OCC    AOCC    AVIR     VIR    FVIR
	   PAIRS       0      36      36     677     677       0
	 --------------------------------------------------------

  DFHelper Memory: AOs need 5.669 GiB; user supplied 22.352 GiB. Using in-core AOs.


         ------------------------------------------------------------
                                     CPHF                           
                                  Rob Parrish                       
         ------------------------------------------------------------

  ==> Geometry <==

    Molecular point group: c1
    Full point group: C1

    Geometry (in Angstrom), charge = 0, multiplicity = 1:

       Center              X                  Y                   Z               Mass       
    ------------   -----------------  -----------------  -----------------  -----------------
         O            2.848323685392    -0.526732221339    -0.434808514981    15.994914619570
         O            0.491200685392    -1.510473221339     0.183747485019    15.994914619570
         N           -0.657075314608     0.380507778661    -0.375486514981    14.003074004430
         C           -1.978153314608    -0.186842221339    -0.108098514981    12.000000000000
         C            1.802839685392     0.422466778661    -0.376618514981    12.000000000000
         C           -3.014053314608     0.565748778661    -0.930821514981    12.000000000000
         C           -2.285996314608    -0.165043221339     1.385808485019    12.000000000000
         C            0.498847185392    -0.312935521339    -0.176153914981    12.000000000000
         C            2.040793685392     1.405991778661     0.767532485019    12.000000000000
         H           -1.929228314608    -1.228061221339    -0.442049514981     1.007825032230
         H           -0.590936314608     1.361739778661    -0.620195514981     1.007825032230
         H            1.768971685392     0.963842778661    -1.333029514981     1.007825032230
         H           -4.006107314608     0.133233778661    -0.776961514981     1.007825032230
         H           -3.059239314608     1.617912778661    -0.627119514981     1.007825032230
         H           -2.777703314608     0.518523778661    -1.997245514981     1.007825032230
         H           -1.519040314608    -0.719383221339     1.931160485019     1.007825032230
         H           -3.257753314608    -0.627373221339     1.585836485019     1.007825032230
         H           -2.310104314608     0.865494778661     1.754407485019     1.007825032230
         H            3.026152685392     1.861967778661     0.648834485019     1.007825032230
         H            2.019997685392     0.865969778661     1.718040485019     1.007825032230
         H            1.286027685392     2.198895778661     0.793179485019     1.007825032230
         H            2.433065685392    -1.359250221339    -0.120648514981     1.007825032230

  Nuclear repulsion =  484.990049550453591
  Reference energy  = -439.136072716362833

  ==> Basis Set <==

  Basis Set: AUG-CC-PVTZ
    Blend: AUG-CC-PVTZ
    Number of shells: 243
    Number of basis functions: 713
    Number of Cartesian functions: 820
    Spherical Harmonics?: true
    Max angular momentum: 3

  ==> CGRSolver (by Rob Parrish) <==

   Number of roots    =         1
   Preconditioning    =    JACOBI
   Convergence cutoff =     1E-06
   Maximum iterations =       100

  ==> CPHFRHamiltonian (by Rob Parrish) <== 

  ==> MemDFJK: Density-Fitted J/K Matrices <==

    J tasked:                   Yes
    K tasked:                   Yes
    wK tasked:                   No
    OpenMP threads:              32
    Memory [MiB]:             22888
    Algorithm:                 Core
    Schwarz Cutoff:           1E-12
    Mask sparsity (%):       6.5866
    Fitting Condition:        1E-10

   => Auxiliary Basis Set <=

  Basis Set: (AUG-CC-PVTZ AUX)
    Blend: AUG-CC-PVTZ-JKFIT
    Number of shells: 452
    Number of basis functions: 1534
    Number of Cartesian functions: 1894
    Spherical Harmonics?: true
    Max angular momentum: 4

  ==> CPHF Iterations <==

  => Iterations <=

             Iter  Converged  Remaining    Residual
  CGR           1          0          1   1.130E-01
  CGR           2          0          1   3.341E-02
  CGR           3          0          1   1.294E-02
  CGR           4          0          1   3.575E-03
  CGR           5          0          1   1.385E-03
  CGR           6          0          1   3.957E-04
  CGR           7          0          1   1.349E-04
  CGR           8          0          1   5.218E-05
  CGR           9          0          1   2.050E-05
  CGR          10          0          1   7.833E-06
  CGR          11          0          1   2.567E-06
  CGR          12          1          0   8.030E-07

    CGRSolver converged.

	-----------------------------------------------------------
	 ==================> DF-MP2 Energies <==================== 
	-----------------------------------------------------------
	 Reference Energy          =    -439.1360727163628326 [Eh]
	 Singles Energy            =      -0.0000000000000000 [Eh]
	 Same-Spin Energy          =      -0.4462763240341002 [Eh]
	 Opposite-Spin Energy      =      -1.4644400711343544 [Eh]
	 Correlation Energy        =      -1.9107163951684547 [Eh]
	 Total Energy              =    -441.0467891115312682 [Eh]
	-----------------------------------------------------------
	 ================> DF-SCS-MP2 Energies <================== 
	-----------------------------------------------------------
	 SCS Same-Spin Scale       =       0.3333333333333333 [-]
	 SCS Opposite-Spin Scale   =       1.2000000000000000 [-]
	 SCS Same-Spin Energy      =      -0.1487587746780334 [Eh]
	 SCS Opposite-Spin Energy  =      -1.7573280853612252 [Eh]
	 SCS Correlation Energy    =      -1.9060868600392586 [Eh]
	 SCS Total Energy          =    -441.0421595764020708 [Eh]
	-----------------------------------------------------------



Properties will be evaluated at   0.000000,   0.000000,  -0.000000 [a0]

Properties computed using the MP2 density matrix

  Nuclear Dipole Moment: [e a0]
     X:    -8.3404      Y:     6.0391      Z:     2.3569

  Electronic Dipole Moment: [e a0]
     X:     7.0417      Y:    -4.7942      Z:    -2.4300

  Dipole Moment: [e a0]
     X:    -1.2987      Y:     1.2448      Z:    -0.0731     Total:     1.8004

  Dipole Moment: [D]
     X:    -3.3009      Y:     3.1641      Z:    -0.1858     Total:     4.5762


*** tstop() called on c445-091.stampede2.tacc.utexas.edu at Sat Mar 20 08:35:25 2021
Module time:
	user time   =    2181.03 seconds =      36.35 minutes
	system time =      68.69 seconds =       1.14 minutes
	total time  =        226 seconds =       3.77 minutes
Total time:
	user time   =    2935.53 seconds =      48.93 minutes
	system time =     119.01 seconds =       1.98 minutes
	total time  =        268 seconds =       4.47 minutes

    Psi4 stopped on: Saturday, 20 March 2021 08:35AM
    Psi4 wall time for execution: 0:04:28.90

*** Psi4 exiting successfully. Buy a developer a beer!
