099_Propionaldehyde Gaussian SP Calculation on node35.bme.utexas.edu    
Freq      RMP2-FC                                                     6-31G(d)            
Number of atoms                            I               10
Info1-9                                    I   N=           9
          21          20        1002           0           0         100
           6           2           1
Charge                                     I                0
Multiplicity                               I                1
Number of electrons                        I               32
Number of alpha electrons                  I               16
Number of beta electrons                   I               16
Number of basis functions                  I               72
Number of independent functions            I               72
Number of point charges in /Mol/           I                0
Number of translation vectors              I                0
Atomic numbers                             I   N=          10
           8           6           6           6           1           1
           1           1           1           1
Nuclear charges                            R   N=          10
  8.00000000E+00  6.00000000E+00  6.00000000E+00  6.00000000E+00  1.00000000E+00
  1.00000000E+00  1.00000000E+00  1.00000000E+00  1.00000000E+00  1.00000000E+00
Current cartesian coordinates              R   N=          30
  2.63464109E+00 -1.30633944E+00  4.97896857E-07 -1.04914257E+00  1.39425672E+00
  6.54927796E-07 -2.68107117E+00 -9.72485830E-01 -6.04459883E-07  1.74073821E+00
  8.27414270E-01 -9.05214761E-07 -1.44026879E+00  2.59311604E+00 -1.64975255E+00
 -1.44026549E+00  2.59311159E+00  1.64975826E+00 -2.28847301E+00 -2.12770939E+00
  1.66377374E+00 -2.28842974E+00 -2.12773622E+00 -1.66374594E+00 -4.68572995E+00
 -4.78068444E-01 -2.97762919E-05  3.00289150E+00  2.50289098E+00 -2.58794649E-06
Force Field                                I                0
Int Atom Types                             I   N=          10
           0           0           0           0           0           0
           0           0           0           0
MM charges                                 R   N=          10
  0.00000000E+00  0.00000000E+00  0.00000000E+00  0.00000000E+00  0.00000000E+00
  0.00000000E+00  0.00000000E+00  0.00000000E+00  0.00000000E+00  0.00000000E+00
Integer atomic weights                     I   N=          10
          16          12          12          12           1           1
           1           1           1           1
Real atomic weights                        R   N=          10
  1.59949146E+01  1.20000000E+01  1.20000000E+01  1.20000000E+01  1.00782504E+00
  1.00782504E+00  1.00782504E+00  1.00782504E+00  1.00782504E+00  1.00782504E+00
Atom fragment info                         I   N=          10
           0           0           0           0           0           0
           0           0           0           0
Atom residue num                           I   N=          10
           0           0           0           0           0           0
           0           0           0           0
Nuclear spins                              I   N=          10
           0           0           0           0           1           1
           1           1           1           1
Nuclear ZEff                               R   N=          10
 -5.60000000E+00 -3.60000000E+00 -3.60000000E+00 -3.60000000E+00 -1.00000000E+00
 -1.00000000E+00 -1.00000000E+00 -1.00000000E+00 -1.00000000E+00 -1.00000000E+00
Nuclear QMom                               R   N=          10
  0.00000000E+00  0.00000000E+00  0.00000000E+00  0.00000000E+00  0.00000000E+00
  0.00000000E+00  0.00000000E+00  0.00000000E+00  0.00000000E+00  0.00000000E+00
Nuclear GFac                               R   N=          10
  0.00000000E+00  0.00000000E+00  0.00000000E+00  0.00000000E+00  2.79284600E+00
  2.79284600E+00  2.79284600E+00  2.79284600E+00  2.79284600E+00  2.79284600E+00
MicOpt                                     I   N=          10
          -1          -1          -1          -1          -1          -1
          -1          -1          -1          -1
Number of contracted shells                I               28
Number of primitive shells                 I               68
Pure/Cartesian d shells                    I                1
Pure/Cartesian f shells                    I                0
Highest angular momentum                   I                2
Largest degree of contraction              I                6
Shell types                                I   N=          28
           0          -1          -1           2           0          -1
          -1           2           0          -1          -1           2
           0          -1          -1           2           0           0
           0           0           0           0           0           0
           0           0           0           0
Number of primitives per shell             I   N=          28
           6           3           1           1           6           3
           1           1           6           3           1           1
           6           3           1           1           3           1
           3           1           3           1           3           1
           3           1           3           1
Shell to atom map                          I   N=          28
           1           1           1           1           2           2
           2           2           3           3           3           3
           4           4           4           4           5           5
           6           6           7           7           8           8
           9           9          10          10
Primitive exponents                        R   N=          68
  5.48467166E+03  8.25234946E+02  1.88046958E+02  5.29645000E+01  1.68975704E+01
  5.79963534E+00  1.55396162E+01  3.59993359E+00  1.01376175E+00  2.70005823E-01
  8.00000000E-01  3.04752488E+03  4.57369518E+02  1.03948685E+02  2.92101553E+01
  9.28666296E+00  3.16392696E+00  7.86827235E+00  1.88128854E+00  5.44249258E-01
  1.68714478E-01  8.00000000E-01  3.04752488E+03  4.57369518E+02  1.03948685E+02
  2.92101553E+01  9.28666296E+00  3.16392696E+00  7.86827235E+00  1.88128854E+00
  5.44249258E-01  1.68714478E-01  8.00000000E-01  3.04752488E+03  4.57369518E+02
  1.03948685E+02  2.92101553E+01  9.28666296E+00  3.16392696E+00  7.86827235E+00
  1.88128854E+00  5.44249258E-01  1.68714478E-01  8.00000000E-01  1.87311370E+01
  2.82539436E+00  6.40121692E-01  1.61277759E-01  1.87311370E+01  2.82539436E+00
  6.40121692E-01  1.61277759E-01  1.87311370E+01  2.82539436E+00  6.40121692E-01
  1.61277759E-01  1.87311370E+01  2.82539436E+00  6.40121692E-01  1.61277759E-01
  1.87311370E+01  2.82539436E+00  6.40121692E-01  1.61277759E-01  1.87311370E+01
  2.82539436E+00  6.40121692E-01  1.61277759E-01
Contraction coefficients                   R   N=          68
  1.83107443E-03  1.39501722E-02  6.84450781E-02  2.32714336E-01  4.70192898E-01
  3.58520853E-01 -1.10777550E-01 -1.48026263E-01  1.13076702E+00  1.00000000E+00
  1.00000000E+00  1.83473713E-03  1.40373228E-02  6.88426223E-02  2.32184443E-01
  4.67941348E-01  3.62311985E-01 -1.19332420E-01 -1.60854152E-01  1.14345644E+00
  1.00000000E+00  1.00000000E+00  1.83473713E-03  1.40373228E-02  6.88426223E-02
  2.32184443E-01  4.67941348E-01  3.62311985E-01 -1.19332420E-01 -1.60854152E-01
  1.14345644E+00  1.00000000E+00  1.00000000E+00  1.83473713E-03  1.40373228E-02
  6.88426223E-02  2.32184443E-01  4.67941348E-01  3.62311985E-01 -1.19332420E-01
 -1.60854152E-01  1.14345644E+00  1.00000000E+00  1.00000000E+00  3.34946043E-02
  2.34726953E-01  8.13757326E-01  1.00000000E+00  3.34946043E-02  2.34726953E-01
  8.13757326E-01  1.00000000E+00  3.34946043E-02  2.34726953E-01  8.13757326E-01
  1.00000000E+00  3.34946043E-02  2.34726953E-01  8.13757326E-01  1.00000000E+00
  3.34946043E-02  2.34726953E-01  8.13757326E-01  1.00000000E+00  3.34946043E-02
  2.34726953E-01  8.13757326E-01  1.00000000E+00
P(S=P) Contraction coefficients            R   N=          68
  0.00000000E+00  0.00000000E+00  0.00000000E+00  0.00000000E+00  0.00000000E+00
  0.00000000E+00  7.08742682E-02  3.39752839E-01  7.27158577E-01  1.00000000E+00
  0.00000000E+00  0.00000000E+00  0.00000000E+00  0.00000000E+00  0.00000000E+00
  0.00000000E+00  0.00000000E+00  6.89990666E-02  3.16423961E-01  7.44308291E-01
  1.00000000E+00  0.00000000E+00  0.00000000E+00  0.00000000E+00  0.00000000E+00
  0.00000000E+00  0.00000000E+00  0.00000000E+00  6.89990666E-02  3.16423961E-01
  7.44308291E-01  1.00000000E+00  0.00000000E+00  0.00000000E+00  0.00000000E+00
  0.00000000E+00  0.00000000E+00  0.00000000E+00  0.00000000E+00  6.89990666E-02
  3.16423961E-01  7.44308291E-01  1.00000000E+00  0.00000000E+00  0.00000000E+00
  0.00000000E+00  0.00000000E+00  0.00000000E+00  0.00000000E+00  0.00000000E+00
  0.00000000E+00  0.00000000E+00  0.00000000E+00  0.00000000E+00  0.00000000E+00
  0.00000000E+00  0.00000000E+00  0.00000000E+00  0.00000000E+00  0.00000000E+00
  0.00000000E+00  0.00000000E+00  0.00000000E+00  0.00000000E+00  0.00000000E+00
  0.00000000E+00  0.00000000E+00  0.00000000E+00
Coordinates of each shell                  R   N=          84
  2.63464109E+00 -1.30633944E+00  4.97896857E-07  2.63464109E+00 -1.30633944E+00
  4.97896857E-07  2.63464109E+00 -1.30633944E+00  4.97896857E-07  2.63464109E+00
 -1.30633944E+00  4.97896857E-07 -1.04914257E+00  1.39425672E+00  6.54927796E-07
 -1.04914257E+00  1.39425672E+00  6.54927796E-07 -1.04914257E+00  1.39425672E+00
  6.54927796E-07 -1.04914257E+00  1.39425672E+00  6.54927796E-07 -2.68107117E+00
 -9.72485830E-01 -6.04459883E-07 -2.68107117E+00 -9.72485830E-01 -6.04459883E-07
 -2.68107117E+00 -9.72485830E-01 -6.04459883E-07 -2.68107117E+00 -9.72485830E-01
 -6.04459883E-07  1.74073821E+00  8.27414270E-01 -9.05214761E-07  1.74073821E+00
  8.27414270E-01 -9.05214761E-07  1.74073821E+00  8.27414270E-01 -9.05214761E-07
  1.74073821E+00  8.27414270E-01 -9.05214761E-07 -1.44026879E+00  2.59311604E+00
 -1.64975255E+00 -1.44026879E+00  2.59311604E+00 -1.64975255E+00 -1.44026549E+00
  2.59311159E+00  1.64975826E+00 -1.44026549E+00  2.59311159E+00  1.64975826E+00
 -2.28847301E+00 -2.12770939E+00  1.66377374E+00 -2.28847301E+00 -2.12770939E+00
  1.66377374E+00 -2.28842974E+00 -2.12773622E+00 -1.66374594E+00 -2.28842974E+00
 -2.12773622E+00 -1.66374594E+00 -4.68572995E+00 -4.78068444E-01 -2.97762919E-05
 -4.68572995E+00 -4.78068444E-01 -2.97762919E-05  3.00289150E+00  2.50289098E+00
 -2.58794649E-06  3.00289150E+00  2.50289098E+00 -2.58794649E-06
Constraint Structure                       R   N=          30
  2.63464109E+00 -1.30633944E+00  4.97896857E-07 -1.04914257E+00  1.39425672E+00
  6.54927796E-07 -2.68107117E+00 -9.72485830E-01 -6.04459883E-07  1.74073821E+00
  8.27414270E-01 -9.05214761E-07 -1.44026879E+00  2.59311604E+00 -1.64975255E+00
 -1.44026549E+00  2.59311159E+00  1.64975826E+00 -2.28847301E+00 -2.12770939E+00
  1.66377374E+00 -2.28842974E+00 -2.12773622E+00 -1.66374594E+00 -4.68572995E+00
 -4.78068444E-01 -2.97762919E-05  3.00289150E+00  2.50289098E+00 -2.58794649E-06
Num ILSW                                   I              100
ILSW                                       I   N=         100
           0           1           0           0           2           0
           0           0           0           0           0          -1
           0           0           0           0           0           0
           0           0           0           0           1           0
           1           0           0           0           0           0
           0           0      100000           0          -1           0
           0           0           0           0           0           0
           0           0           0           1           1           0
           0           0           1           0           0           0
           0           0           4          40           0           0
           0           0           0           0           0           0
           0           0           0           0           0           0
           0           0           0           0           0           0
           0           0           0           0           0           0
           0           0           0           0           0           0
           0           0           0           0           0           0
           0           0           0           0
Num RLSW                                   I               40
RLSW                                       R   N=          40
  1.00000000E+00  1.00000000E+00  1.00000000E+00  1.00000000E+00  1.00000000E+00
  0.00000000E+00  0.00000000E+00  1.00000000E+00  0.00000000E+00  0.00000000E+00
  0.00000000E+00  0.00000000E+00  1.00000000E+00  0.00000000E+00  0.00000000E+00
  0.00000000E+00  0.00000000E+00  1.00000000E+00  0.00000000E+00  0.00000000E+00
  0.00000000E+00  0.00000000E+00  1.00000000E+00  0.00000000E+00  0.00000000E+00
  0.00000000E+00  0.00000000E+00  1.00000000E+00  0.00000000E+00  0.00000000E+00
  0.00000000E+00  0.00000000E+00  0.00000000E+00  0.00000000E+00  0.00000000E+00
  0.00000000E+00  0.00000000E+00  0.00000000E+00  1.00000000E+00  1.00000000E+00
MxBond                                     I                4
NBond                                      I   N=          10
           1           4           4           3           1           1
           1           1           1           1
IBond                                      I   N=          40
           4           0           0           0           3           4
           5           6           2           7           8           9
           1           2          10           0           2           0
           0           0           2           0           0           0
           3           0           0           0           3           0
           0           0           3           0           0           0
           4           0           0           0
RBond                                      R   N=          40
  2.00000000E+00  0.00000000E+00  0.00000000E+00  0.00000000E+00  1.00000000E+00
  1.00000000E+00  1.00000000E+00  1.00000000E+00  1.00000000E+00  1.00000000E+00
  1.00000000E+00  1.00000000E+00  2.00000000E+00  1.00000000E+00  1.00000000E+00
  0.00000000E+00  1.00000000E+00  0.00000000E+00  0.00000000E+00  0.00000000E+00
  1.00000000E+00  0.00000000E+00  0.00000000E+00  0.00000000E+00  1.00000000E+00
  0.00000000E+00  0.00000000E+00  0.00000000E+00  1.00000000E+00  0.00000000E+00
  0.00000000E+00  0.00000000E+00  1.00000000E+00  0.00000000E+00  0.00000000E+00
  0.00000000E+00  1.00000000E+00  0.00000000E+00  0.00000000E+00  0.00000000E+00
Virial Ratio                               R      2.002527704170036E+00
SCF Energy                                 R     -1.919494917092903E+02
MP2 Energy                                 R     -1.925139923693031E+02
Total Energy                               R     -1.925139923693031E+02
Post-SCF wavefunction norm                 R      1.537976630704188E+00
RMS Force                                  R      3.347027152810818E-07
RMS Density                                R      1.619042560174760E-09
External E-field                           R   N=          35
  0.00000000E+00  0.00000000E+00  0.00000000E+00  0.00000000E+00  0.00000000E+00
  0.00000000E+00  0.00000000E+00  0.00000000E+00  0.00000000E+00  0.00000000E+00
  0.00000000E+00  0.00000000E+00  0.00000000E+00  0.00000000E+00  0.00000000E+00
  0.00000000E+00  0.00000000E+00  0.00000000E+00  0.00000000E+00  0.00000000E+00
  0.00000000E+00  0.00000000E+00  0.00000000E+00  0.00000000E+00  0.00000000E+00
  0.00000000E+00  0.00000000E+00  0.00000000E+00  0.00000000E+00  0.00000000E+00
  0.00000000E+00  0.00000000E+00  0.00000000E+00  0.00000000E+00  0.00000000E+00
IOpCl                                      I                0
IROHF                                      I                0
Alpha Orbital Energies                     R   N=          72
 -2.05662444E+01 -1.13368316E+01 -1.12463472E+01 -1.12225220E+01 -1.38135535E+00
 -1.06126686E+00 -9.09551296E-01 -7.72002527E-01 -6.76698361E-01 -6.33030762E-01
 -6.21955219E-01 -5.38278257E-01 -5.22859050E-01 -5.18745350E-01 -4.85885669E-01
 -4.19571064E-01  1.53487795E-01  2.34456656E-01  2.69053368E-01  2.92158703E-01
  2.98891108E-01  3.23816608E-01  3.39387714E-01  3.79144867E-01  4.54322483E-01
  4.64126968E-01  7.24857599E-01  7.34477524E-01  7.74073956E-01  7.80864985E-01
  8.01736654E-01  9.26922596E-01  9.43930253E-01  9.51347558E-01  1.00719400E+00
  1.07253819E+00  1.11190008E+00  1.11591203E+00  1.13460439E+00  1.17211451E+00
  1.18564807E+00  1.20828121E+00  1.23606905E+00  1.31067999E+00  1.34008627E+00
  1.40166485E+00  1.64135961E+00  1.69252211E+00  1.80831670E+00  1.83127171E+00
  1.89522388E+00  2.05778938E+00  2.07132387E+00  2.10027764E+00  2.22308386E+00
  2.25055581E+00  2.28113916E+00  2.41442774E+00  2.42728634E+00  2.61429160E+00
  2.64901262E+00  2.65198346E+00  2.71501952E+00  2.77013292E+00  2.92104998E+00
  3.03328912E+00  3.22550113E+00  3.32010928E+00  4.25185940E+00  4.50550920E+00
  4.65527234E+00  4.87902902E+00
Alpha MO coefficients                      R   N=        5184
  9.94706989E-01  2.09248508E-02 -5.93068780E-04  1.39417917E-03 -9.63860725E-10
  4.45263668E-03  2.60247257E-05 -3.56490050E-05  2.32939282E-11 -3.82334208E-03
 -3.63174184E-03 -4.17548871E-03 -1.08922759E-04  1.61148011E-10 -3.66278963E-10
 -2.91118040E-06 -7.98956248E-06 -6.98956677E-06  2.25985322E-05 -1.16705815E-10
 -2.99313568E-05 -1.60091911E-04 -8.72993222E-05  1.61130439E-09  9.60791904E-06
 -2.06615225E-05 -2.28648366E-05  5.48063532E-05 -2.04956476E-10 -3.76344893E-11
  3.95679468E-06  2.51497135E-05  1.65732613E-05 -1.09354350E-05  5.97661940E-10
 -9.91081395E-05 -1.07250147E-04 -4.80106460E-05 -3.75695138E-09  5.93060683E-06
 -1.42954214E-05  4.20828533E-06 -4.65558145E-06  1.18075027E-10 -5.75004285E-11
 -3.55840600E-06  4.63841707E-04 -1.02058265E-05  5.02843391E-05  3.35798060E-11
 -1.88178133E-04 -2.76450406E-04  4.84844842E-04 -7.27233446E-10 -1.65829243E-04
 -6.44602308E-04 -3.52530628E-05  2.82806395E-04 -1.25256127E-10  4.52949997E-10
  9.51819632E-06 -3.00184281E-05  9.51779248E-06 -3.00191941E-05  2.54333088E-05
 -2.81299403E-05  2.54339466E-05 -2.81357819E-05 -3.43179724E-06 -4.92974520E-05
 -2.72281497E-05 -1.07634731E-04 -3.24104498E-04  4.09785686E-04 -9.58373887E-05
  2.36726025E-04 -2.21734101E-10 -1.65913213E-03  4.27095336E-04 -1.31793142E-03
  1.18641869E-09  3.19522349E-05 -1.70394099E-04  2.93695494E-04  5.78597547E-05
 -5.19797258E-11  3.95935432E-10  3.51108984E-03  3.58446791E-04 -1.51801870E-04
  4.50258257E-05  5.18493617E-10  1.84816094E-03  1.82727506E-03  2.86423266E-04
 -6.14560572E-09 -5.07312430E-04 -1.94528875E-04 -3.39572393E-05  6.77839845E-05
  5.50606688E-10 -1.86265009E-10 -6.10551621E-05 -1.93592239E-04 -5.67856597E-05
 -1.64686889E-06 -1.09236012E-09  7.29265892E-04  3.63678038E-04  4.10662725E-04
  8.49341590E-09  1.62111663E-05  4.12622650E-05 -6.03707546E-05  3.13326990E-05
 -7.00211594E-11  1.36358651E-10  9.95769066E-01  2.65162700E-02  2.16417863E-04
 -6.18338041E-04  7.41724094E-10 -8.07851955E-03  1.36722247E-03 -2.12111316E-03
  1.43388518E-09 -1.65922093E-03 -1.06828485E-03 -2.44765989E-03 -4.35825925E-04
 -2.67632890E-10 -1.09433326E-09 -1.06536131E-04  2.90466510E-04 -1.06535082E-04
  2.90471130E-04 -7.08238670E-05  6.65429560E-05 -7.08250338E-05  6.65548020E-05
 -1.82370862E-05  1.53314174E-04 -9.31740887E-05  2.13828207E-03  1.01900393E-05
 -1.90671137E-05  1.52467850E-05 -1.68496912E-05 -1.48787405E-10 -4.42783362E-04
  3.65216348E-04  8.68512066E-05  4.78430513E-10  2.39558766E-05  1.26221447E-04
 -8.43967895E-05  2.60769578E-05 -2.71111700E-10 -1.54220212E-10  9.95737029E-01
  2.87873462E-02  1.98196241E-04  4.19968402E-05  4.54454596E-10 -1.78269112E-02
 -8.12108533E-04  9.52376156E-04  7.68914559E-10 -1.66114901E-03 -1.70695826E-03
 -1.64177816E-03  3.54644053E-05  5.69463486E-11 -5.69738838E-10  1.26113511E-02
  3.89895630E-04  7.85530679E-05  4.05489302E-05  1.15764239E-09  4.04685222E-03
  1.07499794E-03  1.59610447E-03 -5.64891762E-09 -2.43955282E-04 -4.07248231E-04
 -1.10725847E-04 -1.66943280E-04 -1.81544156E-10  7.29406437E-11 -3.80158791E-03
 -4.68286345E-05 -4.17833870E-05  5.55704564E-05  1.00298183E-10  4.76899359E-03
 -2.49155305E-03 -1.45187563E-04  4.10393506E-10 -5.12160866E-04 -1.55997365E-04
 -1.63177744E-04  1.47773145E-04  3.32852590E-10 -1.39025132E-10  2.37437796E-04
  2.64102349E-03  2.37438214E-04  2.64102316E-03 -1.60804593E-04  7.39350823E-05
 -1.60804404E-04  7.39263682E-05 -1.39848557E-04 -1.19775665E-04 -9.41015123E-05
  2.54781453E-04 -5.88277741E-05 -2.49634834E-04  8.08689782E-05 -1.87001748E-05
 -9.02625045E-10  1.14311412E-03 -2.90972118E-04  3.02883842E-04  3.00929199E-09
 -1.38733591E-04 -1.41721155E-04 -2.51389153E-04 -3.57668084E-05 -9.33402141E-10
 -1.60827271E-10 -1.29146564E-02 -2.73863888E-04 -1.40916946E-06 -3.62739114E-07
  3.03734663E-10  3.94704899E-03 -1.11752731E-03 -1.54188425E-03 -8.80860034E-10
 -2.61118960E-04 -3.74045533E-04 -7.94630871E-05 -2.27210062E-04 -3.47224753E-10
 -3.86959546E-10  9.95662190E-01  2.84531558E-02  1.35573863E-04  1.86692150E-04
  1.79456291E-09 -1.51965209E-02 -6.71892949E-04 -6.30694625E-04 -5.53223298E-09
 -1.81014172E-03 -1.84563289E-03 -1.81785391E-03 -3.20235506E-05  2.96832519E-10
 -5.88090672E-11  5.62239098E-05 -1.97034285E-04  6.79659576E-05  1.14508475E-04
 -6.33175892E-10 -5.01301858E-04 -2.99160877E-04  2.05579252E-04  4.54555005E-10
  3.41521086E-05 -1.94500077E-05 -7.83899601E-05  2.25020118E-05 -4.79865252E-10
  3.46320448E-10 -1.51064186E-04  5.15527599E-06 -1.51064239E-04  5.15643861E-06
  1.76465534E-04  2.56723206E-03  1.76467086E-04  2.56722709E-03  1.15363961E-04
  2.42194359E-03  7.01743176E-06  2.36568876E-04 -1.95504217E-01  4.34504879E-01
 -5.29946247E-02  1.22478326E-01 -8.03893245E-08  3.92472567E-01 -2.20463487E-02
  4.69373736E-02 -3.74094176E-08  1.20611622E-03  1.53415929E-02 -1.54708829E-03
 -8.88080828E-03  7.88153218E-09 -1.22787744E-08 -1.80890077E-02  3.26357722E-02
  2.40995304E-02 -1.12877302E-02 -6.17787666E-09  2.00828386E-02 -3.39115448E-03
 -1.05471709E-02 -2.66201981E-10  6.52923266E-03  4.96481801E-04 -7.23635613E-04
 -3.20779650E-03 -1.71757547E-09  4.33533573E-09 -5.70342144E-03  1.14500737E-02
  6.61192244E-03  3.23212136E-03 -1.01088873E-08 -4.57552405E-03  7.17983921E-04
 -3.20270076E-03  2.31651012E-08  1.45362688E-03  6.36318738E-04  1.98658063E-04
  5.57991398E-04 -6.27149956E-09  1.88210738E-09 -1.11762618E-01  2.12817385E-01
  6.14606134E-02 -1.57539913E-01  1.08993038E-07  7.50111558E-02 -2.70821585E-03
  2.31915663E-02 -1.36421502E-08 -8.30450603E-03  2.52842478E-02 -1.63173363E-02
 -1.85680768E-02  9.55780007E-09 -3.29415227E-08  5.65435346E-03 -1.35300687E-04
  5.65436001E-03 -1.35294638E-04  3.28397211E-03  1.79728720E-03  3.28406049E-03
  1.79734742E-03  1.60959539E-03  1.47220025E-03  2.82981187E-02 -9.56169951E-03
  4.52578043E-02 -1.02040514E-01 -2.42074797E-02 -1.34336627E-03  1.34734606E-08
 -1.12085467E-01 -1.01417216E-02  1.55994631E-05 -4.76535144E-09  8.67407803E-04
 -1.86924163E-03  5.61641134E-04 -1.72077301E-03  2.09181237E-09  3.43497305E-09
 -1.58218533E-01  2.93683503E-01  5.22693744E-03 -3.21211435E-02 -1.16457966E-08
  2.70473580E-01  5.08769234E-03 -2.48825291E-03  6.48275317E-08  6.57903224E-03
  8.10233610E-03  4.69244540E-03  3.51897838E-03  1.03148957E-08  7.32911064E-10
 -1.15423880E-01  2.14294809E-01  3.85962479E-02  5.25158723E-02  3.32357078E-08
  1.78357828E-01  6.63454834E-04  7.14621780E-03 -8.73936140E-08  5.88164242E-03
  9.18606404E-03  2.47337299E-03  5.71556339E-03 -6.58558771E-09  6.77288544E-09
 -5.37684839E-02  1.11850633E-01 -1.18131872E-01  7.22833977E-02  1.34555730E-08
  6.99995593E-02 -1.22841858E-02  1.82676288E-02 -2.80989661E-08  1.66701501E-02
 -6.21309549E-03 -3.89226221E-03  2.77951743E-03 -1.42334618E-08  3.24450456E-09
  9.14744701E-02  1.52561216E-02  9.14744672E-02  1.52560853E-02  6.33192761E-02
  9.77862092E-03  6.33192681E-02  9.77849247E-03  6.26067098E-02  8.97916261E-03
  3.09127850E-02  1.89295172E-03 -4.50687833E-02  1.04827880E-01  1.46345228E-02
 -5.62069373E-02 -1.51629833E-09  1.21489228E-01  9.10712559E-03 -2.93295868E-02
 -8.48687711E-09  2.20493969E-03 -2.38494560E-03  8.78359197E-04  2.42303265E-03
  2.28680538E-09 -6.16499270E-10  5.85602066E-02 -1.09618628E-01 -1.40919054E-01
 -9.91331973E-02 -4.43351115E-08 -1.29425877E-01 -3.50405037E-02 -2.85044813E-02
 -5.08233377E-09 -8.17014694E-03  8.89793765E-03 -6.01482389E-03  1.17000213E-02
  3.21804567E-09  7.34657948E-09 -1.44600343E-01  2.69117682E-01 -3.51210708E-02
 -3.96125321E-02 -1.15776081E-08  2.90643429E-01 -1.13990494E-02 -8.93310666E-03
 -2.64839089E-08  5.88250061E-03  1.88723188E-03  1.00982342E-02 -7.56078240E-03
 -3.57044944E-10 -1.70249811E-08  9.55375966E-02 -1.98841616E-01  6.27480792E-02
 -1.16371641E-01  3.13662851E-09 -1.63147545E-01  1.23353237E-02 -5.06517818E-02
 -6.04682440E-09 -1.25245773E-02 -5.86706029E-04  7.18174245E-03 -3.88187526E-03
  2.21503505E-08  7.17737076E-09 -5.52673771E-02 -1.60310628E-02 -5.52674000E-02
 -1.60310838E-02  1.09022160E-01  3.39476862E-02  1.09022059E-01  3.39476140E-02
  1.13838266E-01  3.51715573E-02 -9.56175502E-02 -2.67623501E-02  6.84588201E-02
 -1.58574746E-01 -7.57044143E-04  1.99433406E-01 -2.00208386E-07 -2.22617750E-01
 -2.43039403E-03  1.04610349E-01 -1.09032546E-07 -6.73507979E-03  1.40221127E-02
 -2.20679608E-03 -1.96056225E-03  4.59712526E-09 -2.03737238E-08  8.57204334E-02
 -1.59145753E-01  9.56997812E-02 -8.42488643E-02 -1.62956960E-07 -2.30863866E-01
  1.95675094E-02 -4.87363475E-02 -9.33681365E-09  1.26273655E-02 -5.10398077E-03
 -1.41717428E-02  3.30672970E-03 -3.13740283E-08  1.65804101E-08 -5.42896394E-02
  1.00360684E-01 -4.89574000E-02 -1.08869665E-01 -1.46475901E-08  1.34387208E-01
 -1.97645714E-02 -3.90346708E-02 -1.33447079E-07  2.46605493E-03 -6.08418851E-03
  9.12271298E-03 -8.87367996E-03 -5.65622554E-08  1.67408260E-08 -1.14045254E-01
  2.42148761E-01  1.36327294E-01  1.11929559E-01 -1.92773841E-07  2.43488344E-01
  2.45021374E-02  8.38673850E-02 -1.16635986E-07  1.61221001E-03  1.08352444E-02
 -9.61110564E-03  1.49126871E-02 -7.74533797E-09 -1.83213737E-08 -1.03641457E-01
 -4.64044684E-02 -1.03641409E-01 -4.64044685E-02  6.89501673E-02  2.63100517E-02
  6.89502697E-02  2.63098304E-02  5.49123046E-02  2.41884937E-02  1.86187021E-01
  8.83976047E-02 -3.53801112E-02  8.14629619E-02  3.18363086E-01 -5.12921840E-02
  9.31854677E-08  1.37008409E-01  1.85356828E-01 -2.81431731E-02  6.16561063E-08
 -1.09402880E-02  2.13247038E-03  2.70050021E-03  1.96173661E-02 -1.54872455E-08
  1.35159914E-09 -6.62376613E-03  8.94543311E-03 -1.67767227E-01  1.76406754E-01
 -1.74529305E-08  1.58164685E-02 -6.51009428E-02  9.29635173E-02  2.43872552E-08
 -1.30038754E-02  2.25131317E-03  1.44829342E-02  5.61282397E-03  3.99752131E-08
 -5.84173860E-08 -8.27407025E-03  1.33562354E-02 -1.32372919E-01  4.98209952E-02
  2.68919715E-07  3.34610725E-02 -5.13617549E-02  2.82349226E-02  1.78092012E-07
  4.19796786E-03  1.36392468E-03 -4.61239737E-03 -4.97598808E-03  3.12203571E-07
 -2.26707257E-07  2.77554770E-02 -7.08783520E-02  2.57586046E-01  2.07402017E-01
 -1.99417944E-07 -1.87679996E-02  9.71066287E-02  5.71218532E-02 -1.33223537E-08
  3.66052284E-03  1.60369154E-03  2.36201886E-03  4.85659868E-03  2.80648487E-09
 -8.65565910E-09  8.51102276E-02  5.43600291E-02  8.51098538E-02  5.43596702E-02
 -2.43665778E-02 -1.45084486E-02 -2.43688825E-02 -1.45098156E-02  8.72277675E-02
  5.67637723E-02  1.41047339E-01  1.00731279E-01  1.09784344E-07 -2.42569131E-07
  2.66669689E-08  1.18631886E-06  1.23284430E-01 -4.26803031E-07 -4.77505559E-09
  6.95759110E-07  8.09193845E-02 -8.32447521E-09  8.36008249E-08 -1.52171768E-08
 -2.83858994E-08 -5.09177569E-03  1.08827931E-02 -2.72999282E-08 -3.40895010E-08
 -1.42656323E-07 -1.95740436E-07  3.37684591E-01  4.94102565E-07  1.75631064E-07
 -4.00378334E-07  1.79304383E-01 -4.80364004E-08 -5.58371030E-08  1.06572768E-07
  3.92171251E-08 -5.16367128E-03  2.04525482E-02  1.23206238E-08 -1.24002964E-08
 -1.34484440E-07  3.52166853E-08  2.40818555E-01 -2.33735014E-07 -2.38604686E-07
  5.59352352E-08  1.06487776E-01 -3.97328253E-07 -1.69711033E-07  5.63164677E-07
  3.11125818E-07  9.80163754E-03 -1.05980879E-02  1.34139251E-08  6.93912300E-08
  4.52327459E-07 -6.90117393E-07  1.30846765E-01 -5.81581744E-07  4.55597075E-07
  7.57648425E-08  6.15375519E-02 -2.81460634E-08 -4.78009864E-10  3.12337956E-08
 -5.65337007E-08 -5.54064235E-03 -5.12944219E-03 -1.66276081E-01 -1.14995287E-01
  1.66276415E-01  1.14995711E-01  1.16556896E-01  8.12540465E-02 -1.16554940E-01
 -8.12524967E-02 -2.00775745E-06 -1.54357795E-06 -2.40946288E-07 -3.49150018E-07
  5.61751972E-02 -1.23300810E-01 -9.81465879E-02  4.32348740E-01 -4.23825196E-07
 -2.66416702E-01 -5.13635750E-02  2.49704847E-01 -2.47109760E-07 -3.82341295E-03
  2.72277947E-02 -4.53263459E-03 -1.24595134E-02  1.36171295E-08 -4.19113330E-08
 -1.44061174E-02  2.50042932E-02 -1.91470541E-01  2.15282308E-02 -7.44315494E-07
  5.63655306E-02 -9.31202194E-02  1.30291526E-03 -2.34285701E-07 -9.64600542E-03
  5.98644706E-03  6.82809831E-03  8.10459890E-04  4.68791604E-08 -7.97659547E-08
  5.90817727E-03 -7.69376253E-03 -5.95298516E-02  1.54734724E-01 -3.40229341E-07
 -3.18942931E-02 -4.43197699E-02  6.30135495E-02 -4.73448400E-07  6.40718435E-03
  3.31582230E-03 -1.11753892E-02  2.67025751E-03  3.13438951E-07 -1.92571741E-07
 -7.85299172E-03  3.05714345E-02  1.80273579E-01 -2.99034567E-01 -5.54638779E-08
 -5.21845804E-02  4.30287728E-02 -6.99340383E-02 -7.89130644E-08 -1.35169234E-02