520761                                                                  
Freq      RMP2-FC                                                     6-31G(d)            
Number of atoms                            I               19
Info1-9                                    I   N=           9
          31          29        1002           0           0         100
           6           2           1
Charge                                     I                0
Multiplicity                               I                1
Number of electrons                        I               56
Number of alpha electrons                  I               28
Number of beta electrons                   I               28
Number of basis functions                  I              129
Number of independent functions            I              129
Number of point charges in /Mol/           I                0
Number of translation vectors              I                0
Atomic numbers                             I   N=          19
           8           6           6           6           6           6
           6           1           1           1           1           1
           1           1           1           1           1           1
           1
Nuclear charges                            R   N=          19
  8.00000000E+00  6.00000000E+00  6.00000000E+00  6.00000000E+00  6.00000000E+00
  6.00000000E+00  6.00000000E+00  1.00000000E+00  1.00000000E+00  1.00000000E+00
  1.00000000E+00  1.00000000E+00  1.00000000E+00  1.00000000E+00  1.00000000E+00
  1.00000000E+00  1.00000000E+00  1.00000000E+00  1.00000000E+00
Current cartesian coordinates              R   N=          57
 -3.84239440E+00 -9.34765388E-01 -4.90250773E-01 -8.03452633E-02  3.76617880E-01
  2.57225503E-01 -1.42789324E+00 -1.23276716E+00 -1.76186139E+00 -2.52885541E+00
 -8.21690810E-02  1.76384096E+00  2.34386320E+00 -6.94704714E-01  1.37683001E+00
  1.48507504E-01  3.12929321E+00 -5.52546924E-01  4.55671983E+00 -7.69998831E-01
 -4.77008386E-01 -1.48174868E+00 -5.08096638E-01 -3.70159393E+00 -8.24847537E-01
 -3.22185055E+00 -1.78026687E+00 -2.36842301E+00 -1.60554010E+00  3.16785887E+00
 -3.45249569E+00  1.56006456E+00  2.62491660E+00  1.95838264E+00 -2.61680398E+00
  2.05400826E+00  2.86603073E+00  4.21030235E-01  3.04753519E+00  7.14868032E-01
  4.31867938E+00  1.04502317E+00  1.54177821E+00  3.36586568E+00 -2.06142224E+00
 -1.67523081E+00  3.80612797E+00 -1.25494176E+00  4.05150483E+00 -1.82152045E+00
 -2.18606208E+00  5.14450778E+00  1.12619823E+00 -1.04543165E+00  6.19284894E+00
 -1.70365901E+00  3.73504013E-01
Force Field                                I                0
Int Atom Types                             I   N=          19
           0           0           0           0           0           0
           0           0           0           0           0           0
           0           0           0           0           0           0
           0
MM charges                                 R   N=          19
  0.00000000E+00  0.00000000E+00  0.00000000E+00  0.00000000E+00  0.00000000E+00
  0.00000000E+00  0.00000000E+00  0.00000000E+00  0.00000000E+00  0.00000000E+00
  0.00000000E+00  0.00000000E+00  0.00000000E+00  0.00000000E+00  0.00000000E+00
  0.00000000E+00  0.00000000E+00  0.00000000E+00  0.00000000E+00
Integer atomic weights                     I   N=          19
          16          12          12          12          12          12
          12           1           1           1           1           1
           1           1           1           1           1           1
           1
Real atomic weights                        R   N=          19
  1.59949146E+01  1.20000000E+01  1.20000000E+01  1.20000000E+01  1.20000000E+01
  1.20000000E+01  1.20000000E+01  1.00782504E+00  1.00782504E+00  1.00782504E+00
  1.00782504E+00  1.00782504E+00  1.00782504E+00  1.00782504E+00  1.00782504E+00
  1.00782504E+00  1.00782504E+00  1.00782504E+00  1.00782504E+00
Atom fragment info                         I   N=          19
           0           0           0           0           0           0
           0           0           0           0           0           0
           0           0           0           0           0           0
           0
Atom residue num                           I   N=          19
           0           0           0           0           0           0
           0           0           0           0           0           0
           0           0           0           0           0           0
           0
Nuclear spins                              I   N=          19
           0           0           0           0           0           0
           0           1           1           1           1           1
           1           1           1           1           1           1
           1
Nuclear ZEff                               R   N=          19
 -5.60000000E+00 -3.60000000E+00 -3.60000000E+00 -3.60000000E+00 -3.60000000E+00
 -3.60000000E+00 -3.60000000E+00 -1.00000000E+00 -1.00000000E+00 -1.00000000E+00
 -1.00000000E+00 -1.00000000E+00 -1.00000000E+00 -1.00000000E+00 -1.00000000E+00
 -1.00000000E+00 -1.00000000E+00 -1.00000000E+00 -1.00000000E+00
Nuclear QMom                               R   N=          19
  0.00000000E+00  0.00000000E+00  0.00000000E+00  0.00000000E+00  0.00000000E+00
  0.00000000E+00  0.00000000E+00  0.00000000E+00  0.00000000E+00  0.00000000E+00
  0.00000000E+00  0.00000000E+00  0.00000000E+00  0.00000000E+00  0.00000000E+00
  0.00000000E+00  0.00000000E+00  0.00000000E+00  0.00000000E+00
Nuclear GFac                               R   N=          19
  0.00000000E+00  0.00000000E+00  0.00000000E+00  0.00000000E+00  0.00000000E+00
  0.00000000E+00  0.00000000E+00  2.79284600E+00  2.79284600E+00  2.79284600E+00
  2.79284600E+00  2.79284600E+00  2.79284600E+00  2.79284600E+00  2.79284600E+00
  2.79284600E+00  2.79284600E+00  2.79284600E+00  2.79284600E+00
MicOpt                                     I   N=          19
          -1          -1          -1          -1          -1          -1
          -1          -1          -1          -1          -1          -1
          -1          -1          -1          -1          -1          -1
          -1
Number of contracted shells                I               52
Number of primitive shells                 I              125
Pure/Cartesian d shells                    I                1
Pure/Cartesian f shells                    I                0
Highest angular momentum                   I                2
Largest degree of contraction              I                6
Shell types                                I   N=          52
           0          -1          -1           2           0          -1
          -1           2           0          -1          -1           2
           0          -1          -1           2           0          -1
          -1           2           0          -1          -1           2
           0          -1          -1           2           0           0
           0           0           0           0           0           0
           0           0           0           0           0           0
           0           0           0           0           0           0
           0           0           0           0
Number of primitives per shell             I   N=          52
           6           3           1           1           6           3
           1           1           6           3           1           1
           6           3           1           1           6           3
           1           1           6           3           1           1
           6           3           1           1           3           1
           3           1           3           1           3           1
           3           1           3           1           3           1
           3           1           3           1           3           1
           3           1           3           1
Shell to atom map                          I   N=          52
           1           1           1           1           2           2
           2           2           3           3           3           3
           4           4           4           4           5           5
           5           5           6           6           6           6
           7           7           7           7           8           8
           9           9          10          10          11          11
          12          12          13          13          14          14
          15          15          16          16          17          17
          18          18          19          19
Primitive exponents                        R   N=         125
  5.48467166E+03  8.25234946E+02  1.88046958E+02  5.29645000E+01  1.68975704E+01
  5.79963534E+00  1.55396162E+01  3.59993359E+00  1.01376175E+00  2.70005823E-01
  8.00000000E-01  3.04752488E+03  4.57369518E+02  1.03948685E+02  2.92101553E+01
  9.28666296E+00  3.16392696E+00  7.86827235E+00  1.88128854E+00  5.44249258E-01
  1.68714478E-01  8.00000000E-01  3.04752488E+03  4.57369518E+02  1.03948685E+02
  2.92101553E+01  9.28666296E+00  3.16392696E+00  7.86827235E+00  1.88128854E+00
  5.44249258E-01  1.68714478E-01  8.00000000E-01  3.04752488E+03  4.57369518E+02
  1.03948685E+02  2.92101553E+01  9.28666296E+00  3.16392696E+00  7.86827235E+00
  1.88128854E+00  5.44249258E-01  1.68714478E-01  8.00000000E-01  3.04752488E+03
  4.57369518E+02  1.03948685E+02  2.92101553E+01  9.28666296E+00  3.16392696E+00
  7.86827235E+00  1.88128854E+00  5.44249258E-01  1.68714478E-01  8.00000000E-01
  3.04752488E+03  4.57369518E+02  1.03948685E+02  2.92101553E+01  9.28666296E+00
  3.16392696E+00  7.86827235E+00  1.88128854E+00  5.44249258E-01  1.68714478E-01
  8.00000000E-01  3.04752488E+03  4.57369518E+02  1.03948685E+02  2.92101553E+01
  9.28666296E+00  3.16392696E+00  7.86827235E+00  1.88128854E+00  5.44249258E-01
  1.68714478E-01  8.00000000E-01  1.87311370E+01  2.82539436E+00  6.40121692E-01
  1.61277759E-01  1.87311370E+01  2.82539436E+00  6.40121692E-01  1.61277759E-01
  1.87311370E+01  2.82539436E+00  6.40121692E-01  1.61277759E-01  1.87311370E+01
  2.82539436E+00  6.40121692E-01  1.61277759E-01  1.87311370E+01  2.82539436E+00
  6.40121692E-01  1.61277759E-01  1.87311370E+01  2.82539436E+00  6.40121692E-01
  1.61277759E-01  1.87311370E+01  2.82539436E+00  6.40121692E-01  1.61277759E-01
  1.87311370E+01  2.82539436E+00  6.40121692E-01  1.61277759E-01  1.87311370E+01
  2.82539436E+00  6.40121692E-01  1.61277759E-01  1.87311370E+01  2.82539436E+00
  6.40121692E-01  1.61277759E-01  1.87311370E+01  2.82539436E+00  6.40121692E-01
  1.61277759E-01  1.87311370E+01  2.82539436E+00  6.40121692E-01  1.61277759E-01
Contraction coefficients                   R   N=         125
  1.83107443E-03  1.39501722E-02  6.84450781E-02  2.32714336E-01  4.70192898E-01
  3.58520853E-01 -1.10777550E-01 -1.48026263E-01  1.13076702E+00  1.00000000E+00
  1.00000000E+00  1.83473713E-03  1.40373228E-02  6.88426223E-02  2.32184443E-01
  4.67941348E-01  3.62311985E-01 -1.19332420E-01 -1.60854152E-01  1.14345644E+00
  1.00000000E+00  1.00000000E+00  1.83473713E-03  1.40373228E-02  6.88426223E-02
  2.32184443E-01  4.67941348E-01  3.62311985E-01 -1.19332420E-01 -1.60854152E-01
  1.14345644E+00  1.00000000E+00  1.00000000E+00  1.83473713E-03  1.40373228E-02
  6.88426223E-02  2.32184443E-01  4.67941348E-01  3.62311985E-01 -1.19332420E-01
 -1.60854152E-01  1.14345644E+00  1.00000000E+00  1.00000000E+00  1.83473713E-03
  1.40373228E-02  6.88426223E-02  2.32184443E-01  4.67941348E-01  3.62311985E-01
 -1.19332420E-01 -1.60854152E-01  1.14345644E+00  1.00000000E+00  1.00000000E+00
  1.83473713E-03  1.40373228E-02  6.88426223E-02  2.32184443E-01  4.67941348E-01
  3.62311985E-01 -1.19332420E-01 -1.60854152E-01  1.14345644E+00  1.00000000E+00
  1.00000000E+00  1.83473713E-03  1.40373228E-02  6.88426223E-02  2.32184443E-01
  4.67941348E-01  3.62311985E-01 -1.19332420E-01 -1.60854152E-01  1.14345644E+00
  1.00000000E+00  1.00000000E+00  3.34946043E-02  2.34726953E-01  8.13757326E-01
  1.00000000E+00  3.34946043E-02  2.34726953E-01  8.13757326E-01  1.00000000E+00
  3.34946043E-02  2.34726953E-01  8.13757326E-01  1.00000000E+00  3.34946043E-02
  2.34726953E-01  8.13757326E-01  1.00000000E+00  3.34946043E-02  2.34726953E-01
  8.13757326E-01  1.00000000E+00  3.34946043E-02  2.34726953E-01  8.13757326E-01
  1.00000000E+00  3.34946043E-02  2.34726953E-01  8.13757326E-01  1.00000000E+00
  3.34946043E-02  2.34726953E-01  8.13757326E-01  1.00000000E+00  3.34946043E-02
  2.34726953E-01  8.13757326E-01  1.00000000E+00  3.34946043E-02  2.34726953E-01
  8.13757326E-01  1.00000000E+00  3.34946043E-02  2.34726953E-01  8.13757326E-01
  1.00000000E+00  3.34946043E-02  2.34726953E-01  8.13757326E-01  1.00000000E+00
P(S=P) Contraction coefficients            R   N=         125
  0.00000000E+00  0.00000000E+00  0.00000000E+00  0.00000000E+00  0.00000000E+00
  0.00000000E+00  7.08742682E-02  3.39752839E-01  7.27158577E-01  1.00000000E+00
  0.00000000E+00  0.00000000E+00  0.00000000E+00  0.00000000E+00  0.00000000E+00
  0.00000000E+00  0.00000000E+00  6.89990666E-02  3.16423961E-01  7.44308291E-01
  1.00000000E+00  0.00000000E+00  0.00000000E+00  0.00000000E+00  0.00000000E+00
  0.00000000E+00  0.00000000E+00  0.00000000E+00  6.89990666E-02  3.16423961E-01
  7.44308291E-01  1.00000000E+00  0.00000000E+00  0.00000000E+00  0.00000000E+00
  0.00000000E+00  0.00000000E+00  0.00000000E+00  0.00000000E+00  6.89990666E-02
  3.16423961E-01  7.44308291E-01  1.00000000E+00  0.00000000E+00  0.00000000E+00
  0.00000000E+00  0.00000000E+00  0.00000000E+00  0.00000000E+00  0.00000000E+00
  6.89990666E-02  3.16423961E-01  7.44308291E-01  1.00000000E+00  0.00000000E+00
  0.00000000E+00  0.00000000E+00  0.00000000E+00  0.00000000E+00  0.00000000E+00
  0.00000000E+00  6.89990666E-02  3.16423961E-01  7.44308291E-01  1.00000000E+00
  0.00000000E+00  0.00000000E+00  0.00000000E+00  0.00000000E+00  0.00000000E+00
  0.00000000E+00  0.00000000E+00  6.89990666E-02  3.16423961E-01  7.44308291E-01
  1.00000000E+00  0.00000000E+00  0.00000000E+00  0.00000000E+00  0.00000000E+00
  0.00000000E+00  0.00000000E+00  0.00000000E+00  0.00000000E+00  0.00000000E+00
  0.00000000E+00  0.00000000E+00  0.00000000E+00  0.00000000E+00  0.00000000E+00
  0.00000000E+00  0.00000000E+00  0.00000000E+00  0.00000000E+00  0.00000000E+00
  0.00000000E+00  0.00000000E+00  0.00000000E+00  0.00000000E+00  0.00000000E+00
  0.00000000E+00  0.00000000E+00  0.00000000E+00  0.00000000E+00  0.00000000E+00
  0.00000000E+00  0.00000000E+00  0.00000000E+00  0.00000000E+00  0.00000000E+00
  0.00000000E+00  0.00000000E+00  0.00000000E+00  0.00000000E+00  0.00000000E+00
  0.00000000E+00  0.00000000E+00  0.00000000E+00  0.00000000E+00  0.00000000E+00
  0.00000000E+00  0.00000000E+00  0.00000000E+00  0.00000000E+00  0.00000000E+00
Coordinates of each shell                  R   N=         156
 -3.84239440E+00 -9.34765388E-01 -4.90250773E-01 -3.84239440E+00 -9.34765388E-01
 -4.90250773E-01 -3.84239440E+00 -9.34765388E-01 -4.90250773E-01 -3.84239440E+00
 -9.34765388E-01 -4.90250773E-01 -8.03452633E-02  3.76617880E-01  2.57225503E-01
 -8.03452633E-02  3.76617880E-01  2.57225503E-01 -8.03452633E-02  3.76617880E-01
  2.57225503E-01 -8.03452633E-02  3.76617880E-01  2.57225503E-01 -1.42789324E+00
 -1.23276716E+00 -1.76186139E+00 -1.42789324E+00 -1.23276716E+00 -1.76186139E+00
 -1.42789324E+00 -1.23276716E+00 -1.76186139E+00 -1.42789324E+00 -1.23276716E+00
 -1.76186139E+00 -2.52885541E+00 -8.21690810E-02  1.76384096E+00 -2.52885541E+00
 -8.21690810E-02  1.76384096E+00 -2.52885541E+00 -8.21690810E-02  1.76384096E+00
 -2.52885541E+00 -8.21690810E-02  1.76384096E+00  2.34386320E+00 -6.94704714E-01
  1.37683001E+00  2.34386320E+00 -6.94704714E-01  1.37683001E+00  2.34386320E+00
 -6.94704714E-01  1.37683001E+00  2.34386320E+00 -6.94704714E-01  1.37683001E+00
  1.48507504E-01  3.12929321E+00 -5.52546924E-01  1.48507504E-01  3.12929321E+00
 -5.52546924E-01  1.48507504E-01  3.12929321E+00 -5.52546924E-01  1.48507504E-01
  3.12929321E+00 -5.52546924E-01  4.55671983E+00 -7.69998831E-01 -4.77008386E-01
  4.55671983E+00 -7.69998831E-01 -4.77008386E-01  4.55671983E+00 -7.69998831E-01
 -4.77008386E-01  4.55671983E+00 -7.69998831E-01 -4.77008386E-01 -1.48174868E+00
 -5.08096638E-01 -3.70159393E+00 -1.48174868E+00 -5.08096638E-01 -3.70159393E+00
 -8.24847537E-01 -3.22185055E+00 -1.78026687E+00 -8.24847537E-01 -3.22185055E+00
 -1.78026687E+00 -2.36842301E+00 -1.60554010E+00  3.16785887E+00 -2.36842301E+00
 -1.60554010E+00  3.16785887E+00 -3.45249569E+00  1.56006456E+00  2.62491660E+00
 -3.45249569E+00  1.56006456E+00  2.62491660E+00  1.95838264E+00 -2.61680398E+00
  2.05400826E+00  1.95838264E+00 -2.61680398E+00  2.05400826E+00  2.86603073E+00
  4.21030235E-01  3.04753519E+00  2.86603073E+00  4.21030235E-01  3.04753519E+00
  7.14868032E-01  4.31867938E+00  1.04502317E+00  7.14868032E-01  4.31867938E+00
  1.04502317E+00  1.54177821E+00  3.36586568E+00 -2.06142224E+00  1.54177821E+00
  3.36586568E+00 -2.06142224E+00 -1.67523081E+00  3.80612797E+00 -1.25494176E+00
 -1.67523081E+00  3.80612797E+00 -1.25494176E+00  4.05150483E+00 -1.82152045E+00
 -2.18606208E+00  4.05150483E+00 -1.82152045E+00 -2.18606208E+00  5.14450778E+00
  1.12619823E+00 -1.04543165E+00  5.14450778E+00  1.12619823E+00 -1.04543165E+00
  6.19284894E+00 -1.70365901E+00  3.73504013E-01  6.19284894E+00 -1.70365901E+00
  3.73504013E-01
Constraint Structure                       R   N=          57
 -3.84239440E+00 -9.34765388E-01 -4.90250773E-01 -8.03452633E-02  3.76617880E-01
  2.57225503E-01 -1.42789324E+00 -1.23276716E+00 -1.76186139E+00 -2.52885541E+00
 -8.21690810E-02  1.76384096E+00  2.34386320E+00 -6.94704714E-01  1.37683001E+00
  1.48507504E-01  3.12929321E+00 -5.52546924E-01  4.55671983E+00 -7.69998831E-01
 -4.77008386E-01 -1.48174868E+00 -5.08096638E-01 -3.70159393E+00 -8.24847537E-01
 -3.22185055E+00 -1.78026687E+00 -2.36842301E+00 -1.60554010E+00  3.16785887E+00
 -3.45249569E+00  1.56006456E+00  2.62491660E+00  1.95838264E+00 -2.61680398E+00
  2.05400826E+00  2.86603073E+00  4.21030235E-01  3.04753519E+00  7.14868032E-01
  4.31867938E+00  1.04502317E+00  1.54177821E+00  3.36586568E+00 -2.06142224E+00
 -1.67523081E+00  3.80612797E+00 -1.25494176E+00  4.05150483E+00 -1.82152045E+00
 -2.18606208E+00  5.14450778E+00  1.12619823E+00 -1.04543165E+00  6.19284894E+00
 -1.70365901E+00  3.73504013E-01
Num ILSW                                   I              100
ILSW                                       I   N=         100
           0           1           0           0           2           0
           0           0           0           0           0          -1
           0           0           0           0           0           0
           0           0           0           0           1           0
           1           0           0           0           0           0
           0           0      100000           0          -1           0
           0           0           0           0           0           0
           0           0           0           1           1           0
           0           0           1           0           0           0
           0           0           4          40           0           0
           0           0           0           0           0           0
           0           0           0           0           0           0
           0           0           0           0           0           0
           0           0           0           0           0           0
           0           0           0           0           0           0
           0           0           0           0           0           0
           0           0           0           0
Num RLSW                                   I               40
RLSW                                       R   N=          40
  1.00000000E+00  1.00000000E+00  1.00000000E+00  1.00000000E+00  1.00000000E+00
  0.00000000E+00  0.00000000E+00  1.00000000E+00  0.00000000E+00  0.00000000E+00
  0.00000000E+00  0.00000000E+00  1.00000000E+00  0.00000000E+00  0.00000000E+00
  0.00000000E+00  0.00000000E+00  1.00000000E+00  0.00000000E+00  0.00000000E+00
  0.00000000E+00  0.00000000E+00  1.00000000E+00  0.00000000E+00  0.00000000E+00
  0.00000000E+00  0.00000000E+00  1.00000000E+00  0.00000000E+00  0.00000000E+00
  0.00000000E+00  0.00000000E+00  0.00000000E+00  0.00000000E+00  0.00000000E+00
  0.00000000E+00  0.00000000E+00  0.00000000E+00  1.00000000E+00  1.00000000E+00
MxBond                                     I                4
NBond                                      I   N=          19
           2           4           4           4           4           4
           4           1           1           1           1           1
           1           1           1           1           1           1
           1
IBond                                      I   N=          76
           3           4           0           0           3           4
           5           6           1           2           8           9
           1           2          10          11           2           7
          12          13           2          14          15          16
           5          17          18          19           3           0
           0           0           3           0           0           0
           4           0           0           0           4           0
           0           0           5           0           0           0
           5           0           0           0           6           0
           0           0           6           0           0           0
           6           0           0           0           7           0
           0           0           7           0           0           0
           7           0           0           0
RBond                                      R   N=          76
  1.00000000E+00  1.00000000E+00  0.00000000E+00  0.00000000E+00  1.00000000E+00
  1.00000000E+00  1.00000000E+00  1.00000000E+00  1.00000000E+00  1.00000000E+00
  1.00000000E+00  1.00000000E+00  1.00000000E+00  1.00000000E+00  1.00000000E+00
  1.00000000E+00  1.00000000E+00  1.00000000E+00  1.00000000E+00  1.00000000E+00
  1.00000000E+00  1.00000000E+00  1.00000000E+00  1.00000000E+00  1.00000000E+00
  1.00000000E+00  1.00000000E+00  1.00000000E+00  1.00000000E+00  0.00000000E+00
  0.00000000E+00  0.00000000E+00  1.00000000E+00  0.00000000E+00  0.00000000E+00
  0.00000000E+00  1.00000000E+00  0.00000000E+00  0.00000000E+00  0.00000000E+00
  1.00000000E+00  0.00000000E+00  0.00000000E+00  0.00000000E+00  1.00000000E+00
  0.00000000E+00  0.00000000E+00  0.00000000E+00  1.00000000E+00  0.00000000E+00
  0.00000000E+00  0.00000000E+00  1.00000000E+00  0.00000000E+00  0.00000000E+00
  0.00000000E+00  1.00000000E+00  0.00000000E+00  0.00000000E+00  0.00000000E+00
  1.00000000E+00  0.00000000E+00  0.00000000E+00  0.00000000E+00  1.00000000E+00
  0.00000000E+00  0.00000000E+00  0.00000000E+00  1.00000000E+00  0.00000000E+00
  0.00000000E+00  0.00000000E+00  1.00000000E+00  0.00000000E+00  0.00000000E+00
  0.00000000E+00
Virial Ratio                               R      2.001550266170269E+00
SCF Energy                                 R     -3.090123608929798E+02
MP2 Energy                                 R     -3.099773663952242E+02
Total Energy                               R     -3.099773663952242E+02
Post-SCF wavefunction norm                 R      1.619808969571505E+00
RMS Force                                  R      1.613535631656295E-07
RMS Density                                R      5.192090378679124E-10
External E-field                           R   N=          35
  0.00000000E+00  0.00000000E+00  0.00000000E+00  0.00000000E+00  0.00000000E+00
  0.00000000E+00  0.00000000E+00  0.00000000E+00  0.00000000E+00  0.00000000E+00
  0.00000000E+00  0.00000000E+00  0.00000000E+00  0.00000000E+00  0.00000000E+00
  0.00000000E+00  0.00000000E+00  0.00000000E+00  0.00000000E+00  0.00000000E+00
  0.00000000E+00  0.00000000E+00  0.00000000E+00  0.00000000E+00  0.00000000E+00
  0.00000000E+00  0.00000000E+00  0.00000000E+00  0.00000000E+00  0.00000000E+00
  0.00000000E+00  0.00000000E+00  0.00000000E+00  0.00000000E+00  0.00000000E+00
IOpCl                                      I                0
IROHF                                      I                0
Alpha Orbital Energies                     R   N=         129
 -2.05482217E+01 -1.12733011E+01 -1.12728951E+01 -1.12377377E+01 -1.12286128E+01
 -1.12221613E+01 -1.12202041E+01 -1.36723319E+00 -1.09600361E+00 -9.97460495E-01
 -9.27527217E-01 -9.16765870E-01 -8.46964210E-01 -7.32544057E-01 -6.67553146E-01
 -6.53950312E-01 -6.25207176E-01 -5.98965442E-01 -5.75479244E-01 -5.56264455E-01
 -5.40761962E-01 -5.30051830E-01 -5.27851468E-01 -5.06120599E-01 -4.70602314E-01
 -4.36821860E-01 -4.34906322E-01 -4.06166666E-01  2.12405594E-01  2.50614216E-01
  2.68653203E-01  2.71323803E-01  2.85071679E-01  2.87912194E-01  2.96737685E-01
  3.13196734E-01  3.16044329E-01  3.32208543E-01  3.48247044E-01  3.58621824E-01
  3.73846986E-01  3.78216501E-01  4.00745507E-01  4.16535389E-01  4.34638727E-01
  4.79213699E-01  5.24672785E-01  6.84757522E-01  7.09340452E-01  7.20910507E-01
  7.22955927E-01  7.43966590E-01  7.81550517E-01  8.47670851E-01  8.57746825E-01
  8.79235977E-01  9.02925905E-01  9.23579476E-01  9.59292864E-01  9.85416781E-01
  1.01187982E+00  1.05943382E+00  1.07663399E+00  1.09312686E+00  1.10437848E+00
  1.12959571E+00  1.15247579E+00  1.15663235E+00  1.16355385E+00  1.16677468E+00
  1.18135373E+00  1.18573652E+00  1.19850790E+00  1.20663692E+00  1.23083249E+00
  1.24804970E+00  1.26666226E+00  1.27639084E+00  1.29041750E+00  1.40553009E+00
  1.40906062E+00  1.48481094E+00  1.57845090E+00  1.64618016E+00  1.64828964E+00
  1.68719830E+00  1.83440665E+00  1.86731089E+00  1.88043349E+00  1.92329577E+00
  2.03614626E+00  2.04806394E+00  2.07929272E+00  2.12909910E+00  2.22324478E+00
  2.22502132E+00  2.26613973E+00  2.27469199E+00  2.32193468E+00  2.34716519E+00
  2.35793794E+00  2.41363743E+00  2.45246377E+00  2.49444645E+00  2.51308671E+00
  2.54821733E+00  2.57725235E+00  2.59694229E+00  2.63691534E+00  2.65290742E+00
  2.68492073E+00  2.70275554E+00  2.71841550E+00  2.78807878E+00  2.83693248E+00
  2.97271641E+00  3.01102038E+00  3.01818600E+00  3.08150605E+00  3.14269454E+00
  3.15857337E+00  3.35184478E+00  4.42101848E+00  4.55932986E+00  4.67659683E+00
  4.73871065E+00  4.78953298E+00  4.87818082E+00  5.18546533E+00
Alpha MO coefficients                      R   N=       16641
  9.94724066E-01  2.12219308E-02  1.27220364E-03  1.52930330E-04  3.47728737E-04
  3.23192473E-03 -8.25630052E-04 -7.32412985E-05 -2.36026671E-04 -4.00917114E-03
 -3.69702615E-03 -4.01054046E-03 -9.14034505E-07  1.58403131E-05 -1.34281957E-04
  6.06288267E-06 -1.10395750E-05  6.44332211E-05 -1.03146992E-05  2.51362617E-05
 -3.63959478E-04 -1.61487346E-04  4.27305408E-04 -1.98927936E-04  8.25701707E-06
  1.44186063E-06 -1.03312856E-05  9.22670824E-06  5.59625456E-06 -2.17986876E-06
 -1.57003424E-05  2.27463360E-04 -3.67154036E-04  3.12568015E-05  1.69134491E-04
  2.09738347E-04  1.83382739E-04 -4.75089659E-05  2.00470897E-04  6.68201803E-05
 -4.38368637E-05 -2.10172807E-06 -1.76737759E-05 -6.58287537E-05  1.31501285E-05
 -1.65782349E-05  2.23138292E-04 -2.14820701E-04 -1.27162937E-04 -3.18734971E-04
  2.35562499E-04  2.59160118E-04 -1.21275491E-04 -2.05374465E-05 -6.67329812E-06
 -3.41230456E-05  5.91979836E-05  2.07853649E-05  5.87307893E-05  4.51194444E-05
 -3.69115169E-06 -2.86475257E-05 -3.05056612E-05 -2.52906828E-06 -8.22595834E-06
  3.81099901E-04 -9.44880260E-05  4.78223245E-05 -7.06507830E-05  1.95239543E-05
 -6.52653264E-06  2.94453731E-06  1.21013240E-06  3.42708759E-06  2.40986596E-06
  7.55162364E-06  3.62607957E-05  4.14275047E-06  2.44521148E-07  1.13392422E-06
 -3.06427095E-04  6.30895631E-05  1.46262040E-04 -2.32283356E-05  4.68884749E-06
  1.71249666E-06  1.73420608E-05 -1.39276562E-05  4.38643643E-07  9.58033711E-07
  9.26261970E-07  7.44131974E-06  4.68419713E-06 -9.09284591E-07 -3.99315475E-06
 -6.44128082E-05  3.01004363E-05 -8.55058364E-06 -1.74645938E-05 -2.82594021E-06
 -1.45432988E-07 -4.12015670E-07 -1.38616947E-07  5.58052192E-06 -2.56450209E-06
 -1.56493863E-06  2.64921580E-05 -4.09114063E-05 -9.58387545E-05 -4.22590688E-05
 -9.75470500E-05 -1.63596847E-06  2.88307083E-05 -2.55447779E-07 -1.12876344E-05
 -1.14181902E-05 -1.79481021E-05  7.98858223E-06 -9.09730149E-06  6.96491728E-06
 -1.54493227E-06  2.36927336E-05 -5.34727763E-06  5.65900559E-06 -1.10312594E-05
  2.84003084E-06  2.77947150E-06 -4.50282027E-07  8.46068649E-06 -1.19818714E-04
  2.27695477E-04  1.83385296E-04 -1.15368262E-05 -1.32691397E-05  1.17633175E-03
 -3.47010202E-04 -1.22253556E-04 -5.79982202E-04 -6.52383234E-04  1.31051764E-04
 -1.55069039E-04  3.32267192E-05  2.41067949E-04 -8.59349038E-05  7.99917157E-03
  5.78192059E-04 -6.56303514E-05 -1.02973203E-04 -4.82608834E-05  1.57304694E-03
 -2.18284995E-06 -3.11247711E-04 -1.59675548E-03 -3.21862496E-04 -2.08406966E-04
 -2.52060732E-04 -1.76187947E-04 -9.86159697E-05 -9.94700648E-05  9.95833599E-01
  2.75003057E-02 -6.16101136E-04  1.40852443E-04  5.69665787E-04 -1.36010948E-02
 -2.68957378E-04 -4.65308398E-04 -8.84447095E-04 -1.55847118E-03 -1.45830643E-03
 -1.34103806E-03 -9.72877631E-05 -9.61132411E-05 -3.71821537E-06  9.08743851E-03
  1.72937626E-05 -8.31130218E-06 -1.43854481E-05 -1.99669778E-04  1.67704824E-03
  5.96464706E-04 -7.11653884E-04 -7.54045509E-04 -5.42078562E-05 -8.76476575E-06
  1.54184529E-04 -1.87216736E-05 -5.21872629E-05  6.24462180E-05 -1.67435521E-04
 -2.39366043E-04  8.78134443E-05  5.52393597E-05  1.12197488E-04  9.34611930E-04