Opt=tight                                                               
Freq      RMP2-FC                                                     6-31G(d)            
Number of atoms                            I                3
Info1-9                                    I   N=           9
          12          12        1002           0           0         100
           6           2           1
Charge                                     I                0
Multiplicity                               I                1
Number of electrons                        I               10
Number of alpha electrons                  I                5
Number of beta electrons                   I                5
Number of basis functions                  I               19
Number of independent functions            I               19
Number of point charges in /Mol/           I                0
Number of translation vectors              I                0
Atomic numbers                             I   N=           3
           8           1           1
Nuclear charges                            R   N=           3
  8.00000000E+00  1.00000000E+00  1.00000000E+00
Current cartesian coordinates              R   N=           9
  3.38813179E-21  2.25469269E-01  3.46770833E-36  1.44228613E+00 -9.01874481E-01
 -1.97215226E-31 -1.44228613E+00 -9.01879674E-01  0.00000000E+00
Force Field                                I                0
Int Atom Types                             I   N=           3
           0           0           0
MM charges                                 R   N=           3
  0.00000000E+00  0.00000000E+00  0.00000000E+00
Integer atomic weights                     I   N=           3
          16           1           1
Real atomic weights                        R   N=           3
  1.59949146E+01  1.00782504E+00  1.00782504E+00
Atom fragment info                         I   N=           3
           0           0           0
Atom residue num                           I   N=           3
           0           0           0
Nuclear spins                              I   N=           3
           0           1           1
Nuclear ZEff                               R   N=           3
 -5.60000000E+00 -1.00000000E+00 -1.00000000E+00
Nuclear QMom                               R   N=           3
  0.00000000E+00  0.00000000E+00  0.00000000E+00
Nuclear GFac                               R   N=           3
  0.00000000E+00  2.79284600E+00  2.79284600E+00
MicOpt                                     I   N=           3
          -1          -1          -1
Number of contracted shells                I                8
Number of primitive shells                 I               19
Pure/Cartesian d shells                    I                1
Pure/Cartesian f shells                    I                0
Highest angular momentum                   I                2
Largest degree of contraction              I                6
Shell types                                I   N=           8
           0          -1          -1           2           0           0
           0           0
Number of primitives per shell             I   N=           8
           6           3           1           1           3           1
           3           1
Shell to atom map                          I   N=           8
           1           1           1           1           2           2
           3           3
Primitive exponents                        R   N=          19
  5.48467166E+03  8.25234946E+02  1.88046958E+02  5.29645000E+01  1.68975704E+01
  5.79963534E+00  1.55396162E+01  3.59993359E+00  1.01376175E+00  2.70005823E-01
  8.00000000E-01  1.87311370E+01  2.82539436E+00  6.40121692E-01  1.61277759E-01
  1.87311370E+01  2.82539436E+00  6.40121692E-01  1.61277759E-01
Contraction coefficients                   R   N=          19
  1.83107443E-03  1.39501722E-02  6.84450781E-02  2.32714336E-01  4.70192898E-01
  3.58520853E-01 -1.10777550E-01 -1.48026263E-01  1.13076702E+00  1.00000000E+00
  1.00000000E+00  3.34946043E-02  2.34726953E-01  8.13757326E-01  1.00000000E+00
  3.34946043E-02  2.34726953E-01  8.13757326E-01  1.00000000E+00
P(S=P) Contraction coefficients            R   N=          19
  0.00000000E+00  0.00000000E+00  0.00000000E+00  0.00000000E+00  0.00000000E+00
  0.00000000E+00  7.08742682E-02  3.39752839E-01  7.27158577E-01  1.00000000E+00
  0.00000000E+00  0.00000000E+00  0.00000000E+00  0.00000000E+00  0.00000000E+00
  0.00000000E+00  0.00000000E+00  0.00000000E+00  0.00000000E+00
Coordinates of each shell                  R   N=          24
  3.38813179E-21  2.25469269E-01  1.65744703E-36  3.38813179E-21  2.25469269E-01
  1.65744703E-36  3.38813179E-21  2.25469269E-01  1.65744703E-36  3.38813179E-21
  2.25469269E-01  1.65744703E-36  1.44228613E+00 -9.01874481E-01 -9.86076132E-32
  1.44228613E+00 -9.01874481E-01 -9.86076132E-32 -1.44228613E+00 -9.01879674E-01
  0.00000000E+00 -1.44228613E+00 -9.01879674E-01  0.00000000E+00
Constraint Structure                       R   N=           9
  3.38813179E-21  2.25469269E-01  1.65744703E-36  1.44228613E+00 -9.01874481E-01
 -9.86076132E-32 -1.44228613E+00 -9.01879674E-01  0.00000000E+00
Num ILSW                                   I              100
ILSW                                       I   N=         100
           0           1           0           0           2           0
           0           0           0           0           0          -1
           0           0           0           0           0           0
           0           0           0           0           1           0
           1           0           0           0           0           0
           0           0      100000           0          -1           0
           0           0           0           0           0           0
           0           0           0           1           1           0
           0           0           1           0           0           0
           0           0           4          40           0           0
           0           0           0           0           0           0
           0           0           0           0           0           0
           0           0           0           0           0           0
           0           0           0           0           0           0
           0           0           0           0           0           0
           0           0           0           0           0           0
           0           0           0           0
Num RLSW                                   I               40
RLSW                                       R   N=          40
  1.00000000E+00  1.00000000E+00  1.00000000E+00  1.00000000E+00  1.00000000E+00
  0.00000000E+00  0.00000000E+00  1.00000000E+00  0.00000000E+00  0.00000000E+00
  0.00000000E+00  0.00000000E+00  1.00000000E+00  0.00000000E+00  0.00000000E+00
  0.00000000E+00  0.00000000E+00  1.00000000E+00  0.00000000E+00  0.00000000E+00
  0.00000000E+00  0.00000000E+00  1.00000000E+00  0.00000000E+00  0.00000000E+00
  0.00000000E+00  0.00000000E+00  1.00000000E+00  0.00000000E+00  0.00000000E+00
  0.00000000E+00  0.00000000E+00  0.00000000E+00  0.00000000E+00  0.00000000E+00
  0.00000000E+00  0.00000000E+00  0.00000000E+00  1.00000000E+00  1.00000000E+00
MxBond                                     I                2
NBond                                      I   N=           3
           2           1           1
IBond                                      I   N=           6
           2           3           1           0           1           0
RBond                                      R   N=           6
  1.00000000E+00  1.00000000E+00  1.00000000E+00  0.00000000E+00  1.00000000E+00
  0.00000000E+00
Virial Ratio                               R      2.003063316057373E+00
SCF Energy                                 R     -7.600979570883645E+01
MP2 Energy                                 R     -7.619684779804203E+01
Total Energy                               R     -7.619684779804203E+01
Post-SCF wavefunction norm                 R      1.448728814837914E+00
RMS Force                                  R      3.626393707019917E-06
RMS Density                                R      2.112143108490936E-10
External E-field                           R   N=          35
  0.00000000E+00  0.00000000E+00  0.00000000E+00  0.00000000E+00  0.00000000E+00
  0.00000000E+00  0.00000000E+00  0.00000000E+00  0.00000000E+00  0.00000000E+00
  0.00000000E+00  0.00000000E+00  0.00000000E+00  0.00000000E+00  0.00000000E+00
  0.00000000E+00  0.00000000E+00  0.00000000E+00  0.00000000E+00  0.00000000E+00
  0.00000000E+00  0.00000000E+00  0.00000000E+00  0.00000000E+00  0.00000000E+00
  0.00000000E+00  0.00000000E+00  0.00000000E+00  0.00000000E+00  0.00000000E+00
  0.00000000E+00  0.00000000E+00  0.00000000E+00  0.00000000E+00  0.00000000E+00
IOpCl                                      I                0
IROHF                                      I                0
Alpha Orbital Energies                     R   N=          19
 -2.05629392E+01 -1.33638694E+00 -6.99679372E-01 -5.70013812E-01 -4.97358279E-01
  2.08172755E-01  3.00957042E-01  1.01517103E+00  1.12816897E+00  1.16280261E+00
  1.16765648E+00  1.37672503E+00  1.43547280E+00  2.02145723E+00  2.03694011E+00
  2.06914306E+00  2.60770838E+00  2.92638355E+00  3.96355120E+00
Alpha MO coefficients                      R   N=         361
  9.94653030E-01  2.11048860E-02  2.75236363E-09 -1.33158447E-03  0.00000000E+00
  4.03154180E-03 -3.53379021E-10  4.81501954E-04  0.00000000E+00 -4.18114274E-03
 -4.05446626E-03 -3.88407953E-03 -1.30617243E-09  0.00000000E+00  0.00000000E+00
  3.38704597E-04 -1.87755980E-04  3.38706189E-04 -1.87756560E-04 -2.09951645E-01
  4.76150751E-01  4.97291901E-07 -9.07314330E-02  0.00000000E+00  4.44122195E-01
  1.19302081E-07 -5.14736462E-02  0.00000000E+00  2.59090517E-02  2.12246694E-02
 -1.44130194E-03 -4.01772770E-08  0.00000000E+00  0.00000000E+00  1.28565552E-01
  2.33299522E-03  1.28564979E-01  2.33306730E-03  2.38086486E-07 -4.63250697E-07
  5.05867374E-01 -4.01321745E-07  0.00000000E+00 -1.17758811E-06  3.09064238E-01
 -9.88969661E-08  0.00000000E+00  1.27760848E-07 -5.53637217E-08 -6.51411897E-09
 -5.12261720E-02  0.00000000E+00  0.00000000E+00  2.29483748E-01  1.14398913E-01
 -2.29483295E-01 -1.14399013E-01 -7.32295746E-02  1.64695104E-01  4.58342483E-08
  5.53388287E-01  0.00000000E+00  3.24108729E-01  1.05795422E-07  4.02375096E-01
  0.00000000E+00 -4.53734387E-04 -4.61469409E-02  1.17838477E-02  3.49166344E-09
  0.00000000E+00  0.00000000E+00 -1.42409776E-01 -8.86869575E-02 -1.42410450E-01
 -8.86876431E-02  0.00000000E+00  0.00000000E+00  0.00000000E+00  0.00000000E+00
  6.39982673E-01  0.00000000E+00  0.00000000E+00  0.00000000E+00  5.11093618E-01
  0.00000000E+00  0.00000000E+00  0.00000000E+00  0.00000000E+00  9.90137927E-08
 -3.34608399E-02  0.00000000E+00  0.00000000E+00  0.00000000E+00  0.00000000E+00
 -1.00009461E-01  5.86093874E-02 -8.72651070E-07 -2.22497192E-01  0.00000000E+00
  1.38784642E+00 -1.28893864E-06 -5.12218113E-01  0.00000000E+00 -5.53153280E-02
 -4.18923931E-02 -7.02568853E-02 -8.97657704E-09  0.00000000E+00  0.00000000E+00
 -5.74756757E-02 -1.02994530E+00 -5.74762971E-02 -1.02994934E+00  2.92039406E-07
  2.78532296E-08 -3.33261646E-01 -1.19589204E-07  0.00000000E+00 -5.81380840E-06
 -8.26923818E-01  3.21556231E-07  0.00000000E+00  1.06183609E-07  2.85429838E-07
  3.07344046E-07  2.18050650E-02  0.00000000E+00  0.00000000E+00  5.34357608E-02
  1.37148377E+00 -5.34359793E-02 -1.37147670E+00  1.66462210E-07 -2.42022527E-06
  1.06420363E-01  2.42007662E-06  0.00000000E+00  5.43350921E-06  6.11919638E-01
 -4.99402092E-07  0.00000000E+00  1.36775181E-07 -1.02611294E-07 -1.29538278E-06
  1.98362694E-01  0.00000000E+00  0.00000000E+00 -8.38896113E-01  4.99298389E-01
  8.38905100E-01 -4.99307393E-01  8.99436617E-03 -9.17998694E-01  1.67760251E-06
 -2.96485901E-01  0.00000000E+00  1.61860804E+00 -6.66680026E-06  6.20204822E-01
  0.00000000E+00 -1.57231450E-01 -3.05452628E-01 -3.95607271E-01 -4.79936783E-07
  0.00000000E+00  0.00000000E+00  6.31362597E-01 -5.38570038E-01  6.31356630E-01
 -5.38570919E-01  4.83031605E-02  2.37696253E-01 -2.20117596E-07  8.11063175E-01
  0.00000000E+00 -6.89679309E-01 -5.22115196E-06 -4.72829107E-01  0.00000000E+00
  2.68817798E-01  1.35201168E-01  4.21923883E-03 -9.90833455E-07  0.00000000E+00
  0.00000000E+00  5.74636196E-01 -2.93235316E-01  5.74629075E-01 -2.93235640E-01
  0.00000000E+00  0.00000000E+00  0.00000000E+00  0.00000000E+00 -9.62505940E-01
  0.00000000E+00  0.00000000E+00  0.00000000E+00  1.03623031E+00  0.00000000E+00
  0.00000000E+00  0.00000000E+00  0.00000000E+00 -9.05175926E-09 -1.48420581E-02
  0.00000000E+00  0.00000000E+00  0.00000000E+00  0.00000000E+00  1.03068555E-07
 -1.48472166E-06 -1.03411052E+00 -8.23872991E-07  0.00000000E+00  2.82709207E-06
  1.53492292E+00  2.46872456E-06  0.00000000E+00  7.50286709E-07 -2.50979893E-07
 -1.08420586E-06 -8.85554513E-03  0.00000000E+00  0.00000000E+00  8.54650733E-02
 -8.90314307E-01 -8.54607468E-02  8.90310624E-01 -8.55091272E-02 -1.39542512E+00
 -9.27958677E-07  5.15259150E-01  0.00000000E+00  3.50554487E+00  3.26641658E-06
 -1.18362195E+00  0.00000000E+00 -6.43287356E-01 -4.00653451E-01 -2.65221043E-01
 -6.89223026E-07  0.00000000E+00  0.00000000E+00 -3.36331631E-01 -7.58460861E-01
 -3.36332393E-01 -7.58455549E-01  6.97445409E-03  7.64143546E-02 -5.96946695E-08
 -6.71823045E-03  0.00000000E+00 -2.19752103E-01 -1.17991946E-07  1.27660561E-01
  0.00000000E+00 -5.90328586E-01  1.00714649E+00 -3.56157374E-01 -2.15021806E-06
  0.00000000E+00  0.00000000E+00  7.42324218E-02  3.50431795E-02  7.42325155E-02
  3.50429557E-02  0.00000000E+00  0.00000000E+00  0.00000000E+00  0.00000000E+00
 -8.38830762E-08  0.00000000E+00  0.00000000E+00  0.00000000E+00 -9.50071674E-08
  0.00000000E+00  0.00000000E+00  0.00000000E+00  0.00000000E+00  1.00000000E+00
 -1.65036681E-06  0.00000000E+00  0.00000000E+00  0.00000000E+00  0.00000000E+00
  0.00000000E+00  0.00000000E+00  0.00000000E+00  0.00000000E+00  7.13356939E-03
  0.00000000E+00  0.00000000E+00  0.00000000E+00  3.25031952E-02  0.00000000E+00
  0.00000000E+00  0.00000000E+00  0.00000000E+00  1.65465447E-06  9.99329818E-01
  0.00000000E+00  0.00000000E+00  0.00000000E+00  0.00000000E+00 -5.59416822E-02
 -4.91499582E-01  9.80107539E-07  5.88457344E-02  0.00000000E+00  1.53191462E+00
 -1.26516448E-06 -7.29928662E-01  0.00000000E+00  7.37864625E-01  5.07158300E-02
 -1.13334363E+00  5.37925104E-06  0.00000000E+00  0.00000000E+00 -8.20725673E-01
 -1.34262868E-01 -8.20730755E-01 -1.34260879E-01  4.15847776E-07  1.83629443E-06
  3.08303897E-02  5.50239281E-07  0.00000000E+00 -9.74507078E-06 -8.37067636E-01
  3.48307398E-06  0.00000000E+00 -5.90747316E-06  2.41244926E-06  5.34804636E-06
  1.27123907E+00  0.00000000E+00  0.00000000E+00  9.28891646E-01 -4.88268652E-02
 -9.28881132E-01  4.88292341E-02 -4.64601641E-01  3.33588801E-01 -4.45197719E-07
  1.14264233E-01  0.00000000E+00  3.59498705E+00  5.08429958E-07 -3.19169309E-01
  0.00000000E+00 -1.51821288E+00 -1.53751368E+00 -1.56009175E+00  6.16565442E-07
  0.00000000E+00  0.00000000E+00  1.20869308E-01 -5.35558016E-01  1.20867815E-01
 -5.35556040E-01
Total SCF Density                          R   N=         190
  2.07755383E+00 -1.82074294E-01  5.08578862E-01  3.08283146E-08  2.00985256E-08
  5.11803601E-01 -4.55992795E-02  9.58207974E-02 -4.45550226E-07  6.28945124E-01
  0.00000000E+00  0.00000000E+00  0.00000000E+00  2.92725500E-36  8.19155643E-01
 -2.25937089E-01  5.29866645E-01 -7.19957319E-07  2.78113526E-01  8.36917449E-37
  6.04614491E-01  8.08750140E-08 -1.37903836E-07  3.12691029E-01 -1.52624460E-07
 -4.59287528E-43 -5.53355750E-07  1.91041406E-01 -3.63597060E-02  8.35403101E-02
 -1.14364581E-07  4.54678603E-01  1.36824865E-36  2.15109267E-01  1.17256887E-08
  3.29110971E-01  0.00000000E+00  0.00000000E+00  0.00000000E+00  2.33772165E-36
  6.54182119E-01  0.00000000E+00  0.00000000E+00  1.86691713E-36  5.22433373E-01
 -1.91304151E-02  2.43472881E-02  1.54964203E-07 -5.19257827E-03 -1.56258469E-38
  2.26857383E-02  8.50615745E-08 -3.03643601E-03 -9.13744224E-39  1.37793358E-03
 -1.02192411E-02  4.84079591E-03 -3.91562282E-08 -5.49150448E-02 -4.30341792E-37
 -1.10932508E-02 -3.89190031E-08 -3.93256862E-02 -3.30042013E-37  1.17560362E-03
  5.19293088E-03 -8.84726782E-03  2.34498392E-03 -6.96522929E-09  1.33139733E-02
 -1.83166584E-37  6.32694975E-03 -1.87436370E-09  9.62769141E-03 -1.49301893E-37
 -5.28992250E-05 -1.11726362E-03  3.12044982E-04 -1.06317106E-08  1.02952250E-08
 -5.18272983E-02  5.22750072E-08  6.10194483E-43  8.72122468E-08 -3.16643556E-02
  1.70770268E-08  4.13065799E-43 -1.51635546E-08  3.65497671E-09  8.75638948E-10
  5.24824139E-03 -3.19936402E-44  3.09810659E-44 -1.55962103E-37  6.10194483E-43
  1.26734223E-07  2.62444809E-43 -9.52864541E-38  4.13065799E-43  1.01210635E-07
 -4.56311622E-44 -3.00138031E-44 -3.19018950E-44  1.57933520E-38  1.96074623E-14
 -7.20165325E-38  2.64969675E-38 -1.64800887E-43 -2.88929573E-37 -4.28287154E-02
 -1.24397787E-38 -1.42970008E-43 -2.19147313E-37 -3.42032434E-02  3.86670867E-39
  2.72940522E-38  9.07678087E-39 -7.36514832E-45 -6.62616932E-09  2.23925561E-03
 -3.24539873E-02  7.55388664E-02  2.32176796E-01 -1.80946763E-01  0.00000000E+00
  2.18873180E-02  1.41850440E-01 -1.27839489E-01  0.00000000E+00  6.78848177E-03
  1.85983017E-02 -3.72950786E-03 -2.35111592E-02 -7.07513210E-38  4.92362248E-38
  1.78945101E-01  1.16359343E-02 -2.69989317E-02  1.15741349E-01 -9.85795907E-02
  0.00000000E+00 -5.54179475E-02  7.07132072E-02 -7.16112249E-02  0.00000000E+00
  2.02971333E-04  8.28580751E-03 -2.09541527E-03 -1.17204375E-02 -3.52699088E-38
  2.01451626E-38  7.83649202E-02  4.19159315E-02 -3.24538635E-02  7.55385243E-02
 -2.32176109E-01 -1.80947038E-01  0.00000000E+00  2.18874530E-02 -1.41850158E-01
 -1.27839882E-01  0.00000000E+00  6.78833543E-03  1.85983905E-02 -3.72951615E-03
  2.35110901E-02  7.07511132E-38  4.92364992E-38 -3.17058078E-02 -2.66456238E-02
  1.78944775E-01  1.16358944E-02 -2.69988769E-02 -1.15741462E-01 -9.85801790E-02
  0.00000000E+00 -5.54177891E-02 -7.07133055E-02 -7.16117389E-02  0.00000000E+00
  2.02917232E-04  8.28589919E-03 -2.09542865E-03  1.17204462E-02  3.52699348E-38
  2.01454260E-38 -2.66456766E-02 -1.04324143E-02  7.83651934E-02  4.19162212E-02
Total MP2 Density                          R   N=         190
  2.07859646E+00 -1.84394034E-01  5.23431990E-01  3.52860885E-08  9.48305226E-09
  5.41321797E-01 -4.32270589E-02  8.16104714E-02 -3.53511717E-07  6.39005199E-01
 -4.13802788E-39 -1.36864960E-39 -2.98276591E-44  2.92125208E-36  8.05727881E-01
 -2.32472563E-01  5.31522057E-01 -7.43465317E-07  2.91291494E-01  8.92995122E-37
  6.58629913E-01  8.73290933E-08 -1.49871951E-07  2.92245916E-01 -1.46711057E-07
 -4.83896497E-43 -5.88956587E-07  1.72338414E-01 -3.77795848E-02  7.55638004E-02
 -1.12131494E-07  4.26942687E-01  1.34736025E-36  2.39103842E-01 -6.67471570E-08
  3.20046885E-01 -2.99432230E-39 -1.50558177E-39 -1.30635311E-44  2.33044143E-36
  6.30695545E-01  4.36492595E-38 -1.35413453E-44  1.84843730E-36  5.50601900E-01
 -1.69368713E-02  1.74185530E-02  1.48590070E-07 -4.86795344E-03 -1.59427437E-38
  1.92269954E-02  6.84125986E-08  7.81842157E-04 -9.37233239E-39  5.90055101E-03
 -7.59119914E-03 -2.17572871E-03 -2.75025646E-08 -5.57724844E-02 -4.34258730E-37
 -1.88298643E-02 -1.83404393E-08 -3.94744288E-02 -3.32954481E-37 -6.04579943E-04
  1.01646479E-02 -6.21114790E-03 -6.09307098E-03 -1.85926149E-09  7.19134963E-03
 -1.91898135E-37  1.01706517E-03  4.06810077E-10  5.92772416E-03 -1.56328065E-37
 -1.35442368E-03 -2.35910757E-03  4.73828036E-03 -1.27230086E-08  1.46950816E-08
 -4.64170880E-02  6.19931159E-08  6.23093120E-43  9.72652739E-08 -2.52011513E-02
  3.82022931E-08  4.22248186E-43 -1.14988211E-08 -1.46270048E-09  1.17475084E-09
  7.81317537E-03 -3.25837783E-44  3.09087947E-44 -1.54369160E-37  6.20096177E-43
  1.22798085E-07  2.72517926E-43 -9.43132315E-38  4.18258826E-43  1.02105632E-07
 -4.53906409E-44 -3.18570799E-44 -3.30177823E-44  1.56320442E-38  4.44374878E-03
 -6.83770634E-38  1.84939651E-38 -1.41472661E-43 -2.92081649E-37 -4.15855798E-02
 -2.43599250E-38 -1.26467178E-43 -2.20778366E-37 -3.63013564E-02  3.52524005E-39
  2.75973521E-38  9.45317845E-39 -1.04558243E-44 -6.59070845E-09  6.62677912E-03
 -3.13723456E-02  7.43848789E-02  2.25429771E-01 -1.75753149E-01 -1.29239298E-38
  1.17519106E-02  1.31810999E-01 -1.23562799E-01 -9.61340535E-39  6.46938843E-03
  1.83692156E-02 -3.68214480E-03 -2.13703211E-02 -7.00286976E-38  4.93317155E-38
  1.85857431E-01  1.33185714E-02 -2.94257079E-02  1.22313783E-01 -1.07290858E-01
 -2.80020295E-38 -6.91480583E-02  7.37584341E-02 -8.12484808E-02 -2.19720460E-38
  2.13898386E-04  1.02450413E-02 -1.47478128E-03 -1.14463905E-02 -3.49096805E-38
  2.23355483E-38  9.03966940E-02  5.65996418E-02 -3.13722171E-02  7.43845409E-02
 -2.25429129E-01 -1.75753445E-01 -1.29239447E-38  1.17520334E-02 -1.31810723E-01
 -1.23563147E-01 -9.61342432E-39  6.46925071E-03  1.83692960E-02 -3.68215172E-03
  2.13702556E-02  7.00284801E-38  4.93319780E-38 -3.07642021E-02 -2.85024206E-02
  1.85857137E-01  1.33185391E-02 -2.94256568E-02 -1.22313830E-01 -1.07291398E-01
 -2.80021440E-38 -6.91479068E-02 -7.37584656E-02 -8.12489524E-02 -2.19721393E-38
  2.13834782E-04  1.02451243E-02 -1.47479295E-03  1.14463815E-02  3.49096938E-38
  2.23358093E-38 -2.85024737E-02 -1.33219517E-02  9.03969483E-02  5.65999594E-02
QEq coupling tensors                       R   N=          18
 -1.47257516E+00 -3.74465492E-06 -2.69662694E-01 -2.57613647E-32  2.00488234E-32
  1.74223785E+00 -2.19277376E-01  3.21476590E-01 -4.66372107E-02  4.75832129E-32
 -3.74656392E-32  2.65914587E-01 -2.19273520E-01 -3.21473072E-01 -4.66381336E-02
  9.22080190E-34  1.00582902E-34  2.65911654E-01
Mulliken Charges                           R   N=           3
 -8.64161129E-01  4.32080662E-01  4.32080467E-01
Optimization MaxStp                        I                2
Optimization Job offset                    I                0
Optimization Num results per geometry      I                2
Optimization Num geometry variables        I                9
Opt point       1 Results for each geome   R   N=           2
 -7.61968478E+01  0.00000000E+00
Opt point       1 Geometries               R   N=           9
  3.38813179E-21  2.25469269E-01  1.65744703E-36  1.44228613E+00 -9.01874481E-01
 -9.86076132E-32 -1.44228613E+00 -9.01879674E-01  0.00000000E+00
Opt point       1 Gradient at each geome   R   N=           9
  1.36712199E-06 -1.01841522E-06  3.64532741E-31  6.84725658E-06  1.04346742E-06
 -3.76539805E-31 -8.21437857E-06 -2.50522055E-08  1.20069695E-32
Optimization Number of geometries          I   N=           1
           1
ONIOM Charges                              I   N=          16
           0           0           0           0           0           0
           0           0           0           0           0           0
           0           0           0           0
ONIOM Multiplicities                       I   N=          16
           1           0           0           0           0           0
           0           0           0           0           0           0
           0           0           0           0
Atom Layers                                I   N=           3
           1           1           1
Atom Modifiers                             I   N=           3
           0           0           0
Force Field                                I                0
Int Atom Modified Types                    I   N=           3
           0           0           0
Link Atoms                                 I   N=           3
           0           0           0
Atom Modified MM Charges                   R   N=           3
  0.00000000E+00  0.00000000E+00  0.00000000E+00
Link Distances                             R   N=          12
  0.00000000E+00  0.00000000E+00  0.00000000E+00  0.00000000E+00  0.00000000E+00
  0.00000000E+00  0.00000000E+00  0.00000000E+00  0.00000000E+00  0.00000000E+00
  0.00000000E+00  0.00000000E+00
Cartesian Gradient                         R   N=           9
  1.36712199E-06 -1.01841522E-06  3.64532741E-31  6.84725658E-06  1.04346742E-06
 -3.76539805E-31 -8.21437857E-06 -2.50522055E-08  1.20069695E-32
Cartesian Force Constants                  R   N=          45
  6.73505419E-01 -3.25371014E-06  4.61876032E-01  3.20474743E-31 -3.08618237E-31
 -9.02801609E-07 -3.36755013E-01  1.91145034E-01 -3.46627000E-31  3.67518307E-01
  2.63220858E-01 -2.30938469E-01  2.59110407E-31 -2.27182859E-01  2.18343213E-01
 -3.08148791E-31  3.08148791E-31  9.25368985E-07  3.20474743E-31 -2.83496888E-31
  1.91114182E-06 -3.36750407E-01 -1.91141780E-01  1.90876082E-32 -3.07632941E-02
 -3.60379992E-02 -3.36588231E-32  3.67513701E-01 -2.63217605E-01 -2.30937562E-01
  7.75018855E-32  3.60378258E-02  1.25952562E-02 -3.51057657E-32  2.27179779E-01
  2.18342306E-01 -1.23259516E-32  6.16297582E-33 -2.25672863E-08  1.84889275E-32
  3.08148791E-33 -2.83651079E-06  0.00000000E+00 -1.23259516E-32  2.85907808E-06
Dipole Moment                              R   N=           3
  5.75386023E-07 -8.65286938E-01 -3.91734903E-32
Dipole Derivatives                         R   N=          27
 -4.84714683E-01 -1.25818135E-07 -1.23259516E-31  8.77866851E-07 -3.86534323E-01
  9.64730565E-32 -7.14905195E-31  4.60419649E-31 -7.67543124E-01  2.42357216E-01
  8.11920488E-02  9.86076132E-32  1.10534358E-01  1.93267457E-01 -9.86076132E-32
  7.64209002E-31 -4.95815876E-31  3.83771761E-01  2.42357467E-01 -8.11919230E-02
  0.00000000E+00 -1.10535235E-01  1.93266866E-01  3.08148791E-33 -4.93038066E-32
  4.43914627E-32  3.83771363E-01
Polarizability                             R   N=           6
  7.06519305E+00  1.23588838E-05  5.22932548E+00 -5.91645679E-31  1.90983037E-31
  2.83231138E+00
