
    -----------------------------------------------------------------------
          Psi4: An Open-Source Ab Initio Electronic Structure Package
                               Psi4 1.3.2 release

                         Git: Rev {HEAD} ecbda83 


    R. M. Parrish, L. A. Burns, D. G. A. Smith, A. C. Simmonett,
    A. E. DePrince III, E. G. Hohenstein, U. Bozkaya, A. Yu. Sokolov,
    R. Di Remigio, R. M. Richard, J. F. Gonthier, A. M. James,
    H. R. McAlexander, A. Kumar, M. Saitow, X. Wang, B. P. Pritchard,
    P. Verma, H. F. Schaefer III, K. Patkowski, R. A. King, E. F. Valeev,
    F. A. Evangelista, J. M. Turney, T. D. Crawford, and C. D. Sherrill,
    J. Chem. Theory Comput. 13(7) pp 3185--3197 (2017).
    (doi: 10.1021/acs.jctc.7b00174)


                         Additional Contributions by
    P. Kraus, H. Kruse, M. H. Lechner, M. C. Schieber, R. A. Shaw,
    A. Alenaizan, R. Galvelis, Z. L. Glick, S. Lehtola, and J. P. Misiewicz

    -----------------------------------------------------------------------


    Psi4 started on: Wednesday, 10 February 2021 10:20PM

    Process ID: 13883
    Host:       node144.bme.utexas.edu
    PSIDATADIR: /home/xy3866/psi4conda/share/psi4
    Memory:     500.0 MiB
    Threads:    8
    
  ==> Input File <==

--------------------------------------------------------------------------
#psi4
#
memory 32 gb

molecule  {
0 1
  O        0.9755400    -1.0764940     0.0000010
  O       -1.3738420     1.6199730     0.0000050
  N       -1.7006930    -0.6600630    -0.0000030
  C        0.5224480     0.2188310    -0.0000040
  C       -0.9336490     0.4655780     0.0000000
  C        1.5816790     1.0895450    -0.0000030
  C        2.7579030     0.2894600     0.0000000
  C        2.3428020    -1.0138960     0.0000040
  C       -3.1488560    -0.5988880     0.0000010
  H        1.5004040     2.1673970    -0.0000090
  H       -1.2325350    -1.5568070    -0.0000080
  H        3.7847070     0.6289700     0.0000040
  H        2.8531581    -1.9656813    -0.1999970
  H       -3.4251050     0.4551520     0.0000010
  H       -3.5616590    -1.0800960     0.8913170
  H       -3.5616630    -1.0800960    -0.8913140
units angstrom
no_reorient  #important for SAPT in psi4, default
symmetry c1  #important for SAPT in psi4, default
}

set PROPERTIES_ORIGIN ["COM"]
properties('MP2/aug-cc-pvtz', properties = ['dipole'])
--------------------------------------------------------------------------

  Memory set to  29.802 GiB by Python driver.
    SCF Algorithm Type (re)set to DF.

*** tstart() called on node144.bme.utexas.edu
*** at Wed Feb 10 22:20:03 2021

   => Loading Basis Set <=

    Name: AUG-CC-PVTZ
    Role: ORBITAL
    Keyword: BASIS
    atoms 1-2   entry O          line   327 file /home/xy3866/psi4conda/share/psi4/basis/aug-cc-pvtz.gbs 
    atoms 3     entry N          line   281 file /home/xy3866/psi4conda/share/psi4/basis/aug-cc-pvtz.gbs 
    atoms 4-9   entry C          line   235 file /home/xy3866/psi4conda/share/psi4/basis/aug-cc-pvtz.gbs 
    atoms 10-16 entry H          line    36 file /home/xy3866/psi4conda/share/psi4/basis/aug-cc-pvtz.gbs 


         ---------------------------------------------------------
                                   SCF
               by Justin Turney, Rob Parrish, Andy Simmonett
                          and Daniel G. A. Smith
                              RHF Reference
                        8 Threads,  30517 MiB Core
         ---------------------------------------------------------

  ==> Geometry <==

    Molecular point group: c1
    Full point group: C1

    Geometry (in Angstrom), charge = 0, multiplicity = 1:

       Center              X                  Y                   Z               Mass       
    ------------   -----------------  -----------------  -----------------  -----------------
         O            0.946663090534    -1.095745568521     0.001612713993    15.994914619570
         O           -1.402718909466     1.600721431479     0.001616713993    15.994914619570
         N           -1.729569909466    -0.679314568521     0.001608713993    14.003074004430
         C            0.493571090534     0.199579431479     0.001607713993    12.000000000000
         C           -0.962525909466     0.446326431479     0.001611713993    12.000000000000
         C            1.552802090534     1.070293431479     0.001608713993    12.000000000000
         C            2.729026090534     0.270208431479     0.001611713993    12.000000000000
         C            2.313925090534    -1.033147568521     0.001615713993    12.000000000000
         C           -3.177732909466    -0.618139568521     0.001612713993    12.000000000000
         H            1.471527090534     2.148145431479     0.001602713993     1.007825032230
         H           -1.261411909466    -1.576058568521     0.001603713993     1.007825032230
         H            3.755830090534     0.609718431479     0.001615713993     1.007825032230
         H            2.824281190534    -1.984932868521    -0.198385286007     1.007825032230
         H           -3.453981909466     0.435900431479     0.001612713993     1.007825032230
         H           -3.590535909466    -1.099347568521     0.892928713993     1.007825032230
         H           -3.590539909466    -1.099347568521    -0.889702286007     1.007825032230

  Running in c1 symmetry.

  Rotational constants: A =      0.14394  B =      0.03577  C =      0.02881 [cm^-1]
  Rotational constants: A =   4315.08584  B =   1072.21227  C =    863.62578 [MHz]
  Nuclear repulsion =  429.371349680448532

  Charge       = 0
  Multiplicity = 1
  Electrons    = 66
  Nalpha       = 33
  Nbeta        = 33

  ==> Algorithm <==

  SCF Algorithm Type is DF.
  DIIS enabled.
  MOM disabled.
  Fractional occupation disabled.
  Guess Type is SAD.
  Energy threshold   = 1.00e-10
  Density threshold  = 1.00e-10
  Integral threshold = 0.00e+00

  ==> Primary Basis <==

  Basis Set: AUG-CC-PVTZ
    Blend: AUG-CC-PVTZ
    Number of shells: 189
    Number of basis function: 575
    Number of Cartesian functions: 670
    Spherical Harmonics?: true
    Max angular momentum: 3

   => Loading Basis Set <=

    Name: (AUG-CC-PVTZ AUX)
    Role: JKFIT
    Keyword: DF_BASIS_SCF
    atoms 1-2   entry O          line   286 file /home/xy3866/psi4conda/share/psi4/basis/aug-cc-pvtz-jkfit.gbs 
    atoms 3     entry N          line   224 file /home/xy3866/psi4conda/share/psi4/basis/aug-cc-pvtz-jkfit.gbs 
    atoms 4-9   entry C          line   162 file /home/xy3866/psi4conda/share/psi4/basis/aug-cc-pvtz-jkfit.gbs 
    atoms 10-16 entry H          line    70 file /home/xy3866/psi4conda/share/psi4/basis/aug-cc-pvtz-jkfit.gbs 

  ==> Pre-Iterations <==

   -------------------------------------------------------
    Irrep   Nso     Nmo     Nalpha   Nbeta   Ndocc  Nsocc
   -------------------------------------------------------
     A        575     575       0       0       0       0
   -------------------------------------------------------
    Total     575     575      33      33      33       0
   -------------------------------------------------------

  ==> Integral Setup <==

  DFHelper Memory: AOs need 2.998 GiB; user supplied 22.352 GiB. Using in-core AOs.

  ==> MemDFJK: Density-Fitted J/K Matrices <==

    J tasked:                   Yes
    K tasked:                   Yes
    wK tasked:                   No
    OpenMP threads:               8
    Memory [MiB]:             22888
    Algorithm:                 Disk
    Schwarz Cutoff:           1E-12
    Mask sparsity (%):       6.4296
    Fitting Condition:        1E-10

   => Auxiliary Basis Set <=

  Basis Set: (AUG-CC-PVTZ AUX)
    Blend: AUG-CC-PVTZ-JKFIT
    Number of shells: 368
    Number of basis function: 1258
    Number of Cartesian functions: 1564
    Spherical Harmonics?: true
    Max angular momentum: 4

  Minimum eigenvalue in the overlap matrix is 3.1379459957E-06.
  Using Symmetric Orthogonalization.

  SCF Guess: Superposition of Atomic Densities via on-the-fly atomic UHF.

  ==> Iterations <==

                           Total Energy        Delta E     RMS |[F,P]|

   @DF-RHF iter SAD:  -434.79843985393165   -4.34798e+02   0.00000e+00 
   @DF-RHF iter   1:  -435.35228483347072   -5.53845e-01   1.20337e-03 DIIS
   @DF-RHF iter   2:  -435.53182469180399   -1.79540e-01   7.17276e-04 DIIS
   @DF-RHF iter   3:  -435.59451619149064   -6.26915e-02   1.61778e-04 DIIS
   @DF-RHF iter   4:  -435.59901952124818   -4.50333e-03   6.25432e-05 DIIS
   @DF-RHF iter   5:  -435.59976603679729   -7.46516e-04   1.29683e-05 DIIS
   @DF-RHF iter   6:  -435.59983237229716   -6.63355e-05   6.17433e-06 DIIS
   @DF-RHF iter   7:  -435.59984836684521   -1.59945e-05   2.39729e-06 DIIS
   @DF-RHF iter   8:  -435.59985173945506   -3.37261e-06   9.03945e-07 DIIS
   @DF-RHF iter   9:  -435.59985215664005   -4.17185e-07   3.38647e-07 DIIS
   @DF-RHF iter  10:  -435.59985219623320   -3.95931e-08   1.14972e-07 DIIS
   @DF-RHF iter  11:  -435.59985220173098   -5.49778e-09   4.33580e-08 DIIS
   @DF-RHF iter  12:  -435.59985220235899   -6.28006e-10   1.57164e-08 DIIS
   @DF-RHF iter  13:  -435.59985220249735   -1.38357e-10   5.99674e-09 DIIS
   @DF-RHF iter  14:  -435.59985220251929   -2.19416e-11   2.43144e-09 DIIS
   @DF-RHF iter  15:  -435.59985220252321   -3.92220e-12   1.40144e-09 DIIS
   @DF-RHF iter  16:  -435.59985220252639   -3.18323e-12   3.76161e-10 DIIS
   @DF-RHF iter  17:  -435.59985220252491    1.47793e-12   1.95613e-10 DIIS
   @DF-RHF iter  18:  -435.59985220252389    1.02318e-12   6.10343e-11 DIIS
  Energy and wave function converged.


  ==> Post-Iterations <==

    Orbital Energies [Eh]
    ---------------------

    Doubly Occupied:                                                      

       1A    -20.643509     2A    -20.516178     3A    -15.589233  
       4A    -11.360752     5A    -11.313650     6A    -11.302026  
       7A    -11.259546     8A    -11.252716     9A    -11.248532  
      10A     -1.474435    11A     -1.371309    12A     -1.231658  
      13A     -1.101783    14A     -1.038616    15A     -0.953803  
      16A     -0.840509    17A     -0.818744    18A     -0.775428  
      19A     -0.764530    20A     -0.670649    21A     -0.656933  
      22A     -0.641993    23A     -0.618850    24A     -0.600802  
      25A     -0.586048    26A     -0.577102    27A     -0.560973  
      28A     -0.542353    29A     -0.536379    30A     -0.434141  
      31A     -0.414453    32A     -0.391979    33A     -0.331068  

    Virtual:                                                              

      34A      0.023723    35A      0.030309    36A      0.035846  
      37A      0.045542    38A      0.048413    39A      0.052043  
      40A      0.069667    41A      0.075556    42A      0.083121  
      43A      0.084710    44A      0.092975    45A      0.104776  
      46A      0.108650    47A      0.112732    48A      0.114730  
      49A      0.117370    50A      0.123062    51A      0.130508  
      52A      0.133588    53A      0.134632    54A      0.142556  
      55A      0.145287    56A      0.148285    57A      0.154302  
      58A      0.160855    59A      0.166061    60A      0.179326  
      61A      0.186294    62A      0.188890    63A      0.193219  
      64A      0.205383    65A      0.211362    66A      0.229417  
      67A      0.229672    68A      0.232594    69A      0.241754  
      70A      0.246661    71A      0.250513    72A      0.267835  
      73A      0.268343    74A      0.272622    75A      0.279497  
      76A      0.284698    77A      0.287213    78A      0.295210  
      79A      0.296164    80A      0.305606    81A      0.308181  
      82A      0.312990    83A      0.319210    84A      0.328966  
      85A      0.332953    86A      0.337617    87A      0.343929  
      88A      0.344840    89A      0.347381    90A      0.351532  
      91A      0.360304    92A      0.366306    93A      0.376346  
      94A      0.388967    95A      0.391862    96A      0.400971  
      97A      0.403692    98A      0.406631    99A      0.412138  
     100A      0.420074   101A      0.422408   102A      0.434856  
     103A      0.439573   104A      0.442949   105A      0.453915  
     106A      0.455959   107A      0.457144   108A      0.462110  
     109A      0.465831   110A      0.472337   111A      0.473528  
     112A      0.483222   113A      0.486852   114A      0.487489  
     115A      0.490800   116A      0.497548   117A      0.503173  
     118A      0.509777   119A      0.510702   120A      0.512942  
     121A      0.523582   122A      0.531378   123A      0.537077  
     124A      0.540133   125A      0.547422   126A      0.556568  
     127A      0.560701   128A      0.574374   129A      0.577792  
     130A      0.584574   131A      0.590547   132A      0.598426  
     133A      0.610265   134A      0.613182   135A      0.627853  
     136A      0.634392   137A      0.644485   138A      0.652447  
     139A      0.660085   140A      0.672659   141A      0.679003  
     142A      0.685905   143A      0.689116   144A      0.705460  
     145A      0.709887   146A      0.721105   147A      0.735592  
     148A      0.745443   149A      0.752148   150A      0.760184  
     151A      0.772026   152A      0.777167   153A      0.793417  
     154A      0.800102   155A      0.811263   156A      0.813832  
     157A      0.827991   158A      0.833534   159A      0.837533  
     160A      0.853151   161A      0.856982   162A      0.861480  
     163A      0.862846   164A      0.879654   165A      0.882473  
     166A      0.887996   167A      0.894145   168A      0.899993  
     169A      0.902780   170A      0.906407   171A      0.913415  
     172A      0.931410   173A      0.937154   174A      0.943918  
     175A      0.947322   176A      0.956239   177A      0.958816  
     178A      0.965255   179A      0.970493   180A      0.979791  
     181A      0.982266   182A      0.987460   183A      0.989018  
     184A      0.999119   185A      1.006753   186A      1.017463  
     187A      1.020163   188A      1.033824   189A      1.044182  
     190A      1.049704   191A      1.050291   192A      1.062157  
     193A      1.065272   194A      1.078481   195A      1.081198  
     196A      1.085048   197A      1.090534   198A      1.101298  
     199A      1.107844   200A      1.108941   201A      1.122886  
     202A      1.124868   203A      1.131240   204A      1.135094  
     205A      1.141945   206A      1.148065   207A      1.156951  
     208A      1.166322   209A      1.170465   210A      1.180395  
     211A      1.181852   212A      1.190878   213A      1.196019  
     214A      1.202071   215A      1.208375   216A      1.214817  
     217A      1.231897   218A      1.239013   219A      1.248118  
     220A      1.256323   221A      1.259117   222A      1.275097  
     223A      1.284794   224A      1.301233   225A      1.307170  
     226A      1.312517   227A      1.316828   228A      1.334850  
     229A      1.337817   230A      1.352878   231A      1.361224  
     232A      1.386701   233A      1.391519   234A      1.399980  
     235A      1.410961   236A      1.416665   237A      1.434331  
     238A      1.436973   239A      1.449623   240A      1.456242  
     241A      1.457630   242A      1.465137   243A      1.484332  
     244A      1.498811   245A      1.506470   246A      1.513260  
     247A      1.518074   248A      1.527538   249A      1.549815  
     250A      1.558340   251A      1.567799   252A      1.575237  
     253A      1.589494   254A      1.594776   255A      1.603103  
     256A      1.614382   257A      1.621339   258A      1.624493  
     259A      1.644949   260A      1.665253   261A      1.683280  
     262A      1.688095   263A      1.699005   264A      1.701841  
     265A      1.718525   266A      1.726594   267A      1.731552  
     268A      1.751101   269A      1.762661   270A      1.771163  
     271A      1.772010   272A      1.781594   273A      1.785313  
     274A      1.794477   275A      1.800803   276A      1.812565  
     277A      1.834231   278A      1.847598   279A      1.874502  
     280A      1.883592   281A      1.891280   282A      1.900231  
     283A      1.919903   284A      1.930301   285A      1.938382  
     286A      1.943999   287A      1.949157   288A      1.957035  
     289A      1.979441   290A      1.987496   291A      1.993928  
     292A      2.004325   293A      2.016720   294A      2.027043  
     295A      2.038660   296A      2.041180   297A      2.057820  
     298A      2.075369   299A      2.084862   300A      2.100109  
     301A      2.115900   302A      2.128879   303A      2.158817  
     304A      2.164713   305A      2.169660   306A      2.194258  
     307A      2.201696   308A      2.207948   309A      2.221840  
     310A      2.237442   311A      2.240693   312A      2.251717  
     313A      2.269589   314A      2.276307   315A      2.296606  
     316A      2.318660   317A      2.330489   318A      2.353612  
     319A      2.366042   320A      2.380287   321A      2.392119  
     322A      2.409447   323A      2.426988   324A      2.436677  
     325A      2.450224   326A      2.456050   327A      2.481963  
     328A      2.506528   329A      2.508362   330A      2.538933  
     331A      2.552204   332A      2.558072   333A      2.573547  
     334A      2.583855   335A      2.608874   336A      2.618550  
     337A      2.640409   338A      2.675021   339A      2.689620  
     340A      2.706212   341A      2.711762   342A      2.721501  
     343A      2.742845   344A      2.768872   345A      2.790642  
     346A      2.810900   347A      2.844549   348A      2.854741  
     349A      2.882522   350A      2.893309   351A      2.907771  
     352A      2.955380   353A      2.968161   354A      2.983664  
     355A      2.994787   356A      3.030398   357A      3.053761  
     358A      3.081502   359A      3.107759   360A      3.117392  
     361A      3.136520   362A      3.174600   363A      3.196564  
     364A      3.206232   365A      3.213380   366A      3.242586  
     367A      3.273029   368A      3.284882   369A      3.308831  
     370A      3.341919   371A      3.350804   372A      3.361428  
     373A      3.377019   374A      3.388259   375A      3.396395  
     376A      3.420557   377A      3.424735   378A      3.435968  
     379A      3.461282   380A      3.478950   381A      3.499100  
     382A      3.513790   383A      3.519998   384A      3.527843  
     385A      3.559082   386A      3.569939   387A      3.582748  
     388A      3.593726   389A      3.622493   390A      3.624211  
     391A      3.629291   392A      3.644470   393A      3.653910  
     394A      3.666375   395A      3.678319   396A      3.714694  
     397A      3.734755   398A      3.751679   399A      3.753463  
     400A      3.770316   401A      3.782063   402A      3.793270  
     403A      3.811193   404A      3.834870   405A      3.844645  
     406A      3.855585   407A      3.868293   408A      3.888683  
     409A      3.893377   410A      3.914135   411A      3.918694  
     412A      3.934252   413A      3.941662   414A      3.952870  
     415A      3.978136   416A      3.991864   417A      4.001581  
     418A      4.021173   419A      4.029304   420A      4.034946  
     421A      4.051486   422A      4.066893   423A      4.073773  
     424A      4.091370   425A      4.102705   426A      4.119037  
     427A      4.126944   428A      4.134327   429A      4.138695  
     430A      4.163724   431A      4.188153   432A      4.199060  
     433A      4.221692   434A      4.228614   435A      4.246009  
     436A      4.248958   437A      4.262646   438A      4.279435  
     439A      4.286396   440A      4.297339   441A      4.325733  
     442A      4.338608   443A      4.352844   444A      4.363878  
     445A      4.377105   446A      4.390766   447A      4.407704  
     448A      4.423717   449A      4.439295   450A      4.455554  
     451A      4.485419   452A      4.487649   453A      4.510163  
     454A      4.522929   455A      4.542985   456A      4.567031  
     457A      4.574654   458A      4.601113   459A      4.647820  
     460A      4.659086   461A      4.683984   462A      4.688505  
     463A      4.698035   464A      4.718314   465A      4.770113  
     466A      4.784627   467A      4.796013   468A      4.805051  
     469A      4.820832   470A      4.847411   471A      4.859259  
     472A      4.867574   473A      4.878453   474A      4.894068  
     475A      4.913201   476A      4.939590   477A      4.956227  
     478A      4.962322   479A      4.975851   480A      5.015857  
     481A      5.042409   482A      5.049434   483A      5.051590  
     484A      5.074410   485A      5.082350   486A      5.123178  
     487A      5.130820   488A      5.141703   489A      5.153255  
     490A      5.157319   491A      5.176484   492A      5.212858  
     493A      5.217836   494A      5.250181   495A      5.314935  
     496A      5.322788   497A      5.334570   498A      5.384136  
     499A      5.402979   500A      5.444803   501A      5.495851  
     502A      5.504311   503A      5.510069   504A      5.557363  
     505A      5.573759   506A      5.622935   507A      5.665668  
     508A      5.698529   509A      5.700074   510A      5.717868  
     511A      5.726055   512A      5.762208   513A      5.794993  
     514A      5.822565   515A      5.860913   516A      5.883856  
     517A      5.908282   518A      5.998572   519A      6.090288  
     520A      6.118275   521A      6.158065   522A      6.200353  
     523A      6.202478   524A      6.251049   525A      6.266857  
     526A      6.268532   527A      6.310303   528A      6.341581  
     529A      6.436473   530A      6.498002   531A      6.555729  
     532A      6.600804   533A      6.663036   534A      6.692029  
     535A      6.712347   536A      6.743613   537A      6.744366  
     538A      6.772945   539A      6.812847   540A      6.859798  
     541A      6.875430   542A      6.897637   543A      6.951695  
     544A      7.008137   545A      7.043265   546A      7.054608  
     547A      7.082591   548A      7.132378   549A      7.206740  
     550A      7.228659   551A      7.406896   552A      7.445279  
     553A      7.455127   554A      7.525440   555A      7.615759  
     556A      7.628144   557A      7.689790   558A      7.722509  
     559A      7.755751   560A      7.826453   561A      7.869591  
     562A      7.959882   563A      7.992436   564A      8.040417  
     565A      8.393229   566A      8.512261   567A     14.702589  
     568A     16.349308   569A     16.841042   570A     17.385823  
     571A     17.496857   572A     18.517882   573A     18.587921  
     574A     19.555795   575A     20.338606  

    Final Occupation by Irrep:
              A 
    DOCC [    33 ]

  @DF-RHF Final Energy:  -435.59985220252389

   => Energetics <=

    Nuclear Repulsion Energy =            429.3713496804485317
    One-Electron Energy =               -1445.1010475773402959
    Two-Electron Energy =                 580.1298456943679867
    Total Energy =                       -435.5998522025238344

Computation Completed

*** tstop() called on node144.bme.utexas.edu at Wed Feb 10 22:20:55 2021
Module time:
	user time   =     232.06 seconds =       3.87 minutes
	system time =      31.18 seconds =       0.52 minutes
	total time  =         52 seconds =       0.87 minutes
Total time:
	user time   =     232.06 seconds =       3.87 minutes
	system time =      31.18 seconds =       0.52 minutes
	total time  =         52 seconds =       0.87 minutes
   => Loading Basis Set <=

    Name: (AUG-CC-PVTZ AUX)
    Role: RIFIT
    Keyword: DF_BASIS_MP2
    atoms 1-2   entry O          line   264 file /home/xy3866/psi4conda/share/psi4/basis/aug-cc-pvtz-ri.gbs 
    atoms 3     entry N          line   206 file /home/xy3866/psi4conda/share/psi4/basis/aug-cc-pvtz-ri.gbs 
    atoms 4-9   entry C          line   148 file /home/xy3866/psi4conda/share/psi4/basis/aug-cc-pvtz-ri.gbs 
    atoms 10-16 entry H          line    30 file /home/xy3866/psi4conda/share/psi4/basis/aug-cc-pvtz-ri.gbs 


*** tstart() called on node144.bme.utexas.edu
*** at Wed Feb 10 22:20:55 2021


  //>>>>>>>>>>>>>>>>>>>>>>>>>>>>>>>>>>>//
  //               DFMP2               //
  //<<<<<<<<<<<<<<<<<<<<<<<<<<<<<<<<<<<//

	 --------------------------------------------------------
	                          DF-MP2                         
	      2nd-Order Density-Fitted Moller-Plesset Theory     
	              RMP2 Wavefunction,   8 Threads             
	                                                         
	        Rob Parrish, Justin Turney, Andy Simmonett,      
	           Ed Hohenstein, and C. David Sherrill          
	 --------------------------------------------------------

   => Auxiliary Basis Set <=

  Basis Set: (AUG-CC-PVTZ AUX)
    Blend: AUG-CC-PVTZ-RI
    Number of shells: 350
    Number of basis function: 1276
    Number of Cartesian functions: 1609
    Spherical Harmonics?: true
    Max angular momentum: 4

	 --------------------------------------------------------
	                 NBF =   575, NAUX =  1276
	 --------------------------------------------------------
	   CLASS    FOCC     OCC    AOCC    AVIR     VIR    FVIR
	   PAIRS       0      33      33     542     542       0
	 --------------------------------------------------------

  DFHelper Memory: AOs need 2.998 GiB; user supplied 22.352 GiB. Using in-core AOs.


         ------------------------------------------------------------
                                     CPHF                           
                                  Rob Parrish                       
         ------------------------------------------------------------

  ==> Geometry <==

    Molecular point group: c1
    Full point group: C1

    Geometry (in Angstrom), charge = 0, multiplicity = 1:

       Center              X                  Y                   Z               Mass       
    ------------   -----------------  -----------------  -----------------  -----------------
         O            0.946663090534    -1.095745568521     0.001612713993    15.994914619570
         O           -1.402718909466     1.600721431479     0.001616713993    15.994914619570
         N           -1.729569909466    -0.679314568521     0.001608713993    14.003074004430
         C            0.493571090534     0.199579431479     0.001607713993    12.000000000000
         C           -0.962525909466     0.446326431479     0.001611713993    12.000000000000
         C            1.552802090534     1.070293431479     0.001608713993    12.000000000000
         C            2.729026090534     0.270208431479     0.001611713993    12.000000000000
         C            2.313925090534    -1.033147568521     0.001615713993    12.000000000000
         C           -3.177732909466    -0.618139568521     0.001612713993    12.000000000000
         H            1.471527090534     2.148145431479     0.001602713993     1.007825032230
         H           -1.261411909466    -1.576058568521     0.001603713993     1.007825032230
         H            3.755830090534     0.609718431479     0.001615713993     1.007825032230
         H            2.824281190534    -1.984932868521    -0.198385286007     1.007825032230
         H           -3.453981909466     0.435900431479     0.001612713993     1.007825032230
         H           -3.590535909466    -1.099347568521     0.892928713993     1.007825032230
         H           -3.590539909466    -1.099347568521    -0.889702286007     1.007825032230

  Nuclear repulsion =  429.371349680448532
  Reference energy  = -435.599852202523891

  ==> Basis Set <==

  Basis Set: AUG-CC-PVTZ
    Blend: AUG-CC-PVTZ
    Number of shells: 189
    Number of basis function: 575
    Number of Cartesian functions: 670
    Spherical Harmonics?: true
    Max angular momentum: 3

  ==> CGRSolver (by Rob Parrish) <==

   Number of roots    =         1
   Preconditioning    =    JACOBI
   Convergence cutoff =     1E-06
   Maximum iterations =       100

  ==> CPHFRHamiltonian (by Rob Parrish) <== 

  ==> MemDFJK: Density-Fitted J/K Matrices <==

    J tasked:                   Yes
    K tasked:                   Yes
    wK tasked:                   No
    OpenMP threads:               8
    Memory [MiB]:             22888
    Algorithm:                 Disk
    Schwarz Cutoff:           1E-12
    Mask sparsity (%):       6.4296
    Fitting Condition:        1E-10

   => Auxiliary Basis Set <=

  Basis Set: (AUG-CC-PVTZ AUX)
    Blend: AUG-CC-PVTZ-JKFIT
    Number of shells: 368
    Number of basis function: 1258
    Number of Cartesian functions: 1564
    Spherical Harmonics?: true
    Max angular momentum: 4

  ==> CPHF Iterations <==

  => Iterations <=

             Iter  Converged  Remaining    Residual
  CGR           1          0          1   1.263E-01
  CGR           2          0          1   4.248E-02
  CGR           3          0          1   2.012E-02
  CGR           4          0          1   6.744E-03
  CGR           5          0          1   3.060E-03
  CGR           6          0          1   1.326E-03
  CGR           7          0          1   4.791E-04
  CGR           8          0          1   2.184E-04
  CGR           9          0          1   8.026E-05
  CGR          10          0          1   2.817E-05
  CGR          11          0          1   9.242E-06
  CGR          12          0          1   2.542E-06
  CGR          13          1          0   8.305E-07

    CGRSolver converged.

	-----------------------------------------------------------
	 ==================> DF-MP2 Energies <==================== 
	-----------------------------------------------------------
	 Reference Energy          =    -435.5998522025238913 [Eh]
	 Singles Energy            =      -0.0000000000000000 [Eh]
	 Same-Spin Energy          =      -0.4479917189723495 [Eh]
	 Opposite-Spin Energy      =      -1.3718039997586828 [Eh]
	 Correlation Energy        =      -1.8197957187310323 [Eh]
	 Total Energy              =    -437.4196479212549207 [Eh]
	-----------------------------------------------------------
	 ================> DF-SCS-MP2 Energies <================== 
	-----------------------------------------------------------
	 SCS Same-Spin Scale       =       0.3333333333333333 [-]
	 SCS Opposite-Spin Scale   =       1.2000000000000000 [-]
	 SCS Same-Spin Energy      =      -0.1493305729907831 [Eh]
	 SCS Opposite-Spin Energy  =      -1.6461647997104194 [Eh]
	 SCS Correlation Energy    =      -1.7954953727012026 [Eh]
	 SCS Total Energy          =    -437.3953475752251165 [Eh]
	-----------------------------------------------------------



Properties will be evaluated at   0.000000,   0.000000,   0.000000 [a0]

Properties computed using the MP2 density matrix

  Nuclear Dipole Moment: [e a0]
     X:    -3.6016      Y:    -2.4011      Z:    -0.1769

  Electronic Dipole Moment: [e a0]
     X:     4.0220      Y:     1.1407      Z:     0.1088

  Dipole Moment: [e a0]
     X:     0.4204      Y:    -1.2604      Z:    -0.0681     Total:     1.3304

  Dipole Moment: [D]
     X:     1.0687      Y:    -3.2036      Z:    -0.1730     Total:     3.3816


*** tstop() called on node144.bme.utexas.edu at Wed Feb 10 22:22:44 2021
Module time:
	user time   =     636.26 seconds =      10.60 minutes
	system time =      34.54 seconds =       0.58 minutes
	total time  =        109 seconds =       1.82 minutes
Total time:
	user time   =     868.47 seconds =      14.47 minutes
	system time =      65.72 seconds =       1.10 minutes
	total time  =        161 seconds =       2.68 minutes

    Psi4 stopped on: Wednesday, 10 February 2021 10:22PM
    Psi4 wall time for execution: 0:02:41.12

*** Psi4 exiting successfully. Buy a developer a beer!
