
    -----------------------------------------------------------------------
          Psi4: An Open-Source Ab Initio Electronic Structure Package
                               Psi4 1.3.2 release

                         Git: Rev {HEAD} ecbda83 


    R. M. Parrish, L. A. Burns, D. G. A. Smith, A. C. Simmonett,
    A. E. DePrince III, E. G. Hohenstein, U. Bozkaya, A. Yu. Sokolov,
    R. Di Remigio, R. M. Richard, J. F. Gonthier, A. M. James,
    H. R. McAlexander, A. Kumar, M. Saitow, X. Wang, B. P. Pritchard,
    P. Verma, H. F. Schaefer III, K. Patkowski, R. A. King, E. F. Valeev,
    F. A. Evangelista, J. M. Turney, T. D. Crawford, and C. D. Sherrill,
    J. Chem. Theory Comput. 13(7) pp 3185--3197 (2017).
    (doi: 10.1021/acs.jctc.7b00174)


                         Additional Contributions by
    P. Kraus, H. Kruse, M. H. Lechner, M. C. Schieber, R. A. Shaw,
    A. Alenaizan, R. Galvelis, Z. L. Glick, S. Lehtola, and J. P. Misiewicz

    -----------------------------------------------------------------------


    Psi4 started on: Monday, 02 November 2020 08:37PM

    Process ID: 43519
    Host:       node142.bme.utexas.edu
    PSIDATADIR: /home/xy3866/psi4conda/share/psi4
    Memory:     500.0 MiB
    Threads:    8
    
  ==> Input File <==

--------------------------------------------------------------------------
#psi4
#
memory 32 gb

molecule  {
0 1
  O       -1.4697740     2.5644010     0.0803940
  N        1.9215081    -0.5593422    -0.0554006
  N       -1.9102790     0.3061000     0.0485010
  N       -0.3427170    -1.4672350    -0.0387560
  N        1.5166440     1.6409000    -0.0105650
  N       -2.6294290    -1.9169300     0.1110730
  C        0.5576980    -0.4369160    -0.0295360
  C        0.3578145     0.9433770    -0.0097936
  C       -1.0221650     1.4237120     0.0351730
  C        2.4390620     0.6894910    -0.0699270
  C       -1.5730580    -1.0260450     0.0187980
  C        2.6353690    -1.8453210    -0.0655260
  H        3.5092610     0.8590810    -0.0866130
  H        2.3729340    -2.4304260     0.8177420
  H        2.3794720    -2.4140780    -0.9605130
  H        3.7041390    -1.6305860    -0.0592400
  H       -2.8879820     0.5691470     0.1693100
  H       -2.3258040    -2.8676930    -0.0642460
  H       -3.4596940    -1.6726380    -0.4173570
units angstrom
no_reorient  #important for SAPT in psi4, default
symmetry c1  #important for SAPT in psi4, default
}

set PROPERTIES_ORIGIN ["COM"]
properties('MP2/aug-cc-pvtz', properties = ['dipole'])
--------------------------------------------------------------------------

  Memory set to  29.802 GiB by Python driver.
    SCF Algorithm Type (re)set to DF.

*** tstart() called on node142.bme.utexas.edu
*** at Mon Nov  2 20:37:11 2020

   => Loading Basis Set <=

    Name: AUG-CC-PVTZ
    Role: ORBITAL
    Keyword: BASIS
    atoms 1     entry O          line   327 file /home/xy3866/psi4conda/share/psi4/basis/aug-cc-pvtz.gbs 
    atoms 2-6   entry N          line   281 file /home/xy3866/psi4conda/share/psi4/basis/aug-cc-pvtz.gbs 
    atoms 7-12  entry C          line   235 file /home/xy3866/psi4conda/share/psi4/basis/aug-cc-pvtz.gbs 
    atoms 13-19 entry H          line    36 file /home/xy3866/psi4conda/share/psi4/basis/aug-cc-pvtz.gbs 


         ---------------------------------------------------------
                                   SCF
               by Justin Turney, Rob Parrish, Andy Simmonett
                          and Daniel G. A. Smith
                              RHF Reference
                        8 Threads,  30517 MiB Core
         ---------------------------------------------------------

  ==> Geometry <==

    Molecular point group: c1
    Full point group: C1

    Geometry (in Angstrom), charge = 0, multiplicity = 1:

       Center              X                  Y                   Z               Mass       
    ------------   -----------------  -----------------  -----------------  -----------------
         O           -1.471722108315     2.562114023704     0.080402245309    15.994914619570
         N            1.919559991685    -0.561629176296    -0.055392354691    14.003074004430
         N           -1.912227108315     0.303813023704     0.048509245309    14.003074004430
         N           -0.344665108315    -1.469521976296    -0.038747754691    14.003074004430
         N            1.514695891685     1.638613023704    -0.010556754691    14.003074004430
         N           -2.631377108315    -1.919216976296     0.111081245309    14.003074004430
         C            0.555749891685    -0.439202976296    -0.029527754691    12.000000000000
         C            0.355866391685     0.941090023704    -0.009785354691    12.000000000000
         C           -1.024113108315     1.421425023704     0.035181245309    12.000000000000
         C            2.437113891685     0.687204023704    -0.069918754691    12.000000000000
         C           -1.575006108315    -1.028331976296     0.018806245309    12.000000000000
         C            2.633420891685    -1.847607976296    -0.065517754691    12.000000000000
         H            3.507312891685     0.856794023704    -0.086604754691     1.007825032230
         H            2.370985891685    -2.432712976296     0.817750245309     1.007825032230
         H            2.377523891685    -2.416364976296    -0.960504754691     1.007825032230
         H            3.702190891685    -1.632872976296    -0.059231754691     1.007825032230
         H           -2.889930108315     0.566860023704     0.169318245309     1.007825032230
         H           -2.327752108315    -2.869979976296    -0.064237754691     1.007825032230
         H           -3.461642108315    -1.674924976296    -0.417348754691     1.007825032230

  Running in c1 symmetry.

  Rotational constants: A =      0.04751  B =      0.03141  C =      0.01899 [cm^-1]
  Rotational constants: A =   1424.44998  B =    941.72949  C =    569.40663 [MHz]
  Nuclear repulsion =  693.643004667179184

  Charge       = 0
  Multiplicity = 1
  Electrons    = 86
  Nalpha       = 43
  Nbeta        = 43

  ==> Algorithm <==

  SCF Algorithm Type is DF.
  DIIS enabled.
  MOM disabled.
  Fractional occupation disabled.
  Guess Type is SAD.
  Energy threshold   = 1.00e-10
  Density threshold  = 1.00e-10
  Integral threshold = 0.00e+00

  ==> Primary Basis <==

  Basis Set: AUG-CC-PVTZ
    Blend: AUG-CC-PVTZ
    Number of shells: 231
    Number of basis function: 713
    Number of Cartesian functions: 835
    Spherical Harmonics?: true
    Max angular momentum: 3

   => Loading Basis Set <=

    Name: (AUG-CC-PVTZ AUX)
    Role: JKFIT
    Keyword: DF_BASIS_SCF
    atoms 1     entry O          line   286 file /home/xy3866/psi4conda/share/psi4/basis/aug-cc-pvtz-jkfit.gbs 
    atoms 2-6   entry N          line   224 file /home/xy3866/psi4conda/share/psi4/basis/aug-cc-pvtz-jkfit.gbs 
    atoms 7-12  entry C          line   162 file /home/xy3866/psi4conda/share/psi4/basis/aug-cc-pvtz-jkfit.gbs 
    atoms 13-19 entry H          line    70 file /home/xy3866/psi4conda/share/psi4/basis/aug-cc-pvtz-jkfit.gbs 

  ==> Pre-Iterations <==

   -------------------------------------------------------
    Irrep   Nso     Nmo     Nalpha   Nbeta   Ndocc  Nsocc
   -------------------------------------------------------
     A        713     713       0       0       0       0
   -------------------------------------------------------
    Total     713     713      43      43      43       0
   -------------------------------------------------------

  ==> Integral Setup <==

  DFHelper Memory: AOs need 5.670 GiB; user supplied 22.352 GiB. Using in-core AOs.

  ==> MemDFJK: Density-Fitted J/K Matrices <==

    J tasked:                   Yes
    K tasked:                   Yes
    wK tasked:                   No
    OpenMP threads:               8
    Memory [MiB]:             22888
    Algorithm:                 Disk
    Schwarz Cutoff:           1E-12
    Mask sparsity (%):       7.1838
    Fitting Condition:        1E-10

   => Auxiliary Basis Set <=

  Basis Set: (AUG-CC-PVTZ AUX)
    Blend: AUG-CC-PVTZ-JKFIT
    Number of shells: 458
    Number of basis function: 1570
    Number of Cartesian functions: 1957
    Spherical Harmonics?: true
    Max angular momentum: 4

  Minimum eigenvalue in the overlap matrix is 1.2274342806E-06.
  Using Symmetric Orthogonalization.

  SCF Guess: Superposition of Atomic Densities via on-the-fly atomic UHF.

  ==> Iterations <==

                           Total Energy        Delta E     RMS |[F,P]|

   @DF-RHF iter SAD:  -578.39863161999733   -5.78399e+02   0.00000e+00 
   @DF-RHF iter   1:  -578.30095901419224    9.76726e-02   1.13099e-03 DIIS
   @DF-RHF iter   2:  -578.54500797912488   -2.44049e-01   6.55221e-04 DIIS
   @DF-RHF iter   3:  -578.62242028285380   -7.74123e-02   1.45885e-04 DIIS
   @DF-RHF iter   4:  -578.62822306919327   -5.80279e-03   5.84975e-05 DIIS
   @DF-RHF iter   5:  -578.62926155538139   -1.03849e-03   1.25780e-05 DIIS
   @DF-RHF iter   6:  -578.62936311962449   -1.01564e-04   6.40310e-06 DIIS
   @DF-RHF iter   7:  -578.62939064506975   -2.75254e-05   2.59745e-06 DIIS
   @DF-RHF iter   8:  -578.62939566153034   -5.01646e-06   1.02371e-06 DIIS
   @DF-RHF iter   9:  -578.62939639243632   -7.30906e-07   3.57382e-07 DIIS
   @DF-RHF iter  10:  -578.62939650154181   -1.09105e-07   1.53686e-07 DIIS
   @DF-RHF iter  11:  -578.62939651593717   -1.43954e-08   6.08931e-08 DIIS
   @DF-RHF iter  12:  -578.62939651851048   -2.57330e-09   2.34270e-08 DIIS
   @DF-RHF iter  13:  -578.62939651884199   -3.31511e-10   9.36628e-09 DIIS
   @DF-RHF iter  14:  -578.62939651889133   -4.93401e-11   3.01870e-09 DIIS
   @DF-RHF iter  15:  -578.62939651889997   -8.64020e-12   1.25457e-09 DIIS
   @DF-RHF iter  16:  -578.62939651890395   -3.97904e-12   5.33623e-10 DIIS
   @DF-RHF iter  17:  -578.62939651890485   -9.09495e-13   1.92583e-10 DIIS
   @DF-RHF iter  18:  -578.62939651890031    4.54747e-12   9.63052e-11 DIIS
  Energy and wave function converged.


  ==> Post-Iterations <==

    Orbital Energies [Eh]
    ---------------------

    Doubly Occupied:                                                      

       1A    -20.522411     2A    -15.633362     3A    -15.629531  
       4A    -15.610166     5A    -15.570822     6A    -15.555488  
       7A    -11.395205     8A    -11.365752     9A    -11.314562  
      10A    -11.303784    11A    -11.291164    12A    -11.247403  
      13A     -1.391263    14A     -1.364301    15A     -1.335107  
      16A     -1.218384    17A     -1.216674    18A     -1.190852  
      19A     -1.027264    20A     -0.986049    21A     -0.902060  
      22A     -0.881646    23A     -0.807657    24A     -0.765378  
      25A     -0.742880    26A     -0.728989    27A     -0.692080  
      28A     -0.670928    29A     -0.647841    30A     -0.642061  
      31A     -0.625861    32A     -0.610061    33A     -0.593063  
      34A     -0.578381    35A     -0.563962    36A     -0.541749  
      37A     -0.493369    38A     -0.459227    39A     -0.441605  
      40A     -0.429160    41A     -0.426882    42A     -0.395387  
      43A     -0.295203  

    Virtual:                                                              

      44A      0.015973    45A      0.023536    46A      0.034683  
      47A      0.039892    48A      0.043653    49A      0.050022  
      50A      0.059936    51A      0.076655    52A      0.078134  
      53A      0.083292    54A      0.089116    55A      0.093259  
      56A      0.107420    57A      0.111843    58A      0.113045  
      59A      0.116261    60A      0.120063    61A      0.122312  
      62A      0.125733    63A      0.129356    64A      0.132418  
      65A      0.133392    66A      0.136010    67A      0.141419  
      68A      0.144363    69A      0.152441    70A      0.161309  
      71A      0.164584    72A      0.166881    73A      0.175207  
      74A      0.182579    75A      0.183591    76A      0.185953  
      77A      0.195229    78A      0.195944    79A      0.203469  
      80A      0.206390    81A      0.214094    82A      0.221439  
      83A      0.226215    84A      0.231864    85A      0.236956  
      86A      0.240053    87A      0.244915    88A      0.255011  
      89A      0.259450    90A      0.265177    91A      0.269175  
      92A      0.273528    93A      0.275567    94A      0.285412  
      95A      0.291226    96A      0.293753    97A      0.300597  
      98A      0.301772    99A      0.308258   100A      0.310498  
     101A      0.315366   102A      0.319927   103A      0.321718  
     104A      0.327431   105A      0.338871   106A      0.341864  
     107A      0.344813   108A      0.351772   109A      0.357022  
     110A      0.358294   111A      0.362800   112A      0.366847  
     113A      0.370513   114A      0.374749   115A      0.379701  
     116A      0.388540   117A      0.393933   118A      0.396315  
     119A      0.403230   120A      0.406640   121A      0.408076  
     122A      0.412294   123A      0.417271   124A      0.419064  
     125A      0.432351   126A      0.438755   127A      0.443692  
     128A      0.448250   129A      0.451063   130A      0.454327  
     131A      0.456481   132A      0.459950   133A      0.469791  
     134A      0.475231   135A      0.478689   136A      0.481802  
     137A      0.487816   138A      0.493241   139A      0.498231  
     140A      0.502367   141A      0.508371   142A      0.510973  
     143A      0.512105   144A      0.514460   145A      0.521277  
     146A      0.529520   147A      0.536124   148A      0.540049  
     149A      0.542368   150A      0.546964   151A      0.552641  
     152A      0.561845   153A      0.565867   154A      0.567855  
     155A      0.572745   156A      0.576075   157A      0.592578  
     158A      0.596696   159A      0.604669   160A      0.611170  
     161A      0.622295   162A      0.627083   163A      0.632053  
     164A      0.639812   165A      0.648132   166A      0.654723  
     167A      0.659453   168A      0.668789   169A      0.674502  
     170A      0.683222   171A      0.686702   172A      0.694065  
     173A      0.697875   174A      0.708898   175A      0.714701  
     176A      0.721340   177A      0.728055   178A      0.731496  
     179A      0.739737   180A      0.744737   181A      0.755593  
     182A      0.764197   183A      0.767179   184A      0.775536  
     185A      0.780097   186A      0.785439   187A      0.792022  
     188A      0.796828   189A      0.804134   190A      0.816188  
     191A      0.824564   192A      0.826168   193A      0.831937  
     194A      0.839032   195A      0.842248   196A      0.845293  
     197A      0.855074   198A      0.856198   199A      0.870032  
     200A      0.874231   201A      0.882818   202A      0.886493  
     203A      0.887211   204A      0.896381   205A      0.898276  
     206A      0.906735   207A      0.911877   208A      0.918721  
     209A      0.922007   210A      0.928545   211A      0.933436  
     212A      0.936626   213A      0.951294   214A      0.953124  
     215A      0.957689   216A      0.960474   217A      0.966590  
     218A      0.970143   219A      0.982006   220A      0.984781  
     221A      0.994580   222A      1.001146   223A      1.005883  
     224A      1.010244   225A      1.014343   226A      1.018514  
     227A      1.022480   228A      1.034365   229A      1.038218  
     230A      1.043564   231A      1.051486   232A      1.063241  
     233A      1.065144   234A      1.071279   235A      1.080576  
     236A      1.087580   237A      1.091231   238A      1.092935  
     239A      1.100670   240A      1.104612   241A      1.112220  
     242A      1.124813   243A      1.126723   244A      1.129241  
     245A      1.132521   246A      1.134873   247A      1.150518  
     248A      1.159005   249A      1.164232   250A      1.169837  
     251A      1.179284   252A      1.183086   253A      1.188516  
     254A      1.197803   255A      1.200509   256A      1.204431  
     257A      1.212478   258A      1.214860   259A      1.218515  
     260A      1.224487   261A      1.251027   262A      1.252345  
     263A      1.267418   264A      1.270166   265A      1.275133  
     266A      1.281276   267A      1.289547   268A      1.293004  
     269A      1.293548   270A      1.300955   271A      1.308939  
     272A      1.318497   273A      1.319559   274A      1.336821  
     275A      1.342199   276A      1.352070   277A      1.361193  
     278A      1.371096   279A      1.379066   280A      1.384808  
     281A      1.393390   282A      1.397720   283A      1.411335  
     284A      1.417757   285A      1.421321   286A      1.425177  
     287A      1.433269   288A      1.441617   289A      1.443890  
     290A      1.451394   291A      1.466768   292A      1.472351  
     293A      1.481096   294A      1.486450   295A      1.491019  
     296A      1.496226   297A      1.507267   298A      1.523047  
     299A      1.527717   300A      1.538449   301A      1.542248  
     302A      1.547917   303A      1.552367   304A      1.568339  
     305A      1.572939   306A      1.576933   307A      1.585408  
     308A      1.591343   309A      1.605231   310A      1.616672  
     311A      1.622282   312A      1.626373   313A      1.633840  
     314A      1.641962   315A      1.643430   316A      1.668028  
     317A      1.669445   318A      1.681478   319A      1.686713  
     320A      1.693198   321A      1.698835   322A      1.707961  
     323A      1.712252   324A      1.729852   325A      1.732242  
     326A      1.734830   327A      1.745598   328A      1.748893  
     329A      1.761842   330A      1.772560   331A      1.790437  
     332A      1.798359   333A      1.802564   334A      1.815093  
     335A      1.824499   336A      1.832143   337A      1.843687  
     338A      1.852330   339A      1.863987   340A      1.882864  
     341A      1.883983   342A      1.896569   343A      1.904142  
     344A      1.917863   345A      1.932850   346A      1.945485  
     347A      1.959547   348A      1.964502   349A      1.973193  
     350A      1.981861   351A      1.989660   352A      1.993006  
     353A      2.006591   354A      2.010986   355A      2.032531  
     356A      2.045832   357A      2.055993   358A      2.059450  
     359A      2.070365   360A      2.079921   361A      2.082562  
     362A      2.089929   363A      2.100173   364A      2.122967  
     365A      2.124488   366A      2.139453   367A      2.148047  
     368A      2.159312   369A      2.166673   370A      2.183747  
     371A      2.196969   372A      2.201213   373A      2.206828  
     374A      2.217549   375A      2.231540   376A      2.247015  
     377A      2.249921   378A      2.262847   379A      2.270460  
     380A      2.286069   381A      2.294721   382A      2.308111  
     383A      2.317587   384A      2.335058   385A      2.339173  
     386A      2.343093   387A      2.346990   388A      2.349987  
     389A      2.357085   390A      2.369090   391A      2.384655  
     392A      2.392584   393A      2.408472   394A      2.419695  
     395A      2.424304   396A      2.436449   397A      2.444560  
     398A      2.464469   399A      2.473453   400A      2.476547  
     401A      2.483442   402A      2.502290   403A      2.514322  
     404A      2.522200   405A      2.527074   406A      2.531642  
     407A      2.540015   408A      2.559533   409A      2.568712  
     410A      2.577173   411A      2.581822   412A      2.613051  
     413A      2.618957   414A      2.629808   415A      2.633804  
     416A      2.661589   417A      2.664590   418A      2.682314  
     419A      2.697072   420A      2.715901   421A      2.731636  
     422A      2.740715   423A      2.744920   424A      2.754786  
     425A      2.777070   426A      2.793373   427A      2.810868  
     428A      2.830302   429A      2.846253   430A      2.849563  
     431A      2.865445   432A      2.880025   433A      2.889309  
     434A      2.906049   435A      2.925188   436A      2.942945  
     437A      2.957309   438A      3.002570   439A      3.031097  
     440A      3.035066   441A      3.059572   442A      3.067206  
     443A      3.079504   444A      3.123310   445A      3.138669  
     446A      3.158894   447A      3.178437   448A      3.193557  
     449A      3.233216   450A      3.234181   451A      3.255254  
     452A      3.268310   453A      3.300147   454A      3.335319  
     455A      3.344663   456A      3.370596   457A      3.378056  
     458A      3.389840   459A      3.400788   460A      3.413086  
     461A      3.437774   462A      3.452098   463A      3.482625  
     464A      3.500693   465A      3.518839   466A      3.523458  
     467A      3.534924   468A      3.543968   469A      3.576712  
     470A      3.590143   471A      3.603057   472A      3.624987  
     473A      3.638111   474A      3.645212   475A      3.659546  
     476A      3.672588   477A      3.682098   478A      3.694921  
     479A      3.704043   480A      3.719557   481A      3.728369  
     482A      3.739422   483A      3.747507   484A      3.762255  
     485A      3.776083   486A      3.777628   487A      3.786756  
     488A      3.798083   489A      3.806267   490A      3.814045  
     491A      3.823080   492A      3.837778   493A      3.859369  
     494A      3.869095   495A      3.887020   496A      3.891288  
     497A      3.905285   498A      3.914627   499A      3.933083  
     500A      3.938749   501A      3.946451   502A      3.971199  
     503A      3.977583   504A      3.988509   505A      3.992493  
     506A      4.000732   507A      4.014064   508A      4.021989  
     509A      4.037839   510A      4.065737   511A      4.073919  
     512A      4.078663   513A      4.093897   514A      4.096768  
     515A      4.103169   516A      4.118637   517A      4.133888  
     518A      4.150344   519A      4.155160   520A      4.165513  
     521A      4.169764   522A      4.192318   523A      4.194832  
     524A      4.203627   525A      4.219965   526A      4.233434  
     527A      4.239867   528A      4.246366   529A      4.274565  
     530A      4.280449   531A      4.286634   532A      4.305357  
     533A      4.314907   534A      4.315755   535A      4.329129  
     536A      4.335223   537A      4.367854   538A      4.377877  
     539A      4.381294   540A      4.398684   541A      4.406318  
     542A      4.413273   543A      4.427675   544A      4.435931  
     545A      4.442275   546A      4.466345   547A      4.479418  
     548A      4.492545   549A      4.502224   550A      4.518527  
     551A      4.524963   552A      4.539026   553A      4.546812  
     554A      4.589614   555A      4.591481   556A      4.610340  
     557A      4.627727   558A      4.630992   559A      4.637379  
     560A      4.667231   561A      4.685857   562A      4.694306  
     563A      4.704225   564A      4.717564   565A      4.747294  
     566A      4.768140   567A      4.779511   568A      4.793029  
     569A      4.802663   570A      4.813737   571A      4.831821  
     572A      4.852748   573A      4.874614   574A      4.884891  
     575A      4.892969   576A      4.908724   577A      4.931952  
     578A      4.939384   579A      4.950631   580A      4.987714  
     581A      4.994039   582A      5.012914   583A      5.016936  
     584A      5.032758   585A      5.051342   586A      5.063276  
     587A      5.116116   588A      5.141847   589A      5.146939  
     590A      5.157717   591A      5.187683   592A      5.196603  
     593A      5.204679   594A      5.216933   595A      5.227858  
     596A      5.242434   597A      5.263429   598A      5.268392  
     599A      5.280670   600A      5.291001   601A      5.301828  
     602A      5.335035   603A      5.359623   604A      5.380847  
     605A      5.393334   606A      5.415969   607A      5.441617  
     608A      5.470581   609A      5.483260   610A      5.511258  
     611A      5.528544   612A      5.539355   613A      5.550433  
     614A      5.568666   615A      5.572933   616A      5.611433  
     617A      5.617213   618A      5.635899   619A      5.647195  
     620A      5.660767   621A      5.667541   622A      5.685572  
     623A      5.710245   624A      5.717999   625A      5.728972  
     626A      5.747207   627A      5.760301   628A      5.769651  
     629A      5.794339   630A      5.825505   631A      5.827378  
     632A      5.843111   633A      5.875787   634A      5.897645  
     635A      5.904731   636A      5.920341   637A      5.945669  
     638A      5.963476   639A      5.970651   640A      5.980788  
     641A      5.988353   642A      6.001556   643A      6.035517  
     644A      6.049317   645A      6.069415   646A      6.111000  
     647A      6.118883   648A      6.129980   649A      6.142638  
     650A      6.151835   651A      6.163894   652A      6.179235  
     653A      6.198478   654A      6.211559   655A      6.228739  
     656A      6.249130   657A      6.261584   658A      6.307011  
     659A      6.381528   660A      6.403941   661A      6.442817  
     662A      6.475929   663A      6.541340   664A      6.590663  
     665A      6.600388   666A      6.635173   667A      6.652235  
     668A      6.688671   669A      6.699222   670A      6.703475  
     671A      6.708766   672A      6.752054   673A      6.761076  
     674A      6.780664   675A      6.844848   676A      6.856563  
     677A      6.940220   678A      6.971279   679A      6.990908  
     680A      7.011089   681A      7.037235   682A      7.077115  
     683A      7.118155   684A      7.132158   685A      7.157940  
     686A      7.223237   687A      7.234772   688A      7.257148  
     689A      7.327290   690A      7.377248   691A      7.398068  
     692A      7.418061   693A      7.446246   694A      7.502351  
     695A      7.670597   696A      7.735273   697A      7.763662  
     698A      7.821497   699A      7.915977   700A      7.987891  
     701A      8.044620   702A     16.134637   703A     16.256605  
     704A     16.452747   705A     17.009923   706A     17.771463  
     707A     18.622018   708A     18.852258   709A     19.344874  
     710A     20.002407   711A     20.192825   712A     21.167422  
     713A     21.559242  

    Final Occupation by Irrep:
              A 
    DOCC [    43 ]

  @DF-RHF Final Energy:  -578.62939651890031

   => Energetics <=

    Nuclear Repulsion Energy =            693.6430046671791843
    One-Electron Energy =               -2164.3348556943719814
    Two-Electron Energy =                 892.0624545082924897
    Total Energy =                       -578.6293965189003075

Computation Completed

*** tstop() called on node142.bme.utexas.edu at Mon Nov  2 20:41:03 2020
Module time:
	user time   =     895.04 seconds =      14.92 minutes
	system time =      85.55 seconds =       1.43 minutes
	total time  =        232 seconds =       3.87 minutes
Total time:
	user time   =     895.04 seconds =      14.92 minutes
	system time =      85.55 seconds =       1.43 minutes
	total time  =        232 seconds =       3.87 minutes
   => Loading Basis Set <=

    Name: (AUG-CC-PVTZ AUX)
    Role: RIFIT
    Keyword: DF_BASIS_MP2
    atoms 1     entry O          line   264 file /home/xy3866/psi4conda/share/psi4/basis/aug-cc-pvtz-ri.gbs 
    atoms 2-6   entry N          line   206 file /home/xy3866/psi4conda/share/psi4/basis/aug-cc-pvtz-ri.gbs 
    atoms 7-12  entry C          line   148 file /home/xy3866/psi4conda/share/psi4/basis/aug-cc-pvtz-ri.gbs 
    atoms 13-19 entry H          line    30 file /home/xy3866/psi4conda/share/psi4/basis/aug-cc-pvtz-ri.gbs 


*** tstart() called on node142.bme.utexas.edu
*** at Mon Nov  2 20:41:04 2020


  //>>>>>>>>>>>>>>>>>>>>>>>>>>>>>>>>>>>//
  //               DFMP2               //
  //<<<<<<<<<<<<<<<<<<<<<<<<<<<<<<<<<<<//

	 --------------------------------------------------------
	                          DF-MP2                         
	      2nd-Order Density-Fitted Moller-Plesset Theory     
	              RMP2 Wavefunction,   8 Threads             
	                                                         
	        Rob Parrish, Justin Turney, Andy Simmonett,      
	           Ed Hohenstein, and C. David Sherrill          
	 --------------------------------------------------------

   => Auxiliary Basis Set <=

  Basis Set: (AUG-CC-PVTZ AUX)
    Blend: AUG-CC-PVTZ-RI
    Number of shells: 434
    Number of basis function: 1594
    Number of Cartesian functions: 2017
    Spherical Harmonics?: true
    Max angular momentum: 4

	 --------------------------------------------------------
	                 NBF =   713, NAUX =  1594
	 --------------------------------------------------------
	   CLASS    FOCC     OCC    AOCC    AVIR     VIR    FVIR
	   PAIRS       0      43      43     670     670       0
	 --------------------------------------------------------

  DFHelper Memory: AOs need 5.670 GiB; user supplied 22.352 GiB. Using in-core AOs.


         ------------------------------------------------------------
                                     CPHF                           
                                  Rob Parrish                       
         ------------------------------------------------------------

  ==> Geometry <==

    Molecular point group: c1
    Full point group: C1

    Geometry (in Angstrom), charge = 0, multiplicity = 1:

       Center              X                  Y                   Z               Mass       
    ------------   -----------------  -----------------  -----------------  -----------------
         O           -1.471722108315     2.562114023704     0.080402245309    15.994914619570
         N            1.919559991685    -0.561629176296    -0.055392354691    14.003074004430
         N           -1.912227108315     0.303813023704     0.048509245309    14.003074004430
         N           -0.344665108315    -1.469521976296    -0.038747754691    14.003074004430
         N            1.514695891685     1.638613023704    -0.010556754691    14.003074004430
         N           -2.631377108315    -1.919216976296     0.111081245309    14.003074004430
         C            0.555749891685    -0.439202976296    -0.029527754691    12.000000000000
         C            0.355866391685     0.941090023704    -0.009785354691    12.000000000000
         C           -1.024113108315     1.421425023704     0.035181245309    12.000000000000
         C            2.437113891685     0.687204023704    -0.069918754691    12.000000000000
         C           -1.575006108315    -1.028331976296     0.018806245309    12.000000000000
         C            2.633420891685    -1.847607976296    -0.065517754691    12.000000000000
         H            3.507312891685     0.856794023704    -0.086604754691     1.007825032230
         H            2.370985891685    -2.432712976296     0.817750245309     1.007825032230
         H            2.377523891685    -2.416364976296    -0.960504754691     1.007825032230
         H            3.702190891685    -1.632872976296    -0.059231754691     1.007825032230
         H           -2.889930108315     0.566860023704     0.169318245309     1.007825032230
         H           -2.327752108315    -2.869979976296    -0.064237754691     1.007825032230
         H           -3.461642108315    -1.674924976296    -0.417348754691     1.007825032230

  Nuclear repulsion =  693.643004667179184
  Reference energy  = -578.629396518900307

  ==> Basis Set <==

  Basis Set: AUG-CC-PVTZ
    Blend: AUG-CC-PVTZ
    Number of shells: 231
    Number of basis function: 713
    Number of Cartesian functions: 835
    Spherical Harmonics?: true
    Max angular momentum: 3

  ==> CGRSolver (by Rob Parrish) <==

   Number of roots    =         1
   Preconditioning    =    JACOBI
   Convergence cutoff =     1E-06
   Maximum iterations =       100

  ==> CPHFRHamiltonian (by Rob Parrish) <== 

  ==> MemDFJK: Density-Fitted J/K Matrices <==

    J tasked:                   Yes
    K tasked:                   Yes
    wK tasked:                   No
    OpenMP threads:               8
    Memory [MiB]:             22888
    Algorithm:                 Disk
    Schwarz Cutoff:           1E-12
    Mask sparsity (%):       7.1838
    Fitting Condition:        1E-10

   => Auxiliary Basis Set <=

  Basis Set: (AUG-CC-PVTZ AUX)
    Blend: AUG-CC-PVTZ-JKFIT
    Number of shells: 458
    Number of basis function: 1570
    Number of Cartesian functions: 1957
    Spherical Harmonics?: true
    Max angular momentum: 4

  ==> CPHF Iterations <==

  => Iterations <=

             Iter  Converged  Remaining    Residual
  CGR           1          0          1   1.353E-01
  CGR           2          0          1   4.795E-02
  CGR           3          0          1   2.335E-02
  CGR           4          0          1   7.652E-03
  CGR           5          0          1   3.826E-03
  CGR           6          0          1   1.611E-03
  CGR           7          0          1   5.642E-04
  CGR           8          0          1   2.310E-04
  CGR           9          0          1   8.150E-05
  CGR          10          0          1   3.357E-05
  CGR          11          0          1   1.284E-05
  CGR          12          0          1   4.690E-06
  CGR          13          0          1   1.849E-06
  CGR          14          1          0   5.621E-07

    CGRSolver converged.

	-----------------------------------------------------------
	 ==================> DF-MP2 Energies <==================== 
	-----------------------------------------------------------
	 Reference Energy          =    -578.6293965189003075 [Eh]
	 Singles Energy            =      -0.0000000000000000 [Eh]
	 Same-Spin Energy          =      -0.6162559290238743 [Eh]
	 Opposite-Spin Energy      =      -1.8196334650489021 [Eh]
	 Correlation Energy        =      -2.4358893940727766 [Eh]
	 Total Energy              =    -581.0652859129730814 [Eh]
	-----------------------------------------------------------
	 ================> DF-SCS-MP2 Energies <================== 
	-----------------------------------------------------------
	 SCS Same-Spin Scale       =       0.3333333333333333 [-]
	 SCS Opposite-Spin Scale   =       1.2000000000000000 [-]
	 SCS Same-Spin Energy      =      -0.2054186430079581 [Eh]
	 SCS Opposite-Spin Energy  =      -2.1835601580586825 [Eh]
	 SCS Correlation Energy    =      -2.3889788010666404 [Eh]
	 SCS Total Energy          =    -581.0183753199669354 [Eh]
	-----------------------------------------------------------



Properties will be evaluated at  -0.000000,  -0.000000,  -0.000000 [a0]

Properties computed using the MP2 density matrix

  Nuclear Dipole Moment: [e a0]
     X:     3.0708      Y:    -8.9846      Z:    -0.5631

  Electronic Dipole Moment: [e a0]
     X:    -3.0765      Y:     6.3095      Z:     0.1942

  Dipole Moment: [e a0]
     X:    -0.0057      Y:    -2.6751      Z:    -0.3689     Total:     2.7004

  Dipole Moment: [D]
     X:    -0.0144      Y:    -6.7995      Z:    -0.9377     Total:     6.8638


*** tstop() called on node142.bme.utexas.edu at Mon Nov  2 20:51:03 2020
Module time:
	user time   =    2803.30 seconds =      46.72 minutes
	system time =      94.26 seconds =       1.57 minutes
	total time  =        599 seconds =       9.98 minutes
Total time:
	user time   =    3699.34 seconds =      61.66 minutes
	system time =     179.88 seconds =       3.00 minutes
	total time  =        832 seconds =      13.87 minutes

    Psi4 stopped on: Monday, 02 November 2020 08:51PM
    Psi4 wall time for execution: 0:13:53.07

*** Psi4 exiting successfully. Buy a developer a beer!
