
    -----------------------------------------------------------------------
          Psi4: An Open-Source Ab Initio Electronic Structure Package
                               Psi4 1.3.2 release

                         Git: Rev {HEAD} ecbda83 


    R. M. Parrish, L. A. Burns, D. G. A. Smith, A. C. Simmonett,
    A. E. DePrince III, E. G. Hohenstein, U. Bozkaya, A. Yu. Sokolov,
    R. Di Remigio, R. M. Richard, J. F. Gonthier, A. M. James,
    H. R. McAlexander, A. Kumar, M. Saitow, X. Wang, B. P. Pritchard,
    P. Verma, H. F. Schaefer III, K. Patkowski, R. A. King, E. F. Valeev,
    F. A. Evangelista, J. M. Turney, T. D. Crawford, and C. D. Sherrill,
    J. Chem. Theory Comput. 13(7) pp 3185--3197 (2017).
    (doi: 10.1021/acs.jctc.7b00174)


                         Additional Contributions by
    P. Kraus, H. Kruse, M. H. Lechner, M. C. Schieber, R. A. Shaw,
    A. Alenaizan, R. Galvelis, Z. L. Glick, S. Lehtola, and J. P. Misiewicz

    -----------------------------------------------------------------------


    Psi4 started on: Tuesday, 03 November 2020 11:54PM

    Process ID: 62896
    Host:       node142.bme.utexas.edu
    PSIDATADIR: /home/xy3866/psi4conda/share/psi4
    Memory:     500.0 MiB
    Threads:    8
    
  ==> Input File <==

--------------------------------------------------------------------------
#psi4
#
memory 32 gb

molecule  {
0 1
  O       -1.4697740     2.5644010     0.0803940
  N        1.9191590    -0.5831280    -0.0556370
  N       -1.9102790     0.3061000     0.0485010
  N       -0.3427170    -1.4672350    -0.0387560
  N        1.5166440     1.6409000    -0.0105650
  N       -2.6294290    -1.9169300     0.1110730
  C        0.5672101    -0.3658503    -0.0299520
  C        0.3337570     0.9396730    -0.0094060
  C       -1.0221650     1.4237120     0.0351730
  C        2.4390620     0.6894910    -0.0699270
  C       -1.5730580    -1.0260450     0.0187980
  C        2.7004309    -1.8061049    -0.0669231
  H        3.5092610     0.8590810    -0.0866130
  H        2.3729340    -2.4304260     0.8177420
  H        2.3794720    -2.4140780    -0.9605130
  H        3.7041390    -1.6305860    -0.0592400
  H       -2.8879820     0.5691470     0.1693100
  H       -2.3258040    -2.8676930    -0.0642460
  H       -3.4596940    -1.6726380    -0.4173570
units angstrom
no_reorient  #important for SAPT in psi4, default
symmetry c1  #important for SAPT in psi4, default
}

set PROPERTIES_ORIGIN ["COM"]
properties('MP2/aug-cc-pvtz', properties = ['dipole'])
--------------------------------------------------------------------------

  Memory set to  29.802 GiB by Python driver.
    SCF Algorithm Type (re)set to DF.

*** tstart() called on node142.bme.utexas.edu
*** at Tue Nov  3 23:54:54 2020

   => Loading Basis Set <=

    Name: AUG-CC-PVTZ
    Role: ORBITAL
    Keyword: BASIS
    atoms 1     entry O          line   327 file /home/xy3866/psi4conda/share/psi4/basis/aug-cc-pvtz.gbs 
    atoms 2-6   entry N          line   281 file /home/xy3866/psi4conda/share/psi4/basis/aug-cc-pvtz.gbs 
    atoms 7-12  entry C          line   235 file /home/xy3866/psi4conda/share/psi4/basis/aug-cc-pvtz.gbs 
    atoms 13-19 entry H          line    36 file /home/xy3866/psi4conda/share/psi4/basis/aug-cc-pvtz.gbs 


         ---------------------------------------------------------
                                   SCF
               by Justin Turney, Rob Parrish, Andy Simmonett
                          and Daniel G. A. Smith
                              RHF Reference
                        8 Threads,  30517 MiB Core
         ---------------------------------------------------------

  ==> Geometry <==

    Molecular point group: c1
    Full point group: C1

    Geometry (in Angstrom), charge = 0, multiplicity = 1:

       Center              X                  Y                   Z               Mass       
    ------------   -----------------  -----------------  -----------------  -----------------
         O           -1.475195304759     2.556383802644     0.080525931853    15.994914619570
         N            1.913737695241    -0.591145197356    -0.055505068147    14.003074004430
         N           -1.915700304759     0.298082802644     0.048632931853    14.003074004430
         N           -0.348138304759    -1.475252197356    -0.038624068147    14.003074004430
         N            1.511222695241     1.632882802644    -0.010433068147    14.003074004430
         N           -2.634850304759    -1.924947197356     0.111204931853    14.003074004430
         C            0.561788795241    -0.373867497356    -0.029820068147    12.000000000000
         C            0.328335695241     0.931655802644    -0.009274068147    12.000000000000
         C           -1.027586304759     1.415694802644     0.035304931853    12.000000000000
         C            2.433640695241     0.681473802644    -0.069795068147    12.000000000000
         C           -1.578479304759    -1.034062197356     0.018929931853    12.000000000000
         C            2.695009595241    -1.814122097356    -0.066791168147    12.000000000000
         H            3.503839695241     0.851063802644    -0.086481068147     1.007825032230
         H            2.367512695241    -2.438443197356     0.817873931853     1.007825032230
         H            2.374050695241    -2.422095197356    -0.960381068147     1.007825032230
         H            3.698717695241    -1.638603197356    -0.059108068147     1.007825032230
         H           -2.893403304759     0.561129802644     0.169441931853     1.007825032230
         H           -2.331225304759    -2.875710197356    -0.064114068147     1.007825032230
         H           -3.465115304759    -1.680655197356    -0.417225068147     1.007825032230

  Running in c1 symmetry.

  Rotational constants: A =      0.04781  B =      0.03118  C =      0.01895 [cm^-1]
  Rotational constants: A =   1433.21386  B =    934.72628  C =    568.22172 [MHz]
  Nuclear repulsion =  693.628771782717649

  Charge       = 0
  Multiplicity = 1
  Electrons    = 86
  Nalpha       = 43
  Nbeta        = 43

  ==> Algorithm <==

  SCF Algorithm Type is DF.
  DIIS enabled.
  MOM disabled.
  Fractional occupation disabled.
  Guess Type is SAD.
  Energy threshold   = 1.00e-10
  Density threshold  = 1.00e-10
  Integral threshold = 0.00e+00

  ==> Primary Basis <==

  Basis Set: AUG-CC-PVTZ
    Blend: AUG-CC-PVTZ
    Number of shells: 231
    Number of basis function: 713
    Number of Cartesian functions: 835
    Spherical Harmonics?: true
    Max angular momentum: 3

   => Loading Basis Set <=

    Name: (AUG-CC-PVTZ AUX)
    Role: JKFIT
    Keyword: DF_BASIS_SCF
    atoms 1     entry O          line   286 file /home/xy3866/psi4conda/share/psi4/basis/aug-cc-pvtz-jkfit.gbs 
    atoms 2-6   entry N          line   224 file /home/xy3866/psi4conda/share/psi4/basis/aug-cc-pvtz-jkfit.gbs 
    atoms 7-12  entry C          line   162 file /home/xy3866/psi4conda/share/psi4/basis/aug-cc-pvtz-jkfit.gbs 
    atoms 13-19 entry H          line    70 file /home/xy3866/psi4conda/share/psi4/basis/aug-cc-pvtz-jkfit.gbs 

  ==> Pre-Iterations <==

   -------------------------------------------------------
    Irrep   Nso     Nmo     Nalpha   Nbeta   Ndocc  Nsocc
   -------------------------------------------------------
     A        713     713       0       0       0       0
   -------------------------------------------------------
    Total     713     713      43      43      43       0
   -------------------------------------------------------

  ==> Integral Setup <==

  DFHelper Memory: AOs need 5.669 GiB; user supplied 22.352 GiB. Using in-core AOs.

  ==> MemDFJK: Density-Fitted J/K Matrices <==

    J tasked:                   Yes
    K tasked:                   Yes
    wK tasked:                   No
    OpenMP threads:               8
    Memory [MiB]:             22888
    Algorithm:                 Disk
    Schwarz Cutoff:           1E-12
    Mask sparsity (%):       7.2105
    Fitting Condition:        1E-10

   => Auxiliary Basis Set <=

  Basis Set: (AUG-CC-PVTZ AUX)
    Blend: AUG-CC-PVTZ-JKFIT
    Number of shells: 458
    Number of basis function: 1570
    Number of Cartesian functions: 1957
    Spherical Harmonics?: true
    Max angular momentum: 4

  Minimum eigenvalue in the overlap matrix is 1.1505941163E-06.
  Using Symmetric Orthogonalization.

  SCF Guess: Superposition of Atomic Densities via on-the-fly atomic UHF.

  ==> Iterations <==

                           Total Energy        Delta E     RMS |[F,P]|

   @DF-RHF iter SAD:  -578.38594257685736   -5.78386e+02   0.00000e+00 
   @DF-RHF iter   1:  -578.29047554997749    9.54670e-02   1.12756e-03 DIIS
   @DF-RHF iter   2:  -578.53526024567520   -2.44785e-01   6.46848e-04 DIIS
   @DF-RHF iter   3:  -578.61068211233123   -7.54219e-02   1.45814e-04 DIIS
   @DF-RHF iter   4:  -578.61651640911555   -5.83430e-03   5.87400e-05 DIIS
   @DF-RHF iter   5:  -578.61756521716586   -1.04881e-03   1.25227e-05 DIIS
   @DF-RHF iter   6:  -578.61766805944080   -1.02842e-04   6.46299e-06 DIIS
   @DF-RHF iter   7:  -578.61769481124657   -2.67518e-05   2.55232e-06 DIIS
   @DF-RHF iter   8:  -578.61769943338049   -4.62213e-06   9.85598e-07 DIIS
   @DF-RHF iter   9:  -578.61770003854656   -6.05166e-07   3.39975e-07 DIIS
   @DF-RHF iter  10:  -578.61770012624083   -8.76943e-08   1.41106e-07 DIIS
   @DF-RHF iter  11:  -578.61770013742535   -1.11845e-08   5.62474e-08 DIIS
   @DF-RHF iter  12:  -578.61770013941020   -1.98486e-09   2.20870e-08 DIIS
   @DF-RHF iter  13:  -578.61770013969578   -2.85581e-10   8.80157e-09 DIIS
   @DF-RHF iter  14:  -578.61770013974296   -4.71800e-11   2.90572e-09 DIIS
   @DF-RHF iter  15:  -578.61770013974638   -3.41061e-12   1.35211e-09 DIIS
   @DF-RHF iter  16:  -578.61770013975115   -4.77485e-12   5.46990e-10 DIIS
   @DF-RHF iter  17:  -578.61770013975263   -1.47793e-12   2.10573e-10 DIIS
   @DF-RHF iter  18:  -578.61770013974945    3.18323e-12   1.02705e-10 DIIS
   @DF-RHF iter  19:  -578.61770013975354   -4.09273e-12   3.46315e-11 DIIS
  Energy and wave function converged.


  ==> Post-Iterations <==

    Orbital Energies [Eh]
    ---------------------

    Doubly Occupied:                                                      

       1A    -20.527029     2A    -15.631809     3A    -15.627484  
       4A    -15.607585     5A    -15.569565     6A    -15.557127  
       7A    -11.390895     8A    -11.369196     9A    -11.313938  
      10A    -11.307491    11A    -11.291294    12A    -11.244171  
      13A     -1.392759    14A     -1.363938    15A     -1.331881  
      16A     -1.218326    17A     -1.205022    18A     -1.187596  
      19A     -1.039760    20A     -0.989725    21A     -0.899829  
      22A     -0.874824    23A     -0.808603    24A     -0.774632  
      25A     -0.738444    26A     -0.726081    27A     -0.691154  
      28A     -0.667096    29A     -0.658021    30A     -0.635909  
      31A     -0.622406    32A     -0.614122    33A     -0.595291  
      34A     -0.589217    35A     -0.556487    36A     -0.537832  
      37A     -0.490968    38A     -0.453715    39A     -0.441404  
      40A     -0.433139    41A     -0.425049    42A     -0.390963  
      43A     -0.310765  

    Virtual:                                                              

      44A      0.016694    45A      0.023502    46A      0.034931  
      47A      0.041180    48A      0.043850    49A      0.049603  
      50A      0.060279    51A      0.076932    52A      0.078510  
      53A      0.082824    54A      0.088815    55A      0.093476  
      56A      0.107233    57A      0.111668    58A      0.113214  
      59A      0.117662    60A      0.120685    61A      0.122608  
      62A      0.126164    63A      0.129743    64A      0.132878  
      65A      0.133737    66A      0.136286    67A      0.141469  
      68A      0.144671    69A      0.152404    70A      0.160955  
      71A      0.164489    72A      0.165921    73A      0.175740  
      74A      0.182140    75A      0.183692    76A      0.185800  
      77A      0.190903    78A      0.196893    79A      0.203764  
      80A      0.207060    81A      0.212731    82A      0.222456  
      83A      0.227297    84A      0.231774    85A      0.236201  
      86A      0.240288    87A      0.245755    88A      0.253720  
      89A      0.259784    90A      0.265101    91A      0.267654  
      92A      0.273025    93A      0.275742    94A      0.284598  
      95A      0.292093    96A      0.293691    97A      0.300326  
      98A      0.301767    99A      0.309165   100A      0.310109  
     101A      0.315225   102A      0.318775   103A      0.321742  
     104A      0.326834   105A      0.338123   106A      0.341931  
     107A      0.346612   108A      0.351274   109A      0.355437  
     110A      0.359478   111A      0.363537   112A      0.367276  
     113A      0.370517   114A      0.375882   115A      0.378253  
     116A      0.389101   117A      0.393683   118A      0.396669  
     119A      0.401627   120A      0.406163   121A      0.407007  
     122A      0.411739   123A      0.416092   124A      0.417819  
     125A      0.429848   126A      0.433055   127A      0.442798  
     128A      0.445384   129A      0.448148   130A      0.451943  
     131A      0.457036   132A      0.462414   133A      0.468331  
     134A      0.474836   135A      0.475713   136A      0.484183  
     137A      0.490172   138A      0.496336   139A      0.497242  
     140A      0.503861   141A      0.508625   142A      0.510632  
     143A      0.513313   144A      0.515034   145A      0.525164  
     146A      0.529414   147A      0.536600   148A      0.541237  
     149A      0.543157   150A      0.544831   151A      0.552751  
     152A      0.560501   153A      0.565376   154A      0.568437  
     155A      0.571310   156A      0.577508   157A      0.594819  
     158A      0.597078   159A      0.606024   160A      0.611386  
     161A      0.625107   162A      0.626650   163A      0.630364  
     164A      0.638372   165A      0.645150   166A      0.653849  
     167A      0.659816   168A      0.668758   169A      0.676556  
     170A      0.683053   171A      0.685874   172A      0.691249  
     173A      0.704692   174A      0.707603   175A      0.710812  
     176A      0.721871   177A      0.728700   178A      0.729976  
     179A      0.738254   180A      0.742754   181A      0.754727  
     182A      0.764581   183A      0.768344   184A      0.775350  
     185A      0.780471   186A      0.782829   187A      0.788832  
     188A      0.794839   189A      0.808752   190A      0.812164  
     191A      0.823573   192A      0.829499   193A      0.831334  
     194A      0.839285   195A      0.842505   196A      0.849489  
     197A      0.853460   198A      0.855633   199A      0.864789  
     200A      0.871786   201A      0.882257   202A      0.885706  
     203A      0.888028   204A      0.894440   205A      0.899274  
     206A      0.906049   207A      0.911939   208A      0.918472  
     209A      0.920705   210A      0.927945   211A      0.933662  
     212A      0.940416   213A      0.952181   214A      0.954669  
     215A      0.957151   216A      0.958535   217A      0.965009  
     218A      0.972483   219A      0.982899   220A      0.987573  
     221A      0.995018   222A      1.002211   223A      1.007328  
     224A      1.007624   225A      1.012456   226A      1.017492  
     227A      1.023044   228A      1.034062   229A      1.037926  
     230A      1.046489   231A      1.050704   232A      1.060940  
     233A      1.067070   234A      1.073351   235A      1.080098  
     236A      1.088322   237A      1.093152   238A      1.100333  
     239A      1.103528   240A      1.104583   241A      1.113484  
     242A      1.124621   243A      1.127738   244A      1.129703  
     245A      1.132833   246A      1.136561   247A      1.149279  
     248A      1.157520   249A      1.163703   250A      1.169480  
     251A      1.179065   252A      1.181028   253A      1.188821  
     254A      1.199063   255A      1.200690   256A      1.201937  
     257A      1.212339   258A      1.216428   259A      1.217876  
     260A      1.223923   261A      1.247585   262A      1.252337  
     263A      1.263007   264A      1.270217   265A      1.275690  
     266A      1.281610   267A      1.288918   268A      1.293364  
     269A      1.295955   270A      1.300856   271A      1.309565  
     272A      1.317264   273A      1.320039   274A      1.342042  
     275A      1.345122   276A      1.353968   277A      1.360691  
     278A      1.374867   279A      1.377677   280A      1.383077  
     281A      1.389404   282A      1.396417   283A      1.408232  
     284A      1.416339   285A      1.420263   286A      1.427488  
     287A      1.432747   288A      1.442249   289A      1.445397  
     290A      1.449384   291A      1.463283   292A      1.474153  
     293A      1.478962   294A      1.488353   295A      1.494322  
     296A      1.497779   297A      1.510441   298A      1.522463  
     299A      1.522882   300A      1.539426   301A      1.544979  
     302A      1.545931   303A      1.554655   304A      1.565665  
     305A      1.576921   306A      1.580373   307A      1.585443  
     308A      1.590878   309A      1.603745   310A      1.615470  
     311A      1.619950   312A      1.621252   313A      1.639422  
     314A      1.643801   315A      1.644002   316A      1.666187  
     317A      1.669000   318A      1.681840   319A      1.685818  
     320A      1.695926   321A      1.699675   322A      1.704570  
     323A      1.709679   324A      1.723221   325A      1.731633  
     326A      1.739837   327A      1.745922   328A      1.747733  
     329A      1.761153   330A      1.772969   331A      1.795314  
     332A      1.797630   333A      1.802927   334A      1.814047  
     335A      1.826849   336A      1.839357   337A      1.845295  
     338A      1.862394   339A      1.864279   340A      1.884578  
     341A      1.885490   342A      1.901731   343A      1.906693  
     344A      1.917913   345A      1.931572   346A      1.936394  
     347A      1.954097   348A      1.957876   349A      1.970059  
     350A      1.980643   351A      1.985904   352A      1.994980  
     353A      2.008023   354A      2.024540   355A      2.035848  
     356A      2.039888   357A      2.048592   358A      2.056765  
     359A      2.077368   360A      2.086920   361A      2.089314  
     362A      2.096961   363A      2.101279   364A      2.116477  
     365A      2.126917   366A      2.140513   367A      2.146370  
     368A      2.160907   369A      2.165789   370A      2.174511  
     371A      2.187630   372A      2.195565   373A      2.213940  
     374A      2.222354   375A      2.230879   376A      2.241850  
     377A      2.253363   378A      2.260258   379A      2.274567  
     380A      2.286376   381A      2.292645   382A      2.307638  
     383A      2.318643   384A      2.332434   385A      2.337488  
     386A      2.343344   387A      2.351129   388A      2.353947  
     389A      2.357762   390A      2.370692   391A      2.390466  
     392A      2.393714   393A      2.408003   394A      2.419564  
     395A      2.426546   396A      2.436753   397A      2.444283  
     398A      2.459685   399A      2.468589   400A      2.473505  
     401A      2.484340   402A      2.498679   403A      2.507861  
     404A      2.514769   405A      2.523216   406A      2.528112  
     407A      2.534960   408A      2.558828   409A      2.561557  
     410A      2.570151   411A      2.581431   412A      2.612212  
     413A      2.623422   414A      2.630894   415A      2.634437  
     416A      2.659457   417A      2.660024   418A      2.679155  
     419A      2.691564   420A      2.719543   421A      2.728833  
     422A      2.739200   423A      2.744282   424A      2.751958  
     425A      2.771103   426A      2.788346   427A      2.795877  
     428A      2.816191   429A      2.845986   430A      2.850766  
     431A      2.863445   432A      2.871079   433A      2.893847  
     434A      2.907263   435A      2.927185   436A      2.936819  
     437A      2.961984   438A      3.011844   439A      3.026623  
     440A      3.032688   441A      3.047568   442A      3.078341  
     443A      3.089631   444A      3.120061   445A      3.121458  
     446A      3.161858   447A      3.175261   448A      3.184396  
     449A      3.229575   450A      3.232036   451A      3.257285  
     452A      3.259715   453A      3.301443   454A      3.329663  
     455A      3.336972   456A      3.358856   457A      3.373878  
     458A      3.385966   459A      3.398972   460A      3.422918  
     461A      3.429421   462A      3.459991   463A      3.480364  
     464A      3.503671   465A      3.526804   466A      3.534584  
     467A      3.553130   468A      3.555112   469A      3.571605  
     470A      3.598472   471A      3.610814   472A      3.613006  
     473A      3.617212   474A      3.641692   475A      3.650946  
     476A      3.663603   477A      3.670308   478A      3.689303  
     479A      3.708519   480A      3.713328   481A      3.729246  
     482A      3.731130   483A      3.750494   484A      3.760480  
     485A      3.772423   486A      3.775814   487A      3.794224  
     488A      3.801951   489A      3.806185   490A      3.811897  
     491A      3.825700   492A      3.842563   493A      3.848072  
     494A      3.859434   495A      3.892503   496A      3.895504  
     497A      3.901244   498A      3.909362   499A      3.926130  
     500A      3.936149   501A      3.957569   502A      3.967221  
     503A      3.974131   504A      3.994282   505A      3.998942  
     506A      4.006235   507A      4.013782   508A      4.028068  
     509A      4.031733   510A      4.048313   511A      4.073215  
     512A      4.079791   513A      4.096640   514A      4.101162  
     515A      4.105727   516A      4.126320   517A      4.134766  
     518A      4.145407   519A      4.158646   520A      4.165192  
     521A      4.169003   522A      4.191107   523A      4.202769  
     524A      4.208322   525A      4.223788   526A      4.232786  
     527A      4.241766   528A      4.248885   529A      4.272394  
     530A      4.281610   531A      4.290155   532A      4.309210  
     533A      4.320700   534A      4.325468   535A      4.338271  
     536A      4.343044   537A      4.362646   538A      4.373794  
     539A      4.379855   540A      4.399392   541A      4.406823  
     542A      4.412464   543A      4.420788   544A      4.436213  
     545A      4.445945   546A      4.465258   547A      4.476749  
     548A      4.498045   549A      4.511384   550A      4.523676  
     551A      4.530876   552A      4.553013   553A      4.560228  
     554A      4.588615   555A      4.590216   556A      4.598228  
     557A      4.629738   558A      4.633068   559A      4.646204  
     560A      4.670354   561A      4.679025   562A      4.692678  
     563A      4.719732   564A      4.727761   565A      4.752900  
     566A      4.769329   567A      4.787613   568A      4.803247  
     569A      4.808990   570A      4.826266   571A      4.828209  
     572A      4.849380   573A      4.879939   574A      4.896107  
     575A      4.916796   576A      4.930774   577A      4.937645  
     578A      4.944367   579A      4.969401   580A      4.982444  
     581A      4.991513   582A      5.013226   583A      5.019048  
     584A      5.029105   585A      5.036461   586A      5.093425  
     587A      5.105331   588A      5.137400   589A      5.147157  
     590A      5.184254   591A      5.193717   592A      5.204609  
     593A      5.219586   594A      5.231672   595A      5.237769  
     596A      5.246415   597A      5.247226   598A      5.265414  
     599A      5.283096   600A      5.293919   601A      5.325848  
     602A      5.349633   603A      5.371097   604A      5.387397  
     605A      5.393359   606A      5.398357   607A      5.415614  
     608A      5.446132   609A      5.468699   610A      5.484225  
     611A      5.525854   612A      5.537928   613A      5.556156  
     614A      5.571337   615A      5.585009   616A      5.594151  
     617A      5.620310   618A      5.638241   619A      5.655309  
     620A      5.671905   621A      5.680772   622A      5.687420  
     623A      5.703717   624A      5.712546   625A      5.728470  
     626A      5.738791   627A      5.767867   628A      5.782003  
     629A      5.801656   630A      5.808594   631A      5.823257  
     632A      5.843849   633A      5.864277   634A      5.891134  
     635A      5.907858   636A      5.915357   637A      5.932246  
     638A      5.939825   639A      5.959336   640A      5.977728  
     641A      5.987179   642A      6.002249   643A      6.029933  
     644A      6.045113   645A      6.067790   646A      6.102051  
     647A      6.125389   648A      6.138228   649A      6.142401  
     650A      6.159041   651A      6.166078   652A      6.183205  
     653A      6.196587   654A      6.223711   655A      6.227515  
     656A      6.243025   657A      6.308819   658A      6.315702  
     659A      6.379390   660A      6.385061   661A      6.444390  
     662A      6.481484   663A      6.515833   664A      6.596829  
     665A      6.610077   666A      6.637713   667A      6.641188  
     668A      6.680757   669A      6.696128   670A      6.706596  
     671A      6.728008   672A      6.746082   673A      6.766872  
     674A      6.774360   675A      6.811964   676A      6.842470  
     677A      6.954229   678A      6.982434   679A      7.004325  
     680A      7.016866   681A      7.045563   682A      7.055258  
     683A      7.104662   684A      7.121090   685A      7.154751  
     686A      7.203501   687A      7.236379   688A      7.267383  
     689A      7.300324   690A      7.351958   691A      7.374644  
     692A      7.417079   693A      7.448713   694A      7.502394  
     695A      7.673393   696A      7.735648   697A      7.765009  
     698A      7.834337   699A      7.921247   700A      7.998761  
     701A      8.046090   702A     16.062157   703A     16.264472  
     704A     16.434452   705A     17.206606   706A     17.794993  
     707A     18.601369   708A     18.846298   709A     19.777218  
     710A     20.065333   711A     20.215022   712A     21.146594  
     713A     21.616675  

    Final Occupation by Irrep:
              A 
    DOCC [    43 ]

  @DF-RHF Final Energy:  -578.61770013975354

   => Energetics <=

    Nuclear Repulsion Energy =            693.6287717827176493
    One-Electron Energy =               -2164.2878618619661211
    Two-Electron Energy =                 892.0413899394949340
    Total Energy =                       -578.6177001397535378

Computation Completed

*** tstop() called on node142.bme.utexas.edu at Tue Nov  3 23:57:45 2020
Module time:
	user time   =     818.30 seconds =      13.64 minutes
	system time =      76.63 seconds =       1.28 minutes
	total time  =        171 seconds =       2.85 minutes
Total time:
	user time   =     818.30 seconds =      13.64 minutes
	system time =      76.63 seconds =       1.28 minutes
	total time  =        171 seconds =       2.85 minutes
   => Loading Basis Set <=

    Name: (AUG-CC-PVTZ AUX)
    Role: RIFIT
    Keyword: DF_BASIS_MP2
    atoms 1     entry O          line   264 file /home/xy3866/psi4conda/share/psi4/basis/aug-cc-pvtz-ri.gbs 
    atoms 2-6   entry N          line   206 file /home/xy3866/psi4conda/share/psi4/basis/aug-cc-pvtz-ri.gbs 
    atoms 7-12  entry C          line   148 file /home/xy3866/psi4conda/share/psi4/basis/aug-cc-pvtz-ri.gbs 
    atoms 13-19 entry H          line    30 file /home/xy3866/psi4conda/share/psi4/basis/aug-cc-pvtz-ri.gbs 


*** tstart() called on node142.bme.utexas.edu
*** at Tue Nov  3 23:57:45 2020


  //>>>>>>>>>>>>>>>>>>>>>>>>>>>>>>>>>>>//
  //               DFMP2               //
  //<<<<<<<<<<<<<<<<<<<<<<<<<<<<<<<<<<<//

	 --------------------------------------------------------
	                          DF-MP2                         
	      2nd-Order Density-Fitted Moller-Plesset Theory     
	              RMP2 Wavefunction,   8 Threads             
	                                                         
	        Rob Parrish, Justin Turney, Andy Simmonett,      
	           Ed Hohenstein, and C. David Sherrill          
	 --------------------------------------------------------

   => Auxiliary Basis Set <=

  Basis Set: (AUG-CC-PVTZ AUX)
    Blend: AUG-CC-PVTZ-RI
    Number of shells: 434
    Number of basis function: 1594
    Number of Cartesian functions: 2017
    Spherical Harmonics?: true
    Max angular momentum: 4

	 --------------------------------------------------------
	                 NBF =   713, NAUX =  1594
	 --------------------------------------------------------
	   CLASS    FOCC     OCC    AOCC    AVIR     VIR    FVIR
	   PAIRS       0      43      43     670     670       0
	 --------------------------------------------------------

  DFHelper Memory: AOs need 5.669 GiB; user supplied 22.352 GiB. Using in-core AOs.


         ------------------------------------------------------------
                                     CPHF                           
                                  Rob Parrish                       
         ------------------------------------------------------------

  ==> Geometry <==

    Molecular point group: c1
    Full point group: C1

    Geometry (in Angstrom), charge = 0, multiplicity = 1:

       Center              X                  Y                   Z               Mass       
    ------------   -----------------  -----------------  -----------------  -----------------
         O           -1.475195304759     2.556383802644     0.080525931853    15.994914619570
         N            1.913737695241    -0.591145197356    -0.055505068147    14.003074004430
         N           -1.915700304759     0.298082802644     0.048632931853    14.003074004430
         N           -0.348138304759    -1.475252197356    -0.038624068147    14.003074004430
         N            1.511222695241     1.632882802644    -0.010433068147    14.003074004430
         N           -2.634850304759    -1.924947197356     0.111204931853    14.003074004430
         C            0.561788795241    -0.373867497356    -0.029820068147    12.000000000000
         C            0.328335695241     0.931655802644    -0.009274068147    12.000000000000
         C           -1.027586304759     1.415694802644     0.035304931853    12.000000000000
         C            2.433640695241     0.681473802644    -0.069795068147    12.000000000000
         C           -1.578479304759    -1.034062197356     0.018929931853    12.000000000000
         C            2.695009595241    -1.814122097356    -0.066791168147    12.000000000000
         H            3.503839695241     0.851063802644    -0.086481068147     1.007825032230
         H            2.367512695241    -2.438443197356     0.817873931853     1.007825032230
         H            2.374050695241    -2.422095197356    -0.960381068147     1.007825032230
         H            3.698717695241    -1.638603197356    -0.059108068147     1.007825032230
         H           -2.893403304759     0.561129802644     0.169441931853     1.007825032230
         H           -2.331225304759    -2.875710197356    -0.064114068147     1.007825032230
         H           -3.465115304759    -1.680655197356    -0.417225068147     1.007825032230

  Nuclear repulsion =  693.628771782717649
  Reference energy  = -578.617700139753538

  ==> Basis Set <==

  Basis Set: AUG-CC-PVTZ
    Blend: AUG-CC-PVTZ
    Number of shells: 231
    Number of basis function: 713
    Number of Cartesian functions: 835
    Spherical Harmonics?: true
    Max angular momentum: 3

  ==> CGRSolver (by Rob Parrish) <==

   Number of roots    =         1
   Preconditioning    =    JACOBI
   Convergence cutoff =     1E-06
   Maximum iterations =       100

  ==> CPHFRHamiltonian (by Rob Parrish) <== 

  ==> MemDFJK: Density-Fitted J/K Matrices <==

    J tasked:                   Yes
    K tasked:                   Yes
    wK tasked:                   No
    OpenMP threads:               8
    Memory [MiB]:             22888
    Algorithm:                 Disk
    Schwarz Cutoff:           1E-12
    Mask sparsity (%):       7.2105
    Fitting Condition:        1E-10

   => Auxiliary Basis Set <=

  Basis Set: (AUG-CC-PVTZ AUX)
    Blend: AUG-CC-PVTZ-JKFIT
    Number of shells: 458
    Number of basis function: 1570
    Number of Cartesian functions: 1957
    Spherical Harmonics?: true
    Max angular momentum: 4

  ==> CPHF Iterations <==

  => Iterations <=

             Iter  Converged  Remaining    Residual
  CGR           1          0          1   1.353E-01
  CGR           2          0          1   4.677E-02
  CGR           3          0          1   2.179E-02
  CGR           4          0          1   6.895E-03
  CGR           5          0          1   3.334E-03
  CGR           6          0          1   1.427E-03
  CGR           7          0          1   5.312E-04
  CGR           8          0          1   2.078E-04
  CGR           9          0          1   7.842E-05
  CGR          10          0          1   3.300E-05
  CGR          11          0          1   1.234E-05
  CGR          12          0          1   4.410E-06
  CGR          13          0          1   1.697E-06
  CGR          14          1          0   5.048E-07

    CGRSolver converged.

	-----------------------------------------------------------
	 ==================> DF-MP2 Energies <==================== 
	-----------------------------------------------------------
	 Reference Energy          =    -578.6177001397535378 [Eh]
	 Singles Energy            =      -0.0000000000000000 [Eh]
	 Same-Spin Energy          =      -0.6147831166114897 [Eh]
	 Opposite-Spin Energy      =      -1.8196246350117704 [Eh]
	 Correlation Energy        =      -2.4344077516232598 [Eh]
	 Total Energy              =    -581.0521078913767496 [Eh]
	-----------------------------------------------------------
	 ================> DF-SCS-MP2 Energies <================== 
	-----------------------------------------------------------
	 SCS Same-Spin Scale       =       0.3333333333333333 [-]
	 SCS Opposite-Spin Scale   =       1.2000000000000000 [-]
	 SCS Same-Spin Energy      =      -0.2049277055371632 [Eh]
	 SCS Opposite-Spin Energy  =      -2.1835495620141243 [Eh]
	 SCS Correlation Energy    =      -2.3884772675512878 [Eh]
	 SCS Total Energy          =    -581.0061774073047900 [Eh]
	-----------------------------------------------------------



Properties will be evaluated at   0.000000,  -0.000000,  -0.000000 [a0]

Properties computed using the MP2 density matrix

  Nuclear Dipole Moment: [e a0]
     X:     3.0481      Y:    -9.0220      Z:    -0.5622

  Electronic Dipole Moment: [e a0]
     X:    -3.0312      Y:     6.4306      Z:     0.1942

  Dipole Moment: [e a0]
     X:     0.0169      Y:    -2.5915      Z:    -0.3680     Total:     2.6175

  Dipole Moment: [D]
     X:     0.0430      Y:    -6.5869      Z:    -0.9355     Total:     6.6531


*** tstop() called on node142.bme.utexas.edu at Wed Nov  4 00:05:11 2020
Module time:
	user time   =    2764.32 seconds =      46.07 minutes
	system time =      85.14 seconds =       1.42 minutes
	total time  =        446 seconds =       7.43 minutes
Total time:
	user time   =    3583.80 seconds =      59.73 minutes
	system time =     161.86 seconds =       2.70 minutes
	total time  =        617 seconds =      10.28 minutes

    Psi4 stopped on: Wednesday, 04 November 2020 12:05AM
    Psi4 wall time for execution: 0:10:17.10

*** Psi4 exiting successfully. Buy a developer a beer!
