
    -----------------------------------------------------------------------
          Psi4: An Open-Source Ab Initio Electronic Structure Package
                               Psi4 1.3.2 release

                         Git: Rev {HEAD} ecbda83 


    R. M. Parrish, L. A. Burns, D. G. A. Smith, A. C. Simmonett,
    A. E. DePrince III, E. G. Hohenstein, U. Bozkaya, A. Yu. Sokolov,
    R. Di Remigio, R. M. Richard, J. F. Gonthier, A. M. James,
    H. R. McAlexander, A. Kumar, M. Saitow, X. Wang, B. P. Pritchard,
    P. Verma, H. F. Schaefer III, K. Patkowski, R. A. King, E. F. Valeev,
    F. A. Evangelista, J. M. Turney, T. D. Crawford, and C. D. Sherrill,
    J. Chem. Theory Comput. 13(7) pp 3185--3197 (2017).
    (doi: 10.1021/acs.jctc.7b00174)


                         Additional Contributions by
    P. Kraus, H. Kruse, M. H. Lechner, M. C. Schieber, R. A. Shaw,
    A. Alenaizan, R. Galvelis, Z. L. Glick, S. Lehtola, and J. P. Misiewicz

    -----------------------------------------------------------------------


    Psi4 started on: Tuesday, 03 November 2020 01:23PM

    Process ID: 71843
    Host:       node142.bme.utexas.edu
    PSIDATADIR: /home/xy3866/psi4conda/share/psi4
    Memory:     500.0 MiB
    Threads:    8
    
  ==> Input File <==

--------------------------------------------------------------------------
#psi4
#
memory 32 gb

molecule  {
0 1
  O       -1.4697740     2.5644010     0.0803940
  N        1.9191590    -0.5831280    -0.0556370
  N       -1.9102790     0.3061000     0.0485010
  N       -0.3281722    -1.4240085    -0.0410716
  N        1.5166440     1.6409000    -0.0105650
  N       -2.6599140    -1.8794159     0.1116018
  C        0.5576980    -0.4369160    -0.0295360
  C        0.3337570     0.9396730    -0.0094060
  C       -1.0221650     1.4237120     0.0351730
  C        2.4390620     0.6894910    -0.0699270
  C       -1.5730580    -1.0260450     0.0187980
  C        2.6353690    -1.8453210    -0.0655260
  H        3.5092610     0.8590810    -0.0866130
  H        2.3729340    -2.4304260     0.8177420
  H        2.3794720    -2.4140780    -0.9605130
  H        3.7041390    -1.6305860    -0.0592400
  H       -2.8879820     0.5691470     0.1693100
  H       -2.3258040    -2.8676930    -0.0642460
  H       -3.4596940    -1.6726380    -0.4173570
units angstrom
no_reorient  #important for SAPT in psi4, default
symmetry c1  #important for SAPT in psi4, default
}

set PROPERTIES_ORIGIN ["COM"]
properties('MP2/aug-cc-pvtz', properties = ['dipole'])
--------------------------------------------------------------------------

  Memory set to  29.802 GiB by Python driver.
    SCF Algorithm Type (re)set to DF.

*** tstart() called on node142.bme.utexas.edu
*** at Tue Nov  3 13:23:31 2020

   => Loading Basis Set <=

    Name: AUG-CC-PVTZ
    Role: ORBITAL
    Keyword: BASIS
    atoms 1     entry O          line   327 file /home/xy3866/psi4conda/share/psi4/basis/aug-cc-pvtz.gbs 
    atoms 2-6   entry N          line   281 file /home/xy3866/psi4conda/share/psi4/basis/aug-cc-pvtz.gbs 
    atoms 7-12  entry C          line   235 file /home/xy3866/psi4conda/share/psi4/basis/aug-cc-pvtz.gbs 
    atoms 13-19 entry H          line    36 file /home/xy3866/psi4conda/share/psi4/basis/aug-cc-pvtz.gbs 


         ---------------------------------------------------------
                                   SCF
               by Justin Turney, Rob Parrish, Andy Simmonett
                          and Daniel G. A. Smith
                              RHF Reference
                        8 Threads,  30517 MiB Core
         ---------------------------------------------------------

  ==> Geometry <==

    Molecular point group: c1
    Full point group: C1

    Geometry (in Angstrom), charge = 0, multiplicity = 1:

       Center              X                  Y                   Z               Mass       
    ------------   -----------------  -----------------  -----------------  -----------------
         O           -1.468421613215     2.557551614919     0.080545702800    15.994914619570
         N            1.920511386785    -0.589977385081    -0.055485297200    14.003074004430
         N           -1.908926613215     0.299250614919     0.048652702800    14.003074004430
         N           -0.326819813215    -1.430857885081    -0.040919897200    14.003074004430
         N            1.517996386785     1.634050614919    -0.010413297200    14.003074004430
         N           -2.658561613215    -1.886265285081     0.111753502800    14.003074004430
         C            0.559050386785    -0.443765385081    -0.029384297200    12.000000000000
         C            0.335109386785     0.932823614919    -0.009254297200    12.000000000000
         C           -1.020812613215     1.416862614919     0.035324702800    12.000000000000
         C            2.440414386785     0.682641614919    -0.069775297200    12.000000000000
         C           -1.571705613215    -1.032894385081     0.018949702800    12.000000000000
         C            2.636721386785    -1.852170385081    -0.065374297200    12.000000000000
         H            3.510613386785     0.852231614919    -0.086461297200     1.007825032230
         H            2.374286386785    -2.437275385081     0.817893702800     1.007825032230
         H            2.380824386785    -2.420927385081    -0.960361297200     1.007825032230
         H            3.705491386785    -1.637435385081    -0.059088297200     1.007825032230
         H           -2.886629613215     0.562297614919     0.169461702800     1.007825032230
         H           -2.324451613215    -2.874542385081    -0.064094297200     1.007825032230
         H           -3.458341613215    -1.679487385081    -0.417205297200     1.007825032230

  Running in c1 symmetry.

  Rotational constants: A =      0.04801  B =      0.03130  C =      0.01903 [cm^-1]
  Rotational constants: A =   1439.34030  B =    938.20302  C =    570.47055 [MHz]
  Nuclear repulsion =  694.587371491626868

  Charge       = 0
  Multiplicity = 1
  Electrons    = 86
  Nalpha       = 43
  Nbeta        = 43

  ==> Algorithm <==

  SCF Algorithm Type is DF.
  DIIS enabled.
  MOM disabled.
  Fractional occupation disabled.
  Guess Type is SAD.
  Energy threshold   = 1.00e-10
  Density threshold  = 1.00e-10
  Integral threshold = 0.00e+00

  ==> Primary Basis <==

  Basis Set: AUG-CC-PVTZ
    Blend: AUG-CC-PVTZ
    Number of shells: 231
    Number of basis function: 713
    Number of Cartesian functions: 835
    Spherical Harmonics?: true
    Max angular momentum: 3

   => Loading Basis Set <=

    Name: (AUG-CC-PVTZ AUX)
    Role: JKFIT
    Keyword: DF_BASIS_SCF
    atoms 1     entry O          line   286 file /home/xy3866/psi4conda/share/psi4/basis/aug-cc-pvtz-jkfit.gbs 
    atoms 2-6   entry N          line   224 file /home/xy3866/psi4conda/share/psi4/basis/aug-cc-pvtz-jkfit.gbs 
    atoms 7-12  entry C          line   162 file /home/xy3866/psi4conda/share/psi4/basis/aug-cc-pvtz-jkfit.gbs 
    atoms 13-19 entry H          line    70 file /home/xy3866/psi4conda/share/psi4/basis/aug-cc-pvtz-jkfit.gbs 

  ==> Pre-Iterations <==

   -------------------------------------------------------
    Irrep   Nso     Nmo     Nalpha   Nbeta   Ndocc  Nsocc
   -------------------------------------------------------
     A        713     713       0       0       0       0
   -------------------------------------------------------
    Total     713     713      43      43      43       0
   -------------------------------------------------------

  ==> Integral Setup <==

  DFHelper Memory: AOs need 5.670 GiB; user supplied 22.352 GiB. Using in-core AOs.

  ==> MemDFJK: Density-Fitted J/K Matrices <==

    J tasked:                   Yes
    K tasked:                   Yes
    wK tasked:                   No
    OpenMP threads:               8
    Memory [MiB]:             22888
    Algorithm:                 Disk
    Schwarz Cutoff:           1E-12
    Mask sparsity (%):       7.1881
    Fitting Condition:        1E-10

   => Auxiliary Basis Set <=

  Basis Set: (AUG-CC-PVTZ AUX)
    Blend: AUG-CC-PVTZ-JKFIT
    Number of shells: 458
    Number of basis function: 1570
    Number of Cartesian functions: 1957
    Spherical Harmonics?: true
    Max angular momentum: 4

  Minimum eigenvalue in the overlap matrix is 1.2181655116E-06.
  Using Symmetric Orthogonalization.

  SCF Guess: Superposition of Atomic Densities via on-the-fly atomic UHF.

  ==> Iterations <==

                           Total Energy        Delta E     RMS |[F,P]|

   @DF-RHF iter SAD:  -578.44225192118176   -5.78442e+02   0.00000e+00 
   @DF-RHF iter   1:  -578.29645206288285    1.45800e-01   1.13012e-03 DIIS
   @DF-RHF iter   2:  -578.54259558387639   -2.46144e-01   6.50247e-04 DIIS
   @DF-RHF iter   3:  -578.61903696403283   -7.64414e-02   1.44256e-04 DIIS
   @DF-RHF iter   4:  -578.62477837792665   -5.74141e-03   5.83439e-05 DIIS
   @DF-RHF iter   5:  -578.62581357445436   -1.03520e-03   1.27745e-05 DIIS
   @DF-RHF iter   6:  -578.62591701378994   -1.03439e-04   6.57529e-06 DIIS
   @DF-RHF iter   7:  -578.62594546746209   -2.84537e-05   2.65790e-06 DIIS
   @DF-RHF iter   8:  -578.62595076295463   -5.29549e-06   1.07078e-06 DIIS
   @DF-RHF iter   9:  -578.62595156680618   -8.03852e-07   3.80405e-07 DIIS
   @DF-RHF iter  10:  -578.62595168936480   -1.22559e-07   1.69569e-07 DIIS
   @DF-RHF iter  11:  -578.62595170691782   -1.75530e-08   6.76368e-08 DIIS
   @DF-RHF iter  12:  -578.62595171018506   -3.26725e-09   2.64270e-08 DIIS
   @DF-RHF iter  13:  -578.62595171064049   -4.55429e-10   1.02061e-08 DIIS
   @DF-RHF iter  14:  -578.62595171071064   -7.01448e-11   3.32088e-09 DIIS
   @DF-RHF iter  15:  -578.62595171072462   -1.39835e-11   1.41261e-09 DIIS
   @DF-RHF iter  16:  -578.62595171072087    3.75167e-12   6.24980e-10 DIIS
   @DF-RHF iter  17:  -578.62595171072485   -3.97904e-12   2.39751e-10 DIIS
   @DF-RHF iter  18:  -578.62595171072326    1.59162e-12   1.24425e-10 DIIS
   @DF-RHF iter  19:  -578.62595171072621   -2.95586e-12   4.33004e-11 DIIS
  Energy and wave function converged.


  ==> Post-Iterations <==

    Orbital Energies [Eh]
    ---------------------

    Doubly Occupied:                                                      

       1A    -20.517710     2A    -15.631192     3A    -15.627266  
       4A    -15.614824     5A    -15.568911     6A    -15.558216  
       7A    -11.398533     8A    -11.361494     9A    -11.316392  
      10A    -11.306439    11A    -11.289101    12A    -11.244440  
      13A     -1.391095    14A     -1.360328    15A     -1.334785  
      16A     -1.227131    17A     -1.215941    18A     -1.190550  
      19A     -1.028887    20A     -0.985692    21A     -0.902381  
      22A     -0.887083    23A     -0.810695    24A     -0.767066  
      25A     -0.741659    26A     -0.736483    27A     -0.684672  
      28A     -0.671872    29A     -0.649628    30A     -0.644851  
      31A     -0.628761    32A     -0.608526    33A     -0.592573  
      34A     -0.579121    35A     -0.560838    36A     -0.541637  
      37A     -0.491643    38A     -0.465222    39A     -0.436982  
      40A     -0.429044    41A     -0.425718    42A     -0.391967  
      43A     -0.294924  

    Virtual:                                                              

      44A      0.015305    45A      0.023505    46A      0.034410  
      47A      0.039607    48A      0.043623    49A      0.049963  
      50A      0.059693    51A      0.076352    52A      0.077910  
      53A      0.083422    54A      0.088844    55A      0.093009  
      56A      0.106986    57A      0.111556    58A      0.112629  
      59A      0.115225    60A      0.118950    61A      0.120458  
      62A      0.125445    63A      0.128579    64A      0.132174  
      65A      0.133100    66A      0.136109    67A      0.142059  
      68A      0.144550    69A      0.152333    70A      0.161217  
      71A      0.164656    72A      0.166273    73A      0.175017  
      74A      0.181426    75A      0.182322    76A      0.185855  
      77A      0.195328    78A      0.196189    79A      0.203590  
      80A      0.206335    81A      0.214176    82A      0.220246  
      83A      0.226764    84A      0.232104    85A      0.237444  
      86A      0.240107    87A      0.244809    88A      0.255283  
      89A      0.260611    90A      0.264672    91A      0.269254  
      92A      0.273750    93A      0.276260    94A      0.286027  
      95A      0.291805    96A      0.294226    97A      0.300198  
      98A      0.301629    99A      0.307763   100A      0.310797  
     101A      0.315035   102A      0.319849   103A      0.320834  
     104A      0.327936   105A      0.338981   106A      0.341591  
     107A      0.344993   108A      0.351115   109A      0.356838  
     110A      0.359676   111A      0.362889   112A      0.367591  
     113A      0.370507   114A      0.375854   115A      0.379155  
     116A      0.388372   117A      0.392763   118A      0.397087  
     119A      0.403971   120A      0.406038   121A      0.409626  
     122A      0.413084   123A      0.417493   124A      0.419525  
     125A      0.431634   126A      0.438481   127A      0.442632  
     128A      0.447516   129A      0.452332   130A      0.456009  
     131A      0.457959   132A      0.462490   133A      0.467983  
     134A      0.474175   135A      0.479145   136A      0.481426  
     137A      0.486939   138A      0.492984   139A      0.498282  
     140A      0.502779   141A      0.508692   142A      0.511701  
     143A      0.512823   144A      0.515924   145A      0.520834  
     146A      0.529566   147A      0.534969   148A      0.540448  
     149A      0.542829   150A      0.546564   151A      0.553477  
     152A      0.561927   153A      0.564839   154A      0.569432  
     155A      0.575166   156A      0.576879   157A      0.594512  
     158A      0.597812   159A      0.606118   160A      0.611764  
     161A      0.624967   162A      0.626881   163A      0.632789  
     164A      0.641294   165A      0.643219   166A      0.655343  
     167A      0.660140   168A      0.669154   169A      0.674414  
     170A      0.681034   171A      0.686023   172A      0.691820  
     173A      0.698361   174A      0.708053   175A      0.712854  
     176A      0.722792   177A      0.728360   178A      0.732921  
     179A      0.742636   180A      0.746721   181A      0.754721  
     182A      0.761406   183A      0.767436   184A      0.774455  
     185A      0.779346   186A      0.784709   187A      0.792320  
     188A      0.796170   189A      0.805772   190A      0.817950  
     191A      0.823369   192A      0.826296   193A      0.832419  
     194A      0.840967   195A      0.845328   196A      0.847007  
     197A      0.853677   198A      0.856989   199A      0.868055  
     200A      0.874576   201A      0.884692   202A      0.886689  
     203A      0.889457   204A      0.897204   205A      0.899263  
     206A      0.904533   207A      0.914719   208A      0.919266  
     209A      0.922856   210A      0.928715   211A      0.936219  
     212A      0.936631   213A      0.951806   214A      0.952743  
     215A      0.957527   216A      0.959639   217A      0.969104  
     218A      0.971834   219A      0.981784   220A      0.985945  
     221A      0.993752   222A      0.999624   223A      1.005913  
     224A      1.007281   225A      1.013743   226A      1.018812  
     227A      1.022821   228A      1.032688   229A      1.039895  
     230A      1.044333   231A      1.051837   232A      1.061959  
     233A      1.066099   234A      1.071107   235A      1.079662  
     236A      1.085807   237A      1.090981   238A      1.093310  
     239A      1.098527   240A      1.105313   241A      1.112417  
     242A      1.125183   243A      1.126327   244A      1.129365  
     245A      1.132511   246A      1.134559   247A      1.149825  
     248A      1.160800   249A      1.166788   250A      1.170335  
     251A      1.178947   252A      1.183532   253A      1.189064  
     254A      1.199250   255A      1.200423   256A      1.202252  
     257A      1.213155   258A      1.217320   259A      1.218116  
     260A      1.222848   261A      1.249176   262A      1.252203  
     263A      1.265086   264A      1.270063   265A      1.274622  
     266A      1.278464   267A      1.285995   268A      1.294502  
     269A      1.296260   270A      1.302845   271A      1.308921  
     272A      1.316791   273A      1.320122   274A      1.335272  
     275A      1.341684   276A      1.352960   277A      1.360722  
     278A      1.373355   279A      1.380210   280A      1.385815  
     281A      1.392679   282A      1.400820   283A      1.411350  
     284A      1.418231   285A      1.421048   286A      1.423686  
     287A      1.433171   288A      1.437809   289A      1.442838  
     290A      1.455720   291A      1.465705   292A      1.472656  
     293A      1.480293   294A      1.487154   295A      1.492524  
     296A      1.499691   297A      1.508535   298A      1.522417  
     299A      1.524961   300A      1.538746   301A      1.542230  
     302A      1.547048   303A      1.555216   304A      1.568522  
     305A      1.572966   306A      1.578562   307A      1.585757  
     308A      1.590596   309A      1.605667   310A      1.617087  
     311A      1.624069   312A      1.628254   313A      1.635531  
     314A      1.641593   315A      1.646436   316A      1.667939  
     317A      1.671365   318A      1.679255   319A      1.686074  
     320A      1.691839   321A      1.700151   322A      1.711676  
     323A      1.716499   324A      1.724300   325A      1.732721  
     326A      1.741963   327A      1.743463   328A      1.751290  
     329A      1.761057   330A      1.775612   331A      1.795119  
     332A      1.799610   333A      1.808184   334A      1.816128  
     335A      1.829124   336A      1.833775   337A      1.847442  
     338A      1.856182   339A      1.865214   340A      1.882834  
     341A      1.888054   342A      1.896693   343A      1.905272  
     344A      1.917247   345A      1.933804   346A      1.946932  
     347A      1.959138   348A      1.968347   349A      1.975009  
     350A      1.980612   351A      1.992615   352A      1.995438  
     353A      2.008764   354A      2.012210   355A      2.027174  
     356A      2.044768   357A      2.050181   358A      2.061270  
     359A      2.069467   360A      2.082420   361A      2.083407  
     362A      2.093812   363A      2.101531   364A      2.117674  
     365A      2.129795   366A      2.140511   367A      2.150262  
     368A      2.161521   369A      2.170677   370A      2.182938  
     371A      2.199313   372A      2.200960   373A      2.207879  
     374A      2.217119   375A      2.230974   376A      2.244779  
     377A      2.253933   378A      2.262829   379A      2.269653  
     380A      2.291114   381A      2.297867   382A      2.311358  
     383A      2.317148   384A      2.331442   385A      2.341599  
     386A      2.345705   387A      2.348269   388A      2.352101  
     389A      2.358560   390A      2.368611   391A      2.383792  
     392A      2.400397   393A      2.406766   394A      2.420004  
     395A      2.430144   396A      2.436768   397A      2.449245  
     398A      2.457146   399A      2.471830   400A      2.473270  
     401A      2.485859   402A      2.495753   403A      2.513688  
     404A      2.523135   405A      2.530076   406A      2.536546  
     407A      2.544768   408A      2.561546   409A      2.570352  
     410A      2.579120   411A      2.587172   412A      2.611784  
     413A      2.624287   414A      2.634191   415A      2.636772  
     416A      2.658520   417A      2.668473   418A      2.677553  
     419A      2.697381   420A      2.718747   421A      2.729244  
     422A      2.742244   423A      2.745742   424A      2.754393  
     425A      2.775131   426A      2.797402   427A      2.811324  
     428A      2.832236   429A      2.837034   430A      2.849645  
     431A      2.865820   432A      2.875926   433A      2.898563  
     434A      2.903091   435A      2.930318   436A      2.944033  
     437A      2.959923   438A      3.005995   439A      3.029314  
     440A      3.037639   441A      3.065899   442A      3.078169  
     443A      3.083888   444A      3.135408   445A      3.148297  
     446A      3.163531   447A      3.179359   448A      3.198680  
     449A      3.238180   450A      3.241702   451A      3.260371  
     452A      3.265064   453A      3.309153   454A      3.333145  
     455A      3.340977   456A      3.373009   457A      3.379993  
     458A      3.390557   459A      3.399877   460A      3.415209  
     461A      3.446754   462A      3.458102   463A      3.485368  
     464A      3.497189   465A      3.521363   466A      3.534160  
     467A      3.539781   468A      3.546065   469A      3.582699  
     470A      3.591650   471A      3.610097   472A      3.626044  
     473A      3.645812   474A      3.650075   475A      3.655021  
     476A      3.670019   477A      3.682120   478A      3.687274  
     479A      3.700639   480A      3.719936   481A      3.731218  
     482A      3.737675   483A      3.744475   484A      3.765521  
     485A      3.774276   486A      3.784719   487A      3.791076  
     488A      3.798742   489A      3.808449   490A      3.811850  
     491A      3.819711   492A      3.838381   493A      3.861177  
     494A      3.868250   495A      3.886002   496A      3.899592  
     497A      3.903723   498A      3.916408   499A      3.935588  
     500A      3.936977   501A      3.951406   502A      3.971902  
     503A      3.982612   504A      3.989439   505A      3.998618  
     506A      4.002645   507A      4.018110   508A      4.031789  
     509A      4.040273   510A      4.064157   511A      4.073174  
     512A      4.077781   513A      4.094201   514A      4.097117  
     515A      4.107430   516A      4.121477   517A      4.137584  
     518A      4.151637   519A      4.166125   520A      4.169967  
     521A      4.177194   522A      4.187101   523A      4.197475  
     524A      4.210067   525A      4.228829   526A      4.231254  
     527A      4.238277   528A      4.244245   529A      4.271699  
     530A      4.284191   531A      4.292865   532A      4.309829  
     533A      4.311912   534A      4.318641   535A      4.336897  
     536A      4.337773   537A      4.368412   538A      4.381372  
     539A      4.386112   540A      4.403115   541A      4.406163  
     542A      4.410814   543A      4.429934   544A      4.435377  
     545A      4.437746   546A      4.473870   547A      4.495453  
     548A      4.497945   549A      4.500694   550A      4.519355  
     551A      4.526793   552A      4.543677   553A      4.556942  
     554A      4.587109   555A      4.597349   556A      4.613929  
     557A      4.626268   558A      4.640910   559A      4.646488  
     560A      4.674486   561A      4.684143   562A      4.694728  
     563A      4.708489   564A      4.724633   565A      4.733260  
     566A      4.763435   567A      4.798096   568A      4.803803  
     569A      4.810073   570A      4.825964   571A      4.828320  
     572A      4.853639   573A      4.867680   574A      4.884124  
     575A      4.900964   576A      4.906077   577A      4.924028  
     578A      4.947221   579A      4.952894   580A      4.990481  
     581A      5.001262   582A      5.012100   583A      5.016104  
     584A      5.040839   585A      5.055480   586A      5.063604  
     587A      5.126627   588A      5.142920   589A      5.151125  
     590A      5.168277   591A      5.185934   592A      5.198674  
     593A      5.203189   594A      5.224325   595A      5.227138  
     596A      5.245335   597A      5.254133   598A      5.268199  
     599A      5.285182   600A      5.296426   601A      5.313116  
     602A      5.341396   603A      5.363894   604A      5.382029  
     605A      5.391187   606A      5.410998   607A      5.443872  
     608A      5.474257   609A      5.477422   610A      5.512434  
     611A      5.533150   612A      5.540631   613A      5.551943  
     614A      5.573912   615A      5.585462   616A      5.609693  
     617A      5.622944   618A      5.628423   619A      5.649325  
     620A      5.666086   621A      5.677672   622A      5.682711  
     623A      5.708250   624A      5.711886   625A      5.729702  
     626A      5.739673   627A      5.759619   628A      5.781578  
     629A      5.795167   630A      5.816877   631A      5.830043  
     632A      5.841640   633A      5.872333   634A      5.901238  
     635A      5.909343   636A      5.929664   637A      5.940836  
     638A      5.962012   639A      5.976614   640A      5.984822  
     641A      5.991949   642A      6.010175   643A      6.035446  
     644A      6.057893   645A      6.072809   646A      6.110515  
     647A      6.122788   648A      6.135607   649A      6.141413  
     650A      6.154135   651A      6.173280   652A      6.179423  
     653A      6.200915   654A      6.223903   655A      6.235606  
     656A      6.255838   657A      6.289872   658A      6.324811  
     659A      6.366401   660A      6.400793   661A      6.455415  
     662A      6.488406   663A      6.545531   664A      6.592739  
     665A      6.604793   666A      6.638663   667A      6.669609  
     668A      6.697026   669A      6.703637   670A      6.704897  
     671A      6.708969   672A      6.759452   673A      6.766614  
     674A      6.781366   675A      6.843394   676A      6.878703  
     677A      6.939525   678A      6.971481   679A      6.983152  
     680A      7.014270   681A      7.043545   682A      7.059732  
     683A      7.105394   684A      7.150654   685A      7.162311  
     686A      7.239663   687A      7.259592   688A      7.272404  
     689A      7.338928   690A      7.382714   691A      7.415723  
     692A      7.422908   693A      7.454792   694A      7.548999  
     695A      7.675432   696A      7.738151   697A      7.753356  
     698A      7.838935   699A      7.925147   700A      8.001931  
     701A      8.052694   702A     16.084019   703A     16.289754  
     704A     16.516454   705A     17.091858   706A     17.770649  
     707A     18.671322   708A     18.858817   709A     19.548414  
     710A     20.087536   711A     20.283307   712A     21.319450  
     713A     21.780282  

    Final Occupation by Irrep:
              A 
    DOCC [    43 ]

  @DF-RHF Final Energy:  -578.62595171072621

   => Energetics <=

    Nuclear Repulsion Energy =            694.5873714916268682
    One-Electron Energy =               -2166.2021019943122155
    Two-Electron Energy =                 892.9887787919590210
    Total Energy =                       -578.6259517107262127

Computation Completed

*** tstop() called on node142.bme.utexas.edu at Tue Nov  3 13:25:31 2020
Module time:
	user time   =     558.51 seconds =       9.31 minutes
	system time =      59.74 seconds =       1.00 minutes
	total time  =        120 seconds =       2.00 minutes
Total time:
	user time   =     558.51 seconds =       9.31 minutes
	system time =      59.74 seconds =       1.00 minutes
	total time  =        120 seconds =       2.00 minutes
   => Loading Basis Set <=

    Name: (AUG-CC-PVTZ AUX)
    Role: RIFIT
    Keyword: DF_BASIS_MP2
    atoms 1     entry O          line   264 file /home/xy3866/psi4conda/share/psi4/basis/aug-cc-pvtz-ri.gbs 
    atoms 2-6   entry N          line   206 file /home/xy3866/psi4conda/share/psi4/basis/aug-cc-pvtz-ri.gbs 
    atoms 7-12  entry C          line   148 file /home/xy3866/psi4conda/share/psi4/basis/aug-cc-pvtz-ri.gbs 
    atoms 13-19 entry H          line    30 file /home/xy3866/psi4conda/share/psi4/basis/aug-cc-pvtz-ri.gbs 


*** tstart() called on node142.bme.utexas.edu
*** at Tue Nov  3 13:25:31 2020


  //>>>>>>>>>>>>>>>>>>>>>>>>>>>>>>>>>>>//
  //               DFMP2               //
  //<<<<<<<<<<<<<<<<<<<<<<<<<<<<<<<<<<<//

	 --------------------------------------------------------
	                          DF-MP2                         
	      2nd-Order Density-Fitted Moller-Plesset Theory     
	              RMP2 Wavefunction,   8 Threads             
	                                                         
	        Rob Parrish, Justin Turney, Andy Simmonett,      
	           Ed Hohenstein, and C. David Sherrill          
	 --------------------------------------------------------

   => Auxiliary Basis Set <=

  Basis Set: (AUG-CC-PVTZ AUX)
    Blend: AUG-CC-PVTZ-RI
    Number of shells: 434
    Number of basis function: 1594
    Number of Cartesian functions: 2017
    Spherical Harmonics?: true
    Max angular momentum: 4

	 --------------------------------------------------------
	                 NBF =   713, NAUX =  1594
	 --------------------------------------------------------
	   CLASS    FOCC     OCC    AOCC    AVIR     VIR    FVIR
	   PAIRS       0      43      43     670     670       0
	 --------------------------------------------------------

  DFHelper Memory: AOs need 5.670 GiB; user supplied 22.352 GiB. Using in-core AOs.


         ------------------------------------------------------------
                                     CPHF                           
                                  Rob Parrish                       
         ------------------------------------------------------------

  ==> Geometry <==

    Molecular point group: c1
    Full point group: C1

    Geometry (in Angstrom), charge = 0, multiplicity = 1:

       Center              X                  Y                   Z               Mass       
    ------------   -----------------  -----------------  -----------------  -----------------
         O           -1.468421613215     2.557551614919     0.080545702800    15.994914619570
         N            1.920511386785    -0.589977385081    -0.055485297200    14.003074004430
         N           -1.908926613215     0.299250614919     0.048652702800    14.003074004430
         N           -0.326819813215    -1.430857885081    -0.040919897200    14.003074004430
         N            1.517996386785     1.634050614919    -0.010413297200    14.003074004430
         N           -2.658561613215    -1.886265285081     0.111753502800    14.003074004430
         C            0.559050386785    -0.443765385081    -0.029384297200    12.000000000000
         C            0.335109386785     0.932823614919    -0.009254297200    12.000000000000
         C           -1.020812613215     1.416862614919     0.035324702800    12.000000000000
         C            2.440414386785     0.682641614919    -0.069775297200    12.000000000000
         C           -1.571705613215    -1.032894385081     0.018949702800    12.000000000000
         C            2.636721386785    -1.852170385081    -0.065374297200    12.000000000000
         H            3.510613386785     0.852231614919    -0.086461297200     1.007825032230
         H            2.374286386785    -2.437275385081     0.817893702800     1.007825032230
         H            2.380824386785    -2.420927385081    -0.960361297200     1.007825032230
         H            3.705491386785    -1.637435385081    -0.059088297200     1.007825032230
         H           -2.886629613215     0.562297614919     0.169461702800     1.007825032230
         H           -2.324451613215    -2.874542385081    -0.064094297200     1.007825032230
         H           -3.458341613215    -1.679487385081    -0.417205297200     1.007825032230

  Nuclear repulsion =  694.587371491626868
  Reference energy  = -578.625951710726213

  ==> Basis Set <==

  Basis Set: AUG-CC-PVTZ
    Blend: AUG-CC-PVTZ
    Number of shells: 231
    Number of basis function: 713
    Number of Cartesian functions: 835
    Spherical Harmonics?: true
    Max angular momentum: 3

  ==> CGRSolver (by Rob Parrish) <==

   Number of roots    =         1
   Preconditioning    =    JACOBI
   Convergence cutoff =     1E-06
   Maximum iterations =       100

  ==> CPHFRHamiltonian (by Rob Parrish) <== 

  ==> MemDFJK: Density-Fitted J/K Matrices <==

    J tasked:                   Yes
    K tasked:                   Yes
    wK tasked:                   No
    OpenMP threads:               8
    Memory [MiB]:             22888
    Algorithm:                 Disk
    Schwarz Cutoff:           1E-12
    Mask sparsity (%):       7.1881
    Fitting Condition:        1E-10

   => Auxiliary Basis Set <=

  Basis Set: (AUG-CC-PVTZ AUX)
    Blend: AUG-CC-PVTZ-JKFIT
    Number of shells: 458
    Number of basis function: 1570
    Number of Cartesian functions: 1957
    Spherical Harmonics?: true
    Max angular momentum: 4

  ==> CPHF Iterations <==

  => Iterations <=

             Iter  Converged  Remaining    Residual
  CGR           1          0          1   1.384E-01
  CGR           2          0          1   4.991E-02
  CGR           3          0          1   2.479E-02
  CGR           4          0          1   8.069E-03
  CGR           5          0          1   4.016E-03
  CGR           6          0          1   1.683E-03
  CGR           7          0          1   5.923E-04
  CGR           8          0          1   2.457E-04
  CGR           9          0          1   8.525E-05
  CGR          10          0          1   3.457E-05
  CGR          11          0          1   1.300E-05
  CGR          12          0          1   4.747E-06
  CGR          13          0          1   1.914E-06
  CGR          14          1          0   5.955E-07

    CGRSolver converged.

	-----------------------------------------------------------
	 ==================> DF-MP2 Energies <==================== 
	-----------------------------------------------------------
	 Reference Energy          =    -578.6259517107262127 [Eh]
	 Singles Energy            =      -0.0000000000000000 [Eh]
	 Same-Spin Energy          =      -0.6166069150356880 [Eh]
	 Opposite-Spin Energy      =      -1.8197863330336363 [Eh]
	 Correlation Energy        =      -2.4363932480693244 [Eh]
	 Total Energy              =    -581.0623449587955065 [Eh]
	-----------------------------------------------------------
	 ================> DF-SCS-MP2 Energies <================== 
	-----------------------------------------------------------
	 SCS Same-Spin Scale       =       0.3333333333333333 [-]
	 SCS Opposite-Spin Scale   =       1.2000000000000000 [-]
	 SCS Same-Spin Energy      =      -0.2055356383452293 [Eh]
	 SCS Opposite-Spin Energy  =      -2.1837435996403634 [Eh]
	 SCS Correlation Energy    =      -2.3892792379855927 [Eh]
	 SCS Total Energy          =    -581.0152309487118600 [Eh]
	-----------------------------------------------------------



Properties will be evaluated at   0.000000,  -0.000000,  -0.000000 [a0]

Properties computed using the MP2 density matrix

  Nuclear Dipole Moment: [e a0]
     X:     3.0925      Y:    -9.0146      Z:    -0.5621

  Electronic Dipole Moment: [e a0]
     X:    -3.1018      Y:     6.2643      Z:     0.1883

  Dipole Moment: [e a0]
     X:    -0.0093      Y:    -2.7503      Z:    -0.3738     Total:     2.7756

  Dipole Moment: [D]
     X:    -0.0236      Y:    -6.9906      Z:    -0.9502     Total:     7.0549


*** tstop() called on node142.bme.utexas.edu at Tue Nov  3 13:30:35 2020
Module time:
	user time   =    1883.29 seconds =      31.39 minutes
	system time =      71.11 seconds =       1.19 minutes
	total time  =        304 seconds =       5.07 minutes
Total time:
	user time   =    2442.96 seconds =      40.72 minutes
	system time =     130.99 seconds =       2.18 minutes
	total time  =        424 seconds =       7.07 minutes

    Psi4 stopped on: Tuesday, 03 November 2020 01:30PM
    Psi4 wall time for execution: 0:07:05.24

*** Psi4 exiting successfully. Buy a developer a beer!
