22141912                                                                
Freq      RMP2-FC                                                     6-31G(d)            
Number of atoms                            I               17
Info1-9                                    I   N=           9
          29          27        1002           0           0         100
           6           2           1
Charge                                     I               -1
Multiplicity                               I                1
Number of electrons                        I               74
Number of alpha electrons                  I               37
Number of beta electrons                   I               37
Number of basis functions                  I              142
Number of independent functions            I              142
Number of point charges in /Mol/           I                0
Number of translation vectors              I                0
Atomic numbers                             I   N=          17
          16           8           8           8           6           6
           6           6           1           1           1           1
           1           1           1           1           1
Nuclear charges                            R   N=          17
  1.60000000E+01  8.00000000E+00  8.00000000E+00  8.00000000E+00  6.00000000E+00
  6.00000000E+00  6.00000000E+00  6.00000000E+00  1.00000000E+00  1.00000000E+00
  1.00000000E+00  1.00000000E+00  1.00000000E+00  1.00000000E+00  1.00000000E+00
  1.00000000E+00  1.00000000E+00
Current cartesian coordinates              R   N=          51
  2.33121728E+00 -3.82331489E-02  5.66136094E-02  2.31536901E+00 -5.33895834E-01
  2.82917932E+00  4.14955193E+00 -1.60726065E+00 -1.40429484E+00  2.37291510E+00
  2.69756485E+00 -6.23480509E-01 -2.98651312E+00 -1.51985129E-01  4.61023396E-01
 -7.21761589E-01 -1.19699846E+00 -9.89864683E-01 -3.50328266E+00  2.62043375E+00
 -1.55435951E-01 -5.33314223E+00 -1.75808121E+00 -5.48760026E-02 -2.51060834E+00
 -3.02083023E-01  2.47278912E+00 -8.78177222E-01 -7.84777032E-01 -3.01542978E+00
 -6.18792865E-01 -3.25262354E+00 -7.62170148E-01 -4.04605567E+00  2.81561902E+00
 -2.14806706E+00 -1.80888131E+00  3.75142584E+00  1.56812098E-01 -5.06066858E+00
  3.35157026E+00  1.00192044E+00 -5.81509195E+00 -1.71165221E+00 -2.07048799E+00
 -5.02500794E+00 -3.73431457E+00  4.79755744E-01 -6.97068337E+00 -1.05291499E+00
  1.00274753E+00
Force Field                                I                0
Int Atom Types                             I   N=          17
           0           0           0           0           0           0
           0           0           0           0           0           0
           0           0           0           0           0
MM charges                                 R   N=          17
  0.00000000E+00  0.00000000E+00  0.00000000E+00  0.00000000E+00  0.00000000E+00
  0.00000000E+00  0.00000000E+00  0.00000000E+00  0.00000000E+00  0.00000000E+00
  0.00000000E+00  0.00000000E+00  0.00000000E+00  0.00000000E+00  0.00000000E+00
  0.00000000E+00  0.00000000E+00
Integer atomic weights                     I   N=          17
          32          16          16          16          12          12
          12          12           1           1           1           1
           1           1           1           1           1
Real atomic weights                        R   N=          17
  3.19720718E+01  1.59949146E+01  1.59949146E+01  1.59949146E+01  1.20000000E+01
  1.20000000E+01  1.20000000E+01  1.20000000E+01  1.00782504E+00  1.00782504E+00
  1.00782504E+00  1.00782504E+00  1.00782504E+00  1.00782504E+00  1.00782504E+00
  1.00782504E+00  1.00782504E+00
Atom fragment info                         I   N=          17
           0           0           0           0           0           0
           0           0           0           0           0           0
           0           0           0           0           0
Atom residue num                           I   N=          17
           0           0           0           0           0           0
           0           0           0           0           0           0
           0           0           0           0           0
Nuclear spins                              I   N=          17
           0           0           0           0           0           0
           0           0           1           1           1           1
           1           1           1           1           1
Nuclear ZEff                               R   N=          17
 -1.36000000E+01 -5.60000000E+00 -5.60000000E+00 -5.60000000E+00 -3.60000000E+00
 -3.60000000E+00 -3.60000000E+00 -3.60000000E+00 -1.00000000E+00 -1.00000000E+00
 -1.00000000E+00 -1.00000000E+00 -1.00000000E+00 -1.00000000E+00 -1.00000000E+00
 -1.00000000E+00 -1.00000000E+00
Nuclear QMom                               R   N=          17
  0.00000000E+00  0.00000000E+00  0.00000000E+00  0.00000000E+00  0.00000000E+00
  0.00000000E+00  0.00000000E+00  0.00000000E+00  0.00000000E+00  0.00000000E+00
  0.00000000E+00  0.00000000E+00  0.00000000E+00  0.00000000E+00  0.00000000E+00
  0.00000000E+00  0.00000000E+00
Nuclear GFac                               R   N=          17
  0.00000000E+00  0.00000000E+00  0.00000000E+00  0.00000000E+00  0.00000000E+00
  0.00000000E+00  0.00000000E+00  0.00000000E+00  2.79284600E+00  2.79284600E+00
  2.79284600E+00  2.79284600E+00  2.79284600E+00  2.79284600E+00  2.79284600E+00
  2.79284600E+00  2.79284600E+00
MicOpt                                     I   N=          17
          -1          -1          -1          -1          -1          -1
          -1          -1          -1          -1          -1          -1
          -1          -1          -1          -1          -1
Number of contracted shells                I               51
Number of primitive shells                 I              130
Pure/Cartesian d shells                    I                1
Pure/Cartesian f shells                    I                0
Highest angular momentum                   I                2
Largest degree of contraction              I                6
Shell types                                I   N=          51
           0          -1          -1          -1           2           0
          -1          -1           2           0          -1          -1
           2           0          -1          -1           2           0
          -1          -1           2           0          -1          -1
           2           0          -1          -1           2           0
          -1          -1           2           0           0           0
           0           0           0           0           0           0
           0           0           0           0           0           0
           0           0           0
Number of primitives per shell             I   N=          51
           6           6           3           1           1           6
           3           1           1           6           3           1
           1           6           3           1           1           6
           3           1           1           6           3           1
           1           6           3           1           1           6
           3           1           1           3           1           3
           1           3           1           3           1           3
           1           3           1           3           1           3
           1           3           1
Shell to atom map                          I   N=          51
           1           1           1           1           1           2
           2           2           2           3           3           3
           3           4           4           4           4           5
           5           5           5           6           6           6
           6           7           7           7           7           8
           8           8           8           9           9          10
          10          11          11          12          12          13
          13          14          14          15          15          16
          16          17          17
Primitive exponents                        R   N=         130
  2.19171000E+04  3.30149000E+03  7.54146000E+02  2.12711000E+02  6.79896000E+01
  2.30515000E+01  4.23735000E+02  1.00710000E+02  3.21599000E+01  1.18079000E+01
  4.63110000E+00  1.87025000E+00  2.61584000E+00  9.22167000E-01  3.41287000E-01
  1.17167000E-01  6.50000000E-01  5.48467166E+03  8.25234946E+02  1.88046958E+02
  5.29645000E+01  1.68975704E+01  5.79963534E+00  1.55396162E+01  3.59993359E+00
  1.01376175E+00  2.70005823E-01  8.00000000E-01  5.48467166E+03  8.25234946E+02
  1.88046958E+02  5.29645000E+01  1.68975704E+01  5.79963534E+00  1.55396162E+01
  3.59993359E+00  1.01376175E+00  2.70005823E-01  8.00000000E-01  5.48467166E+03
  8.25234946E+02  1.88046958E+02  5.29645000E+01  1.68975704E+01  5.79963534E+00
  1.55396162E+01  3.59993359E+00  1.01376175E+00  2.70005823E-01  8.00000000E-01
  3.04752488E+03  4.57369518E+02  1.03948685E+02  2.92101553E+01  9.28666296E+00
  3.16392696E+00  7.86827235E+00  1.88128854E+00  5.44249258E-01  1.68714478E-01
  8.00000000E-01  3.04752488E+03  4.57369518E+02  1.03948685E+02  2.92101553E+01
  9.28666296E+00  3.16392696E+00  7.86827235E+00  1.88128854E+00  5.44249258E-01
  1.68714478E-01  8.00000000E-01  3.04752488E+03  4.57369518E+02  1.03948685E+02
  2.92101553E+01  9.28666296E+00  3.16392696E+00  7.86827235E+00  1.88128854E+00
  5.44249258E-01  1.68714478E-01  8.00000000E-01  3.04752488E+03  4.57369518E+02
  1.03948685E+02  2.92101553E+01  9.28666296E+00  3.16392696E+00  7.86827235E+00
  1.88128854E+00  5.44249258E-01  1.68714478E-01  8.00000000E-01  1.87311370E+01
  2.82539436E+00  6.40121692E-01  1.61277759E-01  1.87311370E+01  2.82539436E+00
  6.40121692E-01  1.61277759E-01  1.87311370E+01  2.82539436E+00  6.40121692E-01
  1.61277759E-01  1.87311370E+01  2.82539436E+00  6.40121692E-01  1.61277759E-01
  1.87311370E+01  2.82539436E+00  6.40121692E-01  1.61277759E-01  1.87311370E+01
  2.82539436E+00  6.40121692E-01  1.61277759E-01  1.87311370E+01  2.82539436E+00
  6.40121692E-01  1.61277759E-01  1.87311370E+01  2.82539436E+00  6.40121692E-01
  1.61277759E-01  1.87311370E+01  2.82539436E+00  6.40121692E-01  1.61277759E-01
Contraction coefficients                   R   N=         130
  1.86924085E-03  1.42303065E-02  6.96962317E-02  2.38487108E-01  4.83307220E-01
  3.38074154E-01 -2.37677050E-03 -3.16930067E-02 -1.13317024E-01  5.60900118E-02
  5.92255124E-01  4.55006095E-01 -2.50373114E-01  6.69567631E-02  1.05450627E+00
  1.00000000E+00  1.00000000E+00  1.83107443E-03  1.39501722E-02  6.84450781E-02
  2.32714336E-01  4.70192898E-01  3.58520853E-01 -1.10777550E-01 -1.48026263E-01
  1.13076702E+00  1.00000000E+00  1.00000000E+00  1.83107443E-03  1.39501722E-02
  6.84450781E-02  2.32714336E-01  4.70192898E-01  3.58520853E-01 -1.10777550E-01
 -1.48026263E-01  1.13076702E+00  1.00000000E+00  1.00000000E+00  1.83107443E-03
  1.39501722E-02  6.84450781E-02  2.32714336E-01  4.70192898E-01  3.58520853E-01
 -1.10777550E-01 -1.48026263E-01  1.13076702E+00  1.00000000E+00  1.00000000E+00
  1.83473713E-03  1.40373228E-02  6.88426223E-02  2.32184443E-01  4.67941348E-01
  3.62311985E-01 -1.19332420E-01 -1.60854152E-01  1.14345644E+00  1.00000000E+00
  1.00000000E+00  1.83473713E-03  1.40373228E-02  6.88426223E-02  2.32184443E-01
  4.67941348E-01  3.62311985E-01 -1.19332420E-01 -1.60854152E-01  1.14345644E+00
  1.00000000E+00  1.00000000E+00  1.83473713E-03  1.40373228E-02  6.88426223E-02
  2.32184443E-01  4.67941348E-01  3.62311985E-01 -1.19332420E-01 -1.60854152E-01
  1.14345644E+00  1.00000000E+00  1.00000000E+00  1.83473713E-03  1.40373228E-02
  6.88426223E-02  2.32184443E-01  4.67941348E-01  3.62311985E-01 -1.19332420E-01
 -1.60854152E-01  1.14345644E+00  1.00000000E+00  1.00000000E+00  3.34946043E-02
  2.34726953E-01  8.13757326E-01  1.00000000E+00  3.34946043E-02  2.34726953E-01
  8.13757326E-01  1.00000000E+00  3.34946043E-02  2.34726953E-01  8.13757326E-01
  1.00000000E+00  3.34946043E-02  2.34726953E-01  8.13757326E-01  1.00000000E+00
  3.34946043E-02  2.34726953E-01  8.13757326E-01  1.00000000E+00  3.34946043E-02
  2.34726953E-01  8.13757326E-01  1.00000000E+00  3.34946043E-02  2.34726953E-01
  8.13757326E-01  1.00000000E+00  3.34946043E-02  2.34726953E-01  8.13757326E-01
  1.00000000E+00  3.34946043E-02  2.34726953E-01  8.13757326E-01  1.00000000E+00
P(S=P) Contraction coefficients            R   N=         130
  0.00000000E+00  0.00000000E+00  0.00000000E+00  0.00000000E+00  0.00000000E+00
  0.00000000E+00  4.06100998E-03  3.06812999E-02  1.30451999E-01  3.27204999E-01
  4.52850998E-01  2.56041999E-01 -1.45104895E-02  3.10262776E-01  7.54482456E-01
  1.00000000E+00  0.00000000E+00  0.00000000E+00  0.00000000E+00  0.00000000E+00
  0.00000000E+00  0.00000000E+00  0.00000000E+00  7.08742682E-02  3.39752839E-01
  7.27158577E-01  1.00000000E+00  0.00000000E+00  0.00000000E+00  0.00000000E+00
  0.00000000E+00  0.00000000E+00  0.00000000E+00  0.00000000E+00  7.08742682E-02
  3.39752839E-01  7.27158577E-01  1.00000000E+00  0.00000000E+00  0.00000000E+00
  0.00000000E+00  0.00000000E+00  0.00000000E+00  0.00000000E+00  0.00000000E+00
  7.08742682E-02  3.39752839E-01  7.27158577E-01  1.00000000E+00  0.00000000E+00
  0.00000000E+00  0.00000000E+00  0.00000000E+00  0.00000000E+00  0.00000000E+00
  0.00000000E+00  6.89990666E-02  3.16423961E-01  7.44308291E-01  1.00000000E+00
  0.00000000E+00  0.00000000E+00  0.00000000E+00  0.00000000E+00  0.00000000E+00
  0.00000000E+00  0.00000000E+00  6.89990666E-02  3.16423961E-01  7.44308291E-01
  1.00000000E+00  0.00000000E+00  0.00000000E+00  0.00000000E+00  0.00000000E+00
  0.00000000E+00  0.00000000E+00  0.00000000E+00  6.89990666E-02  3.16423961E-01
  7.44308291E-01  1.00000000E+00  0.00000000E+00  0.00000000E+00  0.00000000E+00
  0.00000000E+00  0.00000000E+00  0.00000000E+00  0.00000000E+00  6.89990666E-02
  3.16423961E-01  7.44308291E-01  1.00000000E+00  0.00000000E+00  0.00000000E+00
  0.00000000E+00  0.00000000E+00  0.00000000E+00  0.00000000E+00  0.00000000E+00
  0.00000000E+00  0.00000000E+00  0.00000000E+00  0.00000000E+00  0.00000000E+00
  0.00000000E+00  0.00000000E+00  0.00000000E+00  0.00000000E+00  0.00000000E+00
  0.00000000E+00  0.00000000E+00  0.00000000E+00  0.00000000E+00  0.00000000E+00
  0.00000000E+00  0.00000000E+00  0.00000000E+00  0.00000000E+00  0.00000000E+00
  0.00000000E+00  0.00000000E+00  0.00000000E+00  0.00000000E+00  0.00000000E+00
  0.00000000E+00  0.00000000E+00  0.00000000E+00  0.00000000E+00  0.00000000E+00
Coordinates of each shell                  R   N=         153
  2.33121728E+00 -3.82331489E-02  5.66136094E-02  2.33121728E+00 -3.82331489E-02
  5.66136094E-02  2.33121728E+00 -3.82331489E-02  5.66136094E-02  2.33121728E+00
 -3.82331489E-02  5.66136094E-02  2.33121728E+00 -3.82331489E-02  5.66136094E-02
  2.31536901E+00 -5.33895834E-01  2.82917932E+00  2.31536901E+00 -5.33895834E-01
  2.82917932E+00  2.31536901E+00 -5.33895834E-01  2.82917932E+00  2.31536901E+00
 -5.33895834E-01  2.82917932E+00  4.14955193E+00 -1.60726065E+00 -1.40429484E+00
  4.14955193E+00 -1.60726065E+00 -1.40429484E+00  4.14955193E+00 -1.60726065E+00
 -1.40429484E+00  4.14955193E+00 -1.60726065E+00 -1.40429484E+00  2.37291510E+00
  2.69756485E+00 -6.23480509E-01  2.37291510E+00  2.69756485E+00 -6.23480509E-01
  2.37291510E+00  2.69756485E+00 -6.23480509E-01  2.37291510E+00  2.69756485E+00
 -6.23480509E-01 -2.98651312E+00 -1.51985129E-01  4.61023396E-01 -2.98651312E+00
 -1.51985129E-01  4.61023396E-01 -2.98651312E+00 -1.51985129E-01  4.61023396E-01
 -2.98651312E+00 -1.51985129E-01  4.61023396E-01 -7.21761589E-01 -1.19699846E+00
 -9.89864683E-01 -7.21761589E-01 -1.19699846E+00 -9.89864683E-01 -7.21761589E-01
 -1.19699846E+00 -9.89864683E-01 -7.21761589E-01 -1.19699846E+00 -9.89864683E-01
 -3.50328266E+00  2.62043375E+00 -1.55435951E-01 -3.50328266E+00  2.62043375E+00
 -1.55435951E-01 -3.50328266E+00  2.62043375E+00 -1.55435951E-01 -3.50328266E+00
  2.62043375E+00 -1.55435951E-01 -5.33314223E+00 -1.75808121E+00 -5.48760026E-02
 -5.33314223E+00 -1.75808121E+00 -5.48760026E-02 -5.33314223E+00 -1.75808121E+00
 -5.48760026E-02 -5.33314223E+00 -1.75808121E+00 -5.48760026E-02 -2.51060834E+00
 -3.02083023E-01  2.47278912E+00 -2.51060834E+00 -3.02083023E-01  2.47278912E+00
 -8.78177222E-01 -7.84777032E-01 -3.01542978E+00 -8.78177222E-01 -7.84777032E-01
 -3.01542978E+00 -6.18792865E-01 -3.25262354E+00 -7.62170148E-01 -6.18792865E-01
 -3.25262354E+00 -7.62170148E-01 -4.04605567E+00  2.81561902E+00 -2.14806706E+00
 -4.04605567E+00  2.81561902E+00 -2.14806706E+00 -1.80888131E+00  3.75142584E+00
  1.56812098E-01 -1.80888131E+00  3.75142584E+00  1.56812098E-01 -5.06066858E+00
  3.35157026E+00  1.00192044E+00 -5.06066858E+00  3.35157026E+00  1.00192044E+00
 -5.81509195E+00 -1.71165221E+00 -2.07048799E+00 -5.81509195E+00 -1.71165221E+00
 -2.07048799E+00 -5.02500794E+00 -3.73431457E+00  4.79755744E-01 -5.02500794E+00
 -3.73431457E+00  4.79755744E-01 -6.97068337E+00 -1.05291499E+00  1.00274753E+00
 -6.97068337E+00 -1.05291499E+00  1.00274753E+00
Constraint Structure                       R   N=          51
  2.33121728E+00 -3.82331489E-02  5.66136094E-02  2.31536901E+00 -5.33895834E-01
  2.82917932E+00  4.14955193E+00 -1.60726065E+00 -1.40429484E+00  2.37291510E+00
  2.69756485E+00 -6.23480509E-01 -2.98651312E+00 -1.51985129E-01  4.61023396E-01
 -7.21761589E-01 -1.19699846E+00 -9.89864683E-01 -3.50328266E+00  2.62043375E+00
 -1.55435951E-01 -5.33314223E+00 -1.75808121E+00 -5.48760026E-02 -2.51060834E+00
 -3.02083023E-01  2.47278912E+00 -8.78177222E-01 -7.84777032E-01 -3.01542978E+00
 -6.18792865E-01 -3.25262354E+00 -7.62170148E-01 -4.04605567E+00  2.81561902E+00
 -2.14806706E+00 -1.80888131E+00  3.75142584E+00  1.56812098E-01 -5.06066858E+00
  3.35157026E+00  1.00192044E+00 -5.81509195E+00 -1.71165221E+00 -2.07048799E+00
 -5.02500794E+00 -3.73431457E+00  4.79755744E-01 -6.97068337E+00 -1.05291499E+00
  1.00274753E+00
Num ILSW                                   I              100
ILSW                                       I   N=         100
           0           1           0           0           2           0
           0           0           0           0           0          -1
           0           0           0           0           0           0
           0           0           0           0           1           0
           1           0           0           0           0           0
           0           0      100000           0          -1           0
           0           0           0           0           0           0
           0           0           0           1           1           0
           0           0           1           0           0           0
           0           0           4          40           0           0
           0           0           0           0           0           0
           0           0           0           0           0           0
           0           0           0           0           0           0
           0           0           0           0           0           0
           0           0           0           0           0           0
           0           0           0           0           0           0
           0           0           0           0
Num RLSW                                   I               40
RLSW                                       R   N=          40
  1.00000000E+00  1.00000000E+00  1.00000000E+00  1.00000000E+00  1.00000000E+00
  0.00000000E+00  0.00000000E+00  1.00000000E+00  0.00000000E+00  0.00000000E+00
  0.00000000E+00  0.00000000E+00  1.00000000E+00  0.00000000E+00  0.00000000E+00
  0.00000000E+00  0.00000000E+00  1.00000000E+00  0.00000000E+00  0.00000000E+00
  0.00000000E+00  0.00000000E+00  1.00000000E+00  0.00000000E+00  0.00000000E+00
  0.00000000E+00  0.00000000E+00  1.00000000E+00  0.00000000E+00  0.00000000E+00
  0.00000000E+00  0.00000000E+00  0.00000000E+00  0.00000000E+00  0.00000000E+00
  0.00000000E+00  0.00000000E+00  0.00000000E+00  1.00000000E+00  1.00000000E+00
MxBond                                     I                4
NBond                                      I   N=          17
           4           1           1           1           4           4
           4           4           1           1           1           1
           1           1           1           1           1
IBond                                      I   N=          68
           2           3           4           6           1           0
           0           0           1           0           0           0
           1           0           0           0           6           7
           8           9           1           5          10          11
           5          12          13          14           5          15
          16          17           5           0           0           0
           6           0           0           0           6           0
           0           0           7           0           0           0
           7           0           0           0           7           0
           0           0           8           0           0           0
           8           0           0           0           8           0
           0           0
RBond                                      R   N=          68
  2.00000000E+00  2.00000000E+00  2.00000000E+00  1.00000000E+00  2.00000000E+00
  0.00000000E+00  0.00000000E+00  0.00000000E+00  2.00000000E+00  0.00000000E+00
  0.00000000E+00  0.00000000E+00  2.00000000E+00  0.00000000E+00  0.00000000E+00
  0.00000000E+00  1.00000000E+00  1.00000000E+00  1.00000000E+00  1.00000000E+00
  1.00000000E+00  1.00000000E+00  1.00000000E+00  1.00000000E+00  1.00000000E+00
  1.00000000E+00  1.00000000E+00  1.00000000E+00  1.00000000E+00  1.00000000E+00
  1.00000000E+00  1.00000000E+00  1.00000000E+00  0.00000000E+00  0.00000000E+00
  0.00000000E+00  1.00000000E+00  0.00000000E+00  0.00000000E+00  0.00000000E+00
  1.00000000E+00  0.00000000E+00  0.00000000E+00  0.00000000E+00  1.00000000E+00
  0.00000000E+00  0.00000000E+00  0.00000000E+00  1.00000000E+00  0.00000000E+00
  0.00000000E+00  0.00000000E+00  1.00000000E+00  0.00000000E+00  0.00000000E+00
  0.00000000E+00  1.00000000E+00  0.00000000E+00  0.00000000E+00  0.00000000E+00
  1.00000000E+00  0.00000000E+00  0.00000000E+00  0.00000000E+00  1.00000000E+00
  0.00000000E+00  0.00000000E+00  0.00000000E+00
Virial Ratio                               R      2.001875384617518E+00
SCF Energy                                 R     -7.787934338908083E+02
MP2 Energy                                 R     -7.800111161533356E+02
Total Energy                               R     -7.800111161533356E+02
Post-SCF wavefunction norm                 R      1.664200655680397E+00
RMS Force                                  R      5.534376420966266E-07
RMS Density                                R      1.153762459765005E-09
External E-field                           R   N=          35
  0.00000000E+00  0.00000000E+00  0.00000000E+00  0.00000000E+00  0.00000000E+00
  0.00000000E+00  0.00000000E+00  0.00000000E+00  0.00000000E+00  0.00000000E+00
  0.00000000E+00  0.00000000E+00  0.00000000E+00  0.00000000E+00  0.00000000E+00
  0.00000000E+00  0.00000000E+00  0.00000000E+00  0.00000000E+00  0.00000000E+00
  0.00000000E+00  0.00000000E+00  0.00000000E+00  0.00000000E+00  0.00000000E+00
  0.00000000E+00  0.00000000E+00  0.00000000E+00  0.00000000E+00  0.00000000E+00
  0.00000000E+00  0.00000000E+00  0.00000000E+00  0.00000000E+00  0.00000000E+00
IOpCl                                      I                0
IROHF                                      I                0
Alpha Orbital Energies                     R   N=         142
 -9.20017385E+01 -2.03379034E+01 -2.03375989E+01 -2.03363316E+01 -1.11077246E+01
 -1.11019425E+01 -1.10934441E+01 -1.10831059E+01 -8.96805105E+00 -6.65415384E+00
 -6.65411833E+00 -6.65384192E+00 -1.25065307E+00 -1.10442363E+00 -1.10407313E+00
 -9.63766152E-01 -8.23386845E-01 -8.08508737E-01 -6.60954082E-01 -6.02016893E-01
 -5.16747469E-01 -4.86764595E-01 -4.79590277E-01 -4.53287524E-01 -4.37923012E-01
 -4.31402298E-01 -4.18804777E-01 -3.98667297E-01 -3.64322394E-01 -3.46503047E-01
 -3.36790955E-01 -3.06319893E-01 -3.06198990E-01 -2.62947037E-01 -2.61185487E-01
 -2.36841340E-01 -2.22637559E-01  3.42426124E-01  3.95155570E-01  4.00806062E-01
  4.10377318E-01  4.35486412E-01  4.46242522E-01  4.50037438E-01  4.61580338E-01
  4.82066117E-01  4.92050256E-01  5.14498163E-01  5.30651247E-01  5.39782998E-01
  5.52714219E-01  5.74682446E-01  6.05634769E-01  7.13859731E-01  7.76379260E-01
  8.00210074E-01  8.14200989E-01  8.44029017E-01  8.67608295E-01  8.76255921E-01
  9.04228971E-01  9.53382590E-01  1.02691793E+00  1.05059346E+00  1.07574266E+00
  1.10360723E+00  1.11873047E+00  1.16020100E+00  1.19632109E+00  1.22448142E+00
  1.23676775E+00  1.25643796E+00  1.27377501E+00  1.27675967E+00  1.28564969E+00
  1.29556649E+00  1.31105731E+00  1.31722949E+00  1.33210437E+00  1.34781534E+00
  1.35989932E+00  1.37704278E+00  1.41921581E+00  1.46699026E+00  1.50607714E+00
  1.51895204E+00  1.52481164E+00  1.55174694E+00  1.56595017E+00  1.61717819E+00
  1.70921318E+00  1.75084574E+00  1.76421845E+00  1.80999597E+00  1.83248961E+00
  1.84874396E+00  1.86447214E+00  1.93937853E+00  1.96499079E+00  2.08670432E+00
  2.15268859E+00  2.17235722E+00  2.20513980E+00  2.22018883E+00  2.28512523E+00
  2.30960156E+00  2.32241563E+00  2.33645102E+00  2.34373161E+00  2.34849309E+00
  2.37897838E+00  2.41093565E+00  2.42764614E+00  2.44086284E+00  2.49611148E+00
  2.51039009E+00  2.56000853E+00  2.58659875E+00  2.63696917E+00  2.65929992E+00
  2.68540097E+00  2.69556830E+00  2.72144124E+00  2.73316381E+00  2.84699100E+00
  2.85871870E+00  2.97171820E+00  2.98649431E+00  3.00520817E+00  3.19624949E+00
  3.20822775E+00  3.21975896E+00  3.36998091E+00  3.39095306E+00  4.42007579E+00
  4.47405329E+00  4.54527678E+00  4.67892377E+00  4.73873247E+00  4.84230864E+00
  4.89192520E+00  5.13974091E+00
Alpha MO coefficients                      R   N=       20164
  9.96271941E-01  1.42081320E-02 -7.51195434E-06 -1.54261271E-06 -1.63593053E-06
 -1.99297640E-02  5.55525724E-05  2.20974827E-05  2.09431161E-05  1.63311321E-03
 -1.49032525E-04  6.68565339E-05  5.45256045E-05  6.89226997E-03  6.92332137E-03
  6.92625359E-03 -7.81403830E-08 -7.80921992E-07 -6.78944572E-06  1.54597387E-05
  2.43539589E-05 -7.82155024E-06 -1.19335564E-05  7.51573987E-05  2.18325799E-04
  4.33139198E-05  3.35315311E-05 -2.55764382E-04  4.63405780E-05  3.57592217E-05
 -1.23485127E-04  9.04127962E-07 -6.94128038E-06  3.61692542E-05  2.64876756E-06
 -2.83779247E-05  4.97853939E-05 -4.99335099E-05 -4.75066066E-05  4.84444153E-04
 -1.86795216E-04  1.89392264E-04  1.80292566E-04 -6.82329027E-05 -4.62745583E-05
 -3.90327434E-05  6.92548890E-05  6.39122552E-05 -5.12801549E-05  1.28677000E-05
  1.75175627E-05 -1.32517557E-06  7.22701223E-05 -1.81892115E-05  2.49109589E-04
  2.22768694E-05 -2.50676797E-04  5.52791987E-05  3.85829675E-05 -1.27177655E-04
  2.10057474E-05 -1.12189440E-05  2.13556753E-06  4.76380435E-05 -7.53310764E-07
  3.20399210E-05 -1.72331917E-05  2.87738197E-06  9.13691997E-06 -1.11704673E-04
 -2.11701410E-04  1.68232695E-04  2.13176570E-05 -4.86641882E-05 -2.66898373E-06
 -1.06618112E-05  3.99253437E-06  7.73362792E-06 -3.85885404E-06 -2.41882723E-05
 -4.68692107E-05  7.41455750E-05  2.07557464E-05  2.39269156E-05  7.45054943E-04
  6.54922447E-05  7.52554501E-05  1.07354911E-04 -4.17297766E-05 -4.54270763E-05
 -3.79527018E-05 -1.02478236E-05 -1.45809188E-05  6.97773293E-06  9.95498536E-06
  4.03943821E-05  1.46528529E-05 -1.19551553E-05 -1.09268434E-05 -1.99929023E-04
 -4.73245966E-05  1.53547339E-04  4.60628660E-05  1.09347178E-05  9.68705518E-06
  2.35733081E-05  5.36854887E-06 -1.62861096E-06  6.08429056E-06 -3.43305989E-06
 -1.39918129E-05 -9.27205869E-06 -3.31505719E-06  1.45568313E-06  1.20112657E-05
  7.64064959E-05 -2.35690290E-05 -8.78175019E-06  3.64949368E-06 -8.85919744E-06
 -9.08861910E-06  3.39614180E-06  8.11871675E-06 -6.05123752E-06  2.16384294E-05
 -6.66106215E-05 -4.44954774E-05 -1.44811022E-04 -4.19774400E-05 -1.64479029E-04
  1.31006343E-05  4.77726107E-05  2.09778658E-05 -9.25900964E-05 -1.02672444E-06
 -4.74508515E-05 -9.65854149E-06  1.99699938E-05 -1.35366864E-05  1.38138603E-05
  5.60507834E-06  2.36968261E-05  1.53442984E-05 -6.77594358E-05 -5.71020913E-06
 -3.55793252E-05  8.15495358E-06  5.20340495E-04  3.56296668E-05  3.97183509E-04
 -9.58586999E-05  1.22477955E-05 -1.14407153E-04 -2.65656784E-04  1.22810472E-04
 -1.27988746E-04 -2.35296064E-05 -1.13042398E-04  1.14643125E-05 -4.59854234E-06
 -3.02029676E-05 -3.57016201E-02 -7.04268335E-04 -3.01704416E-06 -2.67019689E-05
  4.71594994E-05 -3.46337324E-04  1.59209582E-05 -4.04046694E-06  4.03877693E-05
  1.73106496E-04  1.45197377E-04  1.62566154E-04  1.01767905E-06 -1.40063838E-06
  3.24775612E-05 -6.65036362E-03 -1.25909067E-04  3.38618226E-06 -2.85856220E-05
  1.20847023E-06 -5.35128291E-05  2.31195852E-05  8.62764949E-06 -1.82485034E-05
  3.15223920E-05 -1.07168912E-05  3.62811813E-05  1.59993773E-05 -5.54168659E-06
 -3.30053349E-06  9.94026854E-01  2.09596555E-02 -2.99452131E-05 -1.22165455E-03
  3.05278457E-04  3.95331394E-03 -2.24212075E-05  5.24072903E-04 -1.30353146E-04
 -3.91549233E-03 -4.10557715E-03 -3.93569143E-03 -3.06135570E-06 -6.31872529E-06
  5.74723100E-05  9.45035449E-07 -3.54146968E-06  6.15340163E-06  5.75579113E-06
  4.19169979E-06  8.72687590E-07 -9.69482699E-06 -3.34336625E-05 -4.16007880E-05
  7.87961725E-06  5.28096038E-06  2.97328034E-07  2.49878621E-06  8.16257917E-07
 -5.03015202E-06  2.65762782E-06  2.65791332E-05 -1.06298001E-05 -1.45705562E-05