
    -----------------------------------------------------------------------
          Psi4: An Open-Source Ab Initio Electronic Structure Package
                               Psi4 1.3.2 release

                         Git: Rev {HEAD} ecbda83 


    R. M. Parrish, L. A. Burns, D. G. A. Smith, A. C. Simmonett,
    A. E. DePrince III, E. G. Hohenstein, U. Bozkaya, A. Yu. Sokolov,
    R. Di Remigio, R. M. Richard, J. F. Gonthier, A. M. James,
    H. R. McAlexander, A. Kumar, M. Saitow, X. Wang, B. P. Pritchard,
    P. Verma, H. F. Schaefer III, K. Patkowski, R. A. King, E. F. Valeev,
    F. A. Evangelista, J. M. Turney, T. D. Crawford, and C. D. Sherrill,
    J. Chem. Theory Comput. 13(7) pp 3185--3197 (2017).
    (doi: 10.1021/acs.jctc.7b00174)


                         Additional Contributions by
    P. Kraus, H. Kruse, M. H. Lechner, M. C. Schieber, R. A. Shaw,
    A. Alenaizan, R. Galvelis, Z. L. Glick, S. Lehtola, and J. P. Misiewicz

    -----------------------------------------------------------------------


    Psi4 started on: Tuesday, 03 November 2020 08:21AM

    Process ID: 31807
    Host:       node57.bme.utexas.edu
    PSIDATADIR: /home/xy3866/psi4conda/share/psi4
    Memory:     500.0 MiB
    Threads:    8
    
  ==> Input File <==

--------------------------------------------------------------------------
#psi4
#
memory 32 gb

molecule  {
0 1
  P       -0.0032580    -0.8671950     0.1253540
  O       -1.1867680     0.1204360     0.5615740
  O        1.1016610     0.0784666    -0.5281437
  O       -0.6066630    -1.5809190    -1.1923580
  O        0.4670770    -1.7625730     1.2055430
  C       -1.7907810     0.9929110    -0.4324270
  C        1.9592910     0.8227470     0.3828140
  C       -2.8068250     1.8392790     0.2947570
  C        2.8989188     1.6888482    -0.4249184
  H       -1.0045510     1.5998440    -0.8949530
  H       -2.2583930     0.3707270    -1.2026260
  H        1.3234980     1.4321860     1.0341110
  H        2.5053500     0.1039360     0.9973890
  H       -3.3001310     2.5165380    -0.4095030
  H       -3.5654280     1.2070220     0.7630240
  H       -2.3198080     2.4333430     1.0748900
  H        3.5555180     2.2520740     0.2062470
  H        3.4947160     1.0534000    -1.1072300
  H        2.3164280     2.3771700    -1.0625470
  H       -0.2391740    -2.4808040    -1.2743640
units angstrom
no_reorient  #important for SAPT in psi4, default
symmetry c1  #important for SAPT in psi4, default
}

set PROPERTIES_ORIGIN ["COM"]
properties('MP2/aug-cc-pvtz', properties = ['dipole'])
--------------------------------------------------------------------------

  Memory set to  29.802 GiB by Python driver.
    SCF Algorithm Type (re)set to DF.

*** tstart() called on node57.bme.utexas.edu
*** at Tue Nov  3 08:21:18 2020

   => Loading Basis Set <=

    Name: AUG-CC-PVTZ
    Role: ORBITAL
    Keyword: BASIS
    atoms 1     entry P          line   820 file /home/xy3866/psi4conda/share/psi4/basis/aug-cc-pvtz.gbs 
    atoms 2-5   entry O          line   327 file /home/xy3866/psi4conda/share/psi4/basis/aug-cc-pvtz.gbs 
    atoms 6-9   entry C          line   235 file /home/xy3866/psi4conda/share/psi4/basis/aug-cc-pvtz.gbs 
    atoms 10-20 entry H          line    36 file /home/xy3866/psi4conda/share/psi4/basis/aug-cc-pvtz.gbs 


         ---------------------------------------------------------
                                   SCF
               by Justin Turney, Rob Parrish, Andy Simmonett
                          and Daniel G. A. Smith
                              RHF Reference
                        8 Threads,  30517 MiB Core
         ---------------------------------------------------------

  ==> Geometry <==

    Molecular point group: c1
    Full point group: C1

    Geometry (in Angstrom), charge = 0, multiplicity = 1:

       Center              X                  Y                   Z               Mass       
    ------------   -----------------  -----------------  -----------------  -----------------
         P           -0.002896975998    -0.866765242352     0.121583787894    30.973761998420
         O           -1.186406975998     0.120865757648     0.557803787894    15.994914619570
         O            1.102022024002     0.078896357648    -0.531913912106    15.994914619570
         O           -0.606301975998    -1.580489242352    -1.196128212106    15.994914619570
         O            0.467438024002    -1.762143242352     1.201772787894    15.994914619570
         C           -1.790419975998     0.993340757648    -0.436197212106    12.000000000000
         C            1.959652024002     0.823176757648     0.379043787894    12.000000000000
         C           -2.806463975998     1.839708757648     0.290986787894    12.000000000000
         C            2.899279824002     1.689277957648    -0.428688612106    12.000000000000
         H           -1.004189975998     1.600273757648    -0.898723212106     1.007825032230
         H           -2.258031975998     0.371156757648    -1.206396212106     1.007825032230
         H            1.323859024002     1.432615757648     1.030340787894     1.007825032230
         H            2.505711024002     0.104365757648     0.993618787894     1.007825032230
         H           -3.299769975998     2.516967757648    -0.413273212106     1.007825032230
         H           -3.565066975998     1.207451757648     0.759253787894     1.007825032230
         H           -2.319446975998     2.433772757648     1.071119787894     1.007825032230
         H            3.555879024002     2.252503757648     0.202476787894     1.007825032230
         H            3.495077024002     1.053829757648    -1.111000212106     1.007825032230
         H            2.316789024002     2.377599757648    -1.066317212106     1.007825032230
         H           -0.238812975998    -2.480374242352    -1.278134212106     1.007825032230

  Running in c1 symmetry.

  Rotational constants: A =      0.05301  B =      0.03523  C =      0.02591 [cm^-1]
  Rotational constants: A =   1589.12495  B =   1056.26164  C =    776.79787 [MHz]
  Nuclear repulsion =  628.762920850411888

  Charge       = 0
  Multiplicity = 1
  Electrons    = 82
  Nalpha       = 41
  Nbeta        = 41

  ==> Algorithm <==

  SCF Algorithm Type is DF.
  DIIS enabled.
  MOM disabled.
  Fractional occupation disabled.
  Guess Type is SAD.
  Energy threshold   = 1.00e-10
  Density threshold  = 1.00e-10
  Integral threshold = 0.00e+00

  ==> Primary Basis <==

  Basis Set: AUG-CC-PVTZ
    Blend: AUG-CC-PVTZ
    Number of shells: 227
    Number of basis function: 671
    Number of Cartesian functions: 774
    Spherical Harmonics?: true
    Max angular momentum: 3

   => Loading Basis Set <=

    Name: (AUG-CC-PVTZ AUX)
    Role: JKFIT
    Keyword: DF_BASIS_SCF
    atoms 1     entry P          line   644 file /home/xy3866/psi4conda/share/psi4/basis/aug-cc-pvtz-jkfit.gbs 
    atoms 2-5   entry O          line   286 file /home/xy3866/psi4conda/share/psi4/basis/aug-cc-pvtz-jkfit.gbs 
    atoms 6-9   entry C          line   162 file /home/xy3866/psi4conda/share/psi4/basis/aug-cc-pvtz-jkfit.gbs 
    atoms 10-20 entry H          line    70 file /home/xy3866/psi4conda/share/psi4/basis/aug-cc-pvtz-jkfit.gbs 

  ==> Pre-Iterations <==

   -------------------------------------------------------
    Irrep   Nso     Nmo     Nalpha   Nbeta   Ndocc  Nsocc
   -------------------------------------------------------
     A        671     671       0       0       0       0
   -------------------------------------------------------
    Total     671     671      41      41      41       0
   -------------------------------------------------------

  ==> Integral Setup <==

  DFHelper Memory: AOs need 4.756 GiB; user supplied 22.352 GiB. Using in-core AOs.

  ==> MemDFJK: Density-Fitted J/K Matrices <==

    J tasked:                   Yes
    K tasked:                   Yes
    wK tasked:                   No
    OpenMP threads:               8
    Memory [MiB]:             22888
    Algorithm:                 Disk
    Schwarz Cutoff:           1E-12
    Mask sparsity (%):       7.1602
    Fitting Condition:        1E-10

   => Auxiliary Basis Set <=

  Basis Set: (AUG-CC-PVTZ AUX)
    Blend: AUG-CC-PVTZ-JKFIT
    Number of shells: 436
    Number of basis function: 1484
    Number of Cartesian functions: 1833
    Spherical Harmonics?: true
    Max angular momentum: 4

  Minimum eigenvalue in the overlap matrix is 8.7486986472E-06.
  Using Symmetric Orthogonalization.

  SCF Guess: Superposition of Atomic Densities via on-the-fly atomic UHF.

  ==> Iterations <==

                           Total Energy        Delta E     RMS |[F,P]|

   @DF-RHF iter SAD:  -797.33304260607338   -7.97333e+02   0.00000e+00 
   @DF-RHF iter   1:  -798.03047314721562   -6.97431e-01   1.31772e-03 DIIS
   @DF-RHF iter   2:  -798.29163060897804   -2.61157e-01   7.74967e-04 DIIS
   @DF-RHF iter   3:  -798.38490022599149   -9.32696e-02   1.25500e-04 DIIS
   @DF-RHF iter   4:  -798.38888528403436   -3.98506e-03   5.03908e-05 DIIS
   @DF-RHF iter   5:  -798.38948470181128   -5.99418e-04   1.17554e-05 DIIS
   @DF-RHF iter   6:  -798.38951988648671   -3.51847e-05   3.36852e-06 DIIS
   @DF-RHF iter   7:  -798.38952366835974   -3.78187e-06   7.52559e-07 DIIS
   @DF-RHF iter   8:  -798.38952388293751   -2.14578e-07   2.16609e-07 DIIS
   @DF-RHF iter   9:  -798.38952390203701   -1.90995e-08   6.66110e-08 DIIS
   @DF-RHF iter  10:  -798.38952390411521   -2.07820e-09   1.87626e-08 DIIS
   @DF-RHF iter  11:  -798.38952390427835   -1.63141e-10   7.15941e-09 DIIS
   @DF-RHF iter  12:  -798.38952390429722   -1.88720e-11   2.49454e-09 DIIS
   @DF-RHF iter  13:  -798.38952390429142    5.79803e-12   6.36938e-10 DIIS
   @DF-RHF iter  14:  -798.38952390429404   -2.61480e-12   2.32810e-10 DIIS
   @DF-RHF iter  15:  -798.38952390429495   -9.09495e-13   8.31848e-11 DIIS
  Energy and wave function converged.


  ==> Post-Iterations <==

    Orbital Energies [Eh]
    ---------------------

    Doubly Occupied:                                                      

       1A    -80.101591     2A    -20.603854     3A    -20.590886  
       4A    -20.589403     5A    -20.508465     6A    -11.301159  
       7A    -11.300790     8A    -11.232286     9A    -11.229548  
      10A     -7.617591    11A     -5.516097    12A     -5.515693  
      13A     -5.514593    14A     -1.449190    15A     -1.380991  
      16A     -1.377582    17A     -1.289228    18A     -1.042997  
      19A     -1.034814    20A     -0.875954    21A     -0.864019  
      22A     -0.811561    23A     -0.732893    24A     -0.715781  
      25A     -0.682710    26A     -0.658287    27A     -0.650526  
      28A     -0.621254    29A     -0.604661    30A     -0.580742  
      31A     -0.565382    32A     -0.561465    33A     -0.546907  
      34A     -0.542119    35A     -0.533210    36A     -0.518199  
      37A     -0.503470    38A     -0.480349    39A     -0.478806  
      40A     -0.463429    41A     -0.458818  

    Virtual:                                                              

      42A      0.025108    43A      0.032986    44A      0.033881  
      45A      0.039756    46A      0.048618    47A      0.049662  
      48A      0.052767    49A      0.062133    50A      0.064721  
      51A      0.079344    52A      0.081403    53A      0.084975  
      54A      0.096429    55A      0.107001    56A      0.112163  
      57A      0.119755    58A      0.123428    59A      0.130703  
      60A      0.132626    61A      0.133159    62A      0.136018  
      63A      0.143247    64A      0.144135    65A      0.149108  
      66A      0.152836    67A      0.153356    68A      0.165987  
      69A      0.170038    70A      0.179976    71A      0.188901  
      72A      0.194095    73A      0.205164    74A      0.207860  
      75A      0.213202    76A      0.220860    77A      0.223586  
      78A      0.230090    79A      0.236558    80A      0.247497  
      81A      0.249149    82A      0.256191    83A      0.260269  
      84A      0.261980    85A      0.270972    86A      0.274232  
      87A      0.276173    88A      0.286577    89A      0.289935  
      90A      0.296487    91A      0.302256    92A      0.304679  
      93A      0.310201    94A      0.314031    95A      0.321600  
      96A      0.327248    97A      0.330414    98A      0.339983  
      99A      0.343682   100A      0.348742   101A      0.349814  
     102A      0.351100   103A      0.353243   104A      0.363978  
     105A      0.367660   106A      0.370548   107A      0.374347  
     108A      0.376593   109A      0.386889   110A      0.390741  
     111A      0.395014   112A      0.397539   113A      0.402973  
     114A      0.406165   115A      0.407930   116A      0.417711  
     117A      0.422253   118A      0.425365   119A      0.426051  
     120A      0.428645   121A      0.430588   122A      0.435550  
     123A      0.443631   124A      0.448199   125A      0.449878  
     126A      0.450673   127A      0.458116   128A      0.460931  
     129A      0.464230   130A      0.466249   131A      0.468854  
     132A      0.480689   133A      0.484386   134A      0.497595  
     135A      0.503134   136A      0.504454   137A      0.510505  
     138A      0.511114   139A      0.517981   140A      0.526053  
     141A      0.528434   142A      0.533796   143A      0.537143  
     144A      0.543981   145A      0.545441   146A      0.548611  
     147A      0.556582   148A      0.560792   149A      0.567823  
     150A      0.577537   151A      0.586571   152A      0.591616  
     153A      0.593302   154A      0.599137   155A      0.606416  
     156A      0.609090   157A      0.613833   158A      0.623064  
     159A      0.630911   160A      0.634398   161A      0.642091  
     162A      0.654360   163A      0.667044   164A      0.672992  
     165A      0.679636   166A      0.693101   167A      0.699483  
     168A      0.728992   169A      0.744755   170A      0.758875  
     171A      0.767160   172A      0.770788   173A      0.777969  
     174A      0.786682   175A      0.803139   176A      0.804233  
     177A      0.810039   178A      0.813328   179A      0.816968  
     180A      0.823333   181A      0.825423   182A      0.832582  
     183A      0.845124   184A      0.848611   185A      0.853161  
     186A      0.861158   187A      0.862659   188A      0.869262  
     189A      0.872158   190A      0.884224   191A      0.886726  
     192A      0.893032   193A      0.897959   194A      0.903438  
     195A      0.907371   196A      0.915573   197A      0.919292  
     198A      0.923839   199A      0.927715   200A      0.928204  
     201A      0.939741   202A      0.942688   203A      0.947525  
     204A      0.956011   205A      0.958105   206A      0.966533  
     207A      0.972308   208A      0.980595   209A      0.982962  
     210A      0.985964   211A      0.989610   212A      0.998742  
     213A      1.003356   214A      1.006474   215A      1.016621  
     216A      1.021183   217A      1.033186   218A      1.035766  
     219A      1.044289   220A      1.050329   221A      1.055776  
     222A      1.056960   223A      1.064295   224A      1.065965  
     225A      1.079915   226A      1.088732   227A      1.095180  
     228A      1.100744   229A      1.104894   230A      1.107037  
     231A      1.113134   232A      1.125463   233A      1.127013  
     234A      1.131636   235A      1.137100   236A      1.144944  
     237A      1.148163   238A      1.152140   239A      1.161656  
     240A      1.174361   241A      1.177172   242A      1.179877  
     243A      1.191572   244A      1.199062   245A      1.204683  
     246A      1.214817   247A      1.224805   248A      1.226809  
     249A      1.231272   250A      1.237304   251A      1.243148  
     252A      1.247461   253A      1.256747   254A      1.260844  
     255A      1.275884   256A      1.283062   257A      1.287772  
     258A      1.296693   259A      1.302820   260A      1.308622  
     261A      1.313808   262A      1.322142   263A      1.329848  
     264A      1.337850   265A      1.343702   266A      1.360108  
     267A      1.368003   268A      1.371674   269A      1.384238  
     270A      1.393909   271A      1.404155   272A      1.406242  
     273A      1.415258   274A      1.436400   275A      1.437970  
     276A      1.449032   277A      1.456330   278A      1.461275  
     279A      1.469282   280A      1.492142   281A      1.504943  
     282A      1.516882   283A      1.519573   284A      1.534276  
     285A      1.535291   286A      1.538894   287A      1.548404  
     288A      1.571265   289A      1.577518   290A      1.584487  
     291A      1.591509   292A      1.605384   293A      1.614501  
     294A      1.624979   295A      1.634504   296A      1.640885  
     297A      1.643573   298A      1.651153   299A      1.664900  
     300A      1.669136   301A      1.673816   302A      1.680951  
     303A      1.684543   304A      1.692654   305A      1.693925  
     306A      1.697538   307A      1.707198   308A      1.715467  
     309A      1.718678   310A      1.722614   311A      1.734677  
     312A      1.737020   313A      1.749535   314A      1.756461  
     315A      1.765468   316A      1.766679   317A      1.769370  
     318A      1.776716   319A      1.796444   320A      1.803524  
     321A      1.807398   322A      1.822593   323A      1.826772  
     324A      1.835461   325A      1.841906   326A      1.846751  
     327A      1.858484   328A      1.871788   329A      1.881753  
     330A      1.885398   331A      1.894210   332A      1.899364  
     333A      1.928470   334A      1.933461   335A      1.937768  
     336A      1.952383   337A      1.957859   338A      1.966143  
     339A      1.970630   340A      1.984956   341A      2.001424  
     342A      2.008398   343A      2.013582   344A      2.020853  
     345A      2.036521   346A      2.052529   347A      2.063541  
     348A      2.070334   349A      2.081475   350A      2.089831  
     351A      2.098529   352A      2.114607   353A      2.119878  
     354A      2.131243   355A      2.133475   356A      2.158433  
     357A      2.171244   358A      2.186636   359A      2.189541  
     360A      2.201213   361A      2.207238   362A      2.221569  
     363A      2.234674   364A      2.239013   365A      2.243735  
     366A      2.259732   367A      2.266855   368A      2.268519  
     369A      2.291464   370A      2.298002   371A      2.305250  
     372A      2.311229   373A      2.322642   374A      2.341023  
     375A      2.352661   376A      2.366773   377A      2.386580  
     378A      2.402688   379A      2.409017   380A      2.414404  
     381A      2.431811   382A      2.436706   383A      2.443359  
     384A      2.468664   385A      2.478654   386A      2.504651  
     387A      2.517703   388A      2.526174   389A      2.536854  
     390A      2.556237   391A      2.573370   392A      2.579536  
     393A      2.603436   394A      2.608517   395A      2.635594  
     396A      2.647477   397A      2.658346   398A      2.680194  
     399A      2.688553   400A      2.716923   401A      2.740955  
     402A      2.742732   403A      2.747433   404A      2.766795  
     405A      2.796992   406A      2.807468   407A      2.820187  
     408A      2.837768   409A      2.856143   410A      2.862878  
     411A      2.884085   412A      2.908844   413A      2.927849  
     414A      2.958490   415A      2.971409   416A      2.977730  
     417A      2.987606   418A      3.005275   419A      3.020620  
     420A      3.047620   421A      3.069631   422A      3.072279  
     423A      3.102183   424A      3.114953   425A      3.137176  
     426A      3.198538   427A      3.212511   428A      3.222532  
     429A      3.257317   430A      3.274945   431A      3.279228  
     432A      3.296027   433A      3.335004   434A      3.339945  
     435A      3.347743   436A      3.362650   437A      3.398776  
     438A      3.426072   439A      3.443399   440A      3.453237  
     441A      3.456591   442A      3.458085   443A      3.466913  
     444A      3.490331   445A      3.496708   446A      3.530724  
     447A      3.532882   448A      3.566910   449A      3.582270  
     450A      3.595229   451A      3.606321   452A      3.624388  
     453A      3.638452   454A      3.649919   455A      3.660017  
     456A      3.684816   457A      3.690670   458A      3.699635  
     459A      3.708963   460A      3.728634   461A      3.737161  
     462A      3.754380   463A      3.762128   464A      3.774888  
     465A      3.782022   466A      3.799865   467A      3.808419  
     468A      3.819243   469A      3.825462   470A      3.857553  
     471A      3.859707   472A      3.876201   473A      3.882915  
     474A      3.892921   475A      3.915988   476A      3.919935  
     477A      3.927911   478A      3.945740   479A      3.954481  
     480A      3.964216   481A      3.981475   482A      3.984573  
     483A      3.996083   484A      4.011003   485A      4.022730  
     486A      4.042300   487A      4.073921   488A      4.091744  
     489A      4.101481   490A      4.115618   491A      4.128740  
     492A      4.136296   493A      4.142613   494A      4.156025  
     495A      4.188925   496A      4.200928   497A      4.202004  
     498A      4.227705   499A      4.235760   500A      4.238640  
     501A      4.258235   502A      4.269035   503A      4.283087  
     504A      4.308638   505A      4.315842   506A      4.326461  
     507A      4.353839   508A      4.369198   509A      4.376033  
     510A      4.403790   511A      4.418910   512A      4.456085  
     513A      4.457730   514A      4.475586   515A      4.500010  
     516A      4.508462   517A      4.525524   518A      4.549021  
     519A      4.562589   520A      4.582581   521A      4.589231  
     522A      4.600643   523A      4.619438   524A      4.630233  
     525A      4.640251   526A      4.666509   527A      4.672483  
     528A      4.689148   529A      4.711432   530A      4.749359  
     531A      4.792087   532A      4.809442   533A      4.814946  
     534A      4.835656   535A      4.842915   536A      4.843578  
     537A      4.850845   538A      4.859278   539A      4.862414  
     540A      4.892260   541A      4.912578   542A      4.934851  
     543A      4.953513   544A      4.960204   545A      4.980436  
     546A      4.990066   547A      5.011443   548A      5.028953  
     549A      5.050945   550A      5.061932   551A      5.078729  
     552A      5.083838   553A      5.108541   554A      5.110015  
     555A      5.138041   556A      5.150955   557A      5.169114  
     558A      5.181496   559A      5.193358   560A      5.210084  
     561A      5.229535   562A      5.240903   563A      5.244839  
     564A      5.336921   565A      5.341632   566A      5.352270  
     567A      5.363109   568A      5.378192   569A      5.386071  
     570A      5.393639   571A      5.404245   572A      5.430852  
     573A      5.436804   574A      5.455505   575A      5.502320  
     576A      5.511474   577A      5.515773   578A      5.541480  
     579A      5.567631   580A      5.576921   581A      5.599864  
     582A      5.616577   583A      5.639591   584A      5.744525  
     585A      5.749890   586A      5.759551   587A      5.773248  
     588A      5.785963   589A      5.789134   590A      5.798864  
     591A      5.840963   592A      5.943455   593A      5.985518  
     594A      5.997556   595A      6.012160   596A      6.022171  
     597A      6.055989   598A      6.119574   599A      6.150552  
     600A      6.169144   601A      6.201344   602A      6.214767  
     603A      6.226525   604A      6.334432   605A      6.357161  
     606A      6.400620   607A      6.473556   608A      6.498816  
     609A      6.720909   610A      6.724327   611A      6.738475  
     612A      6.756500   613A      6.779441   614A      6.791607  
     615A      6.803542   616A      6.826736   617A      6.835016  
     618A      6.849971   619A      6.872412   620A      6.883839  
     621A      6.891014   622A      6.921793   623A      6.938652  
     624A      6.943891   625A      6.969600   626A      6.983635  
     627A      7.010924   628A      7.042520   629A      7.072422  
     630A      7.127913   631A      7.140369   632A      7.156206  
     633A      7.186186   634A      7.205992   635A      7.257248  
     636A      7.270587   637A      7.295744   638A      7.312506  
     639A      7.338511   640A      7.357476   641A      7.382801  
     642A      7.405744   643A      7.424374   644A      7.448711  
     645A      7.468193   646A      7.501526   647A      7.523790  
     648A      7.554937   649A      7.578418   650A      7.658569  
     651A      7.661873   652A      7.725933   653A      7.821775  
     654A      7.857672   655A      7.868662   656A      7.876451  
     657A      7.969962   658A      8.083668   659A      8.124405  
     660A      8.186046   661A      8.268103   662A      8.386617  
     663A     11.412101   664A     13.225867   665A     14.993970  
     666A     15.012478   667A     15.757309   668A     17.774912  
     669A     17.896923   670A     18.502689   671A     18.561935  

    Final Occupation by Irrep:
              A 
    DOCC [    41 ]

  @DF-RHF Final Energy:  -798.38952390429495

   => Energetics <=

    Nuclear Repulsion Energy =            628.7629208504118878
    One-Electron Energy =               -2349.0102895958275440
    Two-Electron Energy =                 921.8578448411208228
    Total Energy =                       -798.3895239042949470

Computation Completed

*** tstop() called on node57.bme.utexas.edu at Tue Nov  3 08:23:02 2020
Module time:
	user time   =     319.02 seconds =       5.32 minutes
	system time =      36.29 seconds =       0.60 minutes
	total time  =        104 seconds =       1.73 minutes
Total time:
	user time   =     319.02 seconds =       5.32 minutes
	system time =      36.29 seconds =       0.60 minutes
	total time  =        104 seconds =       1.73 minutes
   => Loading Basis Set <=

    Name: (AUG-CC-PVTZ AUX)
    Role: RIFIT
    Keyword: DF_BASIS_MP2
    atoms 1     entry P          line   590 file /home/xy3866/psi4conda/share/psi4/basis/aug-cc-pvtz-ri.gbs 
    atoms 2-5   entry O          line   264 file /home/xy3866/psi4conda/share/psi4/basis/aug-cc-pvtz-ri.gbs 
    atoms 6-9   entry C          line   148 file /home/xy3866/psi4conda/share/psi4/basis/aug-cc-pvtz-ri.gbs 
    atoms 10-20 entry H          line    30 file /home/xy3866/psi4conda/share/psi4/basis/aug-cc-pvtz-ri.gbs 


*** tstart() called on node57.bme.utexas.edu
*** at Tue Nov  3 08:23:02 2020


  //>>>>>>>>>>>>>>>>>>>>>>>>>>>>>>>>>>>//
  //               DFMP2               //
  //<<<<<<<<<<<<<<<<<<<<<<<<<<<<<<<<<<<//

	 --------------------------------------------------------
	                          DF-MP2                         
	      2nd-Order Density-Fitted Moller-Plesset Theory     
	              RMP2 Wavefunction,   8 Threads             
	                                                         
	        Rob Parrish, Justin Turney, Andy Simmonett,      
	           Ed Hohenstein, and C. David Sherrill          
	 --------------------------------------------------------

   => Auxiliary Basis Set <=

  Basis Set: (AUG-CC-PVTZ AUX)
    Blend: AUG-CC-PVTZ-RI
    Number of shells: 415
    Number of basis function: 1501
    Number of Cartesian functions: 1884
    Spherical Harmonics?: true
    Max angular momentum: 4

	 --------------------------------------------------------
	                 NBF =   671, NAUX =  1501
	 --------------------------------------------------------
	   CLASS    FOCC     OCC    AOCC    AVIR     VIR    FVIR
	   PAIRS       0      41      41     630     630       0
	 --------------------------------------------------------

  DFHelper Memory: AOs need 4.756 GiB; user supplied 22.352 GiB. Using in-core AOs.


         ------------------------------------------------------------
                                     CPHF                           
                                  Rob Parrish                       
         ------------------------------------------------------------

  ==> Geometry <==

    Molecular point group: c1
    Full point group: C1

    Geometry (in Angstrom), charge = 0, multiplicity = 1:

       Center              X                  Y                   Z               Mass       
    ------------   -----------------  -----------------  -----------------  -----------------
         P           -0.002896975998    -0.866765242352     0.121583787894    30.973761998420
         O           -1.186406975998     0.120865757648     0.557803787894    15.994914619570
         O            1.102022024002     0.078896357648    -0.531913912106    15.994914619570
         O           -0.606301975998    -1.580489242352    -1.196128212106    15.994914619570
         O            0.467438024002    -1.762143242352     1.201772787894    15.994914619570
         C           -1.790419975998     0.993340757648    -0.436197212106    12.000000000000
         C            1.959652024002     0.823176757648     0.379043787894    12.000000000000
         C           -2.806463975998     1.839708757648     0.290986787894    12.000000000000
         C            2.899279824002     1.689277957648    -0.428688612106    12.000000000000
         H           -1.004189975998     1.600273757648    -0.898723212106     1.007825032230
         H           -2.258031975998     0.371156757648    -1.206396212106     1.007825032230
         H            1.323859024002     1.432615757648     1.030340787894     1.007825032230
         H            2.505711024002     0.104365757648     0.993618787894     1.007825032230
         H           -3.299769975998     2.516967757648    -0.413273212106     1.007825032230
         H           -3.565066975998     1.207451757648     0.759253787894     1.007825032230
         H           -2.319446975998     2.433772757648     1.071119787894     1.007825032230
         H            3.555879024002     2.252503757648     0.202476787894     1.007825032230
         H            3.495077024002     1.053829757648    -1.111000212106     1.007825032230
         H            2.316789024002     2.377599757648    -1.066317212106     1.007825032230
         H           -0.238812975998    -2.480374242352    -1.278134212106     1.007825032230

  Nuclear repulsion =  628.762920850411888
  Reference energy  = -798.389523904294947

  ==> Basis Set <==

  Basis Set: AUG-CC-PVTZ
    Blend: AUG-CC-PVTZ
    Number of shells: 227
    Number of basis function: 671
    Number of Cartesian functions: 774
    Spherical Harmonics?: true
    Max angular momentum: 3

  ==> CGRSolver (by Rob Parrish) <==

   Number of roots    =         1
   Preconditioning    =    JACOBI
   Convergence cutoff =     1E-06
   Maximum iterations =       100

  ==> CPHFRHamiltonian (by Rob Parrish) <== 

  ==> MemDFJK: Density-Fitted J/K Matrices <==

    J tasked:                   Yes
    K tasked:                   Yes
    wK tasked:                   No
    OpenMP threads:               8
    Memory [MiB]:             22888
    Algorithm:                 Disk
    Schwarz Cutoff:           1E-12
    Mask sparsity (%):       7.1602
    Fitting Condition:        1E-10

   => Auxiliary Basis Set <=

  Basis Set: (AUG-CC-PVTZ AUX)
    Blend: AUG-CC-PVTZ-JKFIT
    Number of shells: 436
    Number of basis function: 1484
    Number of Cartesian functions: 1833
    Spherical Harmonics?: true
    Max angular momentum: 4

  ==> CPHF Iterations <==

  => Iterations <=

             Iter  Converged  Remaining    Residual
  CGR           1          0          1   7.592E-02
  CGR           2          0          1   1.924E-02
  CGR           3          0          1   7.100E-03
  CGR           4          0          1   2.199E-03
  CGR           5          0          1   7.918E-04
  CGR           6          0          1   2.105E-04
  CGR           7          0          1   7.393E-05
  CGR           8          0          1   2.524E-05
  CGR           9          0          1   7.458E-06
  CGR          10          0          1   2.825E-06
  CGR          11          1          0   7.307E-07

    CGRSolver converged.

	-----------------------------------------------------------
	 ==================> DF-MP2 Energies <==================== 
	-----------------------------------------------------------
	 Reference Energy          =    -798.3895239042949470 [Eh]
	 Singles Energy            =      -0.0000000000000000 [Eh]
	 Same-Spin Energy          =      -0.4893132368429581 [Eh]
	 Opposite-Spin Energy      =      -1.5369572712334243 [Eh]
	 Correlation Energy        =      -2.0262705080763825 [Eh]
	 Total Energy              =    -800.4157944123713833 [Eh]
	-----------------------------------------------------------
	 ================> DF-SCS-MP2 Energies <================== 
	-----------------------------------------------------------
	 SCS Same-Spin Scale       =       0.3333333333333333 [-]
	 SCS Opposite-Spin Scale   =       1.2000000000000000 [-]
	 SCS Same-Spin Energy      =      -0.1631044122809860 [Eh]
	 SCS Opposite-Spin Energy  =      -1.8443487254801090 [Eh]
	 SCS Correlation Energy    =      -2.0074531377610949 [Eh]
	 SCS Total Energy          =    -800.3969770420560508 [Eh]
	-----------------------------------------------------------



Properties will be evaluated at   0.000000,   0.000000,   0.000000 [a0]

Properties computed using the MP2 density matrix

  Nuclear Dipole Moment: [e a0]
     X:     0.4816      Y:    12.8478      Z:    -1.9089

  Electronic Dipole Moment: [e a0]
     X:    -0.4624      Y:   -11.7724      Z:     1.0201

  Dipole Moment: [e a0]
     X:     0.0192      Y:     1.0754      Z:    -0.8887     Total:     1.3952

  Dipole Moment: [D]
     X:     0.0487      Y:     2.7334      Z:    -2.2589     Total:     3.5464


*** tstop() called on node57.bme.utexas.edu at Tue Nov  3 08:26:04 2020
Module time:
	user time   =    1072.30 seconds =      17.87 minutes
	system time =      44.89 seconds =       0.75 minutes
	total time  =        182 seconds =       3.03 minutes
Total time:
	user time   =    1392.63 seconds =      23.21 minutes
	system time =      81.23 seconds =       1.35 minutes
	total time  =        286 seconds =       4.77 minutes

    Psi4 stopped on: Tuesday, 03 November 2020 08:26AM
    Psi4 wall time for execution: 0:04:46.92

*** Psi4 exiting successfully. Buy a developer a beer!
