
    -----------------------------------------------------------------------
          Psi4: An Open-Source Ab Initio Electronic Structure Package
                               Psi4 1.4a3.dev225 

                         Git: Rev {master} 7105e37 


    D. G. A. Smith, L. A. Burns, A. C. Simmonett, R. M. Parrish,
    M. C. Schieber, R. Galvelis, P. Kraus, H. Kruse, R. Di Remigio,
    A. Alenaizan, A. M. James, S. Lehtola, J. P. Misiewicz, M. Scheurer,
    R. A. Shaw, J. B. Schriber, Y. Xie, Z. L. Glick, D. A. Sirianni,
    J. S. O'Brien, J. M. Waldrop, A. Kumar, E. G. Hohenstein,
    B. P. Pritchard, B. R. Brooks, H. F. Schaefer III, A. Yu. Sokolov,
    K. Patkowski, A. E. DePrince III, U. Bozkaya, R. A. King,
    F. A. Evangelista, J. M. Turney, T. D. Crawford, C. D. Sherrill,
    J. Chem. Phys. 152(18) 184108 (2020). https://doi.org/10.1063/5.0006002

                            Additional Code Authors
    E. T. Seidl, C. L. Janssen, E. F. Valeev, M. L. Leininger,
    J. F. Gonthier, R. M. Richard, H. R. McAlexander, M. Saitow, X. Wang,
    P. Verma, and M. H. Lechner

             Previous Authors, Complete List of Code Contributors,
                       and Citations for Specific Modules
    https://github.com/psi4/psi4/blob/master/codemeta.json
    https://github.com/psi4/psi4/graphs/contributors
    http://psicode.org/psi4manual/master/introduction.html#citing-psifour

    -----------------------------------------------------------------------


    Psi4 started on: Saturday, 20 March 2021 01:52AM

    Process ID: 25864
    Host:       c445-091.stampede2.tacc.utexas.edu
    PSIDATADIR: /home1/07844/xy3866/miniconda3/envs/p4env/share/psi4
    Memory:     500.0 MiB
    Threads:    32
    
  ==> Input File <==

--------------------------------------------------------------------------
#psi4
#
memory 32 gb

molecule  {
0 1
  P       -0.0193980    -0.9573280    -0.1096150
  O        1.2162340    -0.0269160    -0.5415020
  O       -1.1156210     0.0613730     0.5053800
  O        0.5163150    -1.6599550     1.2462920
  O       -0.4960840    -1.8598830    -1.1802340
  C        1.8166751     0.8095490     0.4123213
  C       -1.9139900     0.7949960    -0.4653280
  C        2.8342980     1.7043970    -0.2898420
  C       -2.8451070     1.6924310     0.3153960
  H        1.0624120     1.4376840     0.9337170
  H        2.3223620     0.2121780     1.1993520
  H       -1.2444800     1.3745780    -1.1102950
  H       -2.4582310     0.0769500    -1.0841060
  H        3.3419030     2.3695990     0.4147870
  H        3.5818500     1.0824000    -0.7858930
  H        2.3288000     2.3113610    -1.0437700
  H       -3.4753290     2.2644580    -0.3716610
  H       -3.4879190     1.0956960     0.9656320
  H       -2.2756200     2.3909680     0.9321420
  H        0.1488640    -2.5599310     1.3156750
units angstrom
no_reorient  #important for SAPT in psi4, default
symmetry c1  #important for SAPT in psi4, default
}

set PROPERTIES_ORIGIN ["COM"]
properties('MP2/aug-cc-pvtz', properties = ['dipole'])
--------------------------------------------------------------------------

  Memory set to  29.802 GiB by Python driver.
    SCF Algorithm Type (re)set to DF.

*** tstart() called on c445-091.stampede2.tacc.utexas.edu
*** at Sat Mar 20 01:53:01 2021

   => Loading Basis Set <=

    Name: AUG-CC-PVTZ
    Role: ORBITAL
    Keyword: BASIS
    atoms 1     entry P          line   824 file /home1/07844/xy3866/miniconda3/envs/p4env/share/psi4/basis/aug-cc-pvtz.gbs 
    atoms 2-5   entry O          line   331 file /home1/07844/xy3866/miniconda3/envs/p4env/share/psi4/basis/aug-cc-pvtz.gbs 
    atoms 6-9   entry C          line   239 file /home1/07844/xy3866/miniconda3/envs/p4env/share/psi4/basis/aug-cc-pvtz.gbs 
    atoms 10-20 entry H          line    40 file /home1/07844/xy3866/miniconda3/envs/p4env/share/psi4/basis/aug-cc-pvtz.gbs 


         ---------------------------------------------------------
                                   SCF
               by Justin Turney, Rob Parrish, Andy Simmonett
                          and Daniel G. A. Smith
                              RHF Reference
                       32 Threads,  30517 MiB Core
         ---------------------------------------------------------

  ==> Geometry <==

    Molecular point group: c1
    Full point group: C1

    Geometry (in Angstrom), charge = 0, multiplicity = 1:

       Center              X                  Y                   Z               Mass       
    ------------   -----------------  -----------------  -----------------  -----------------
         P           -0.018605798699    -0.871417137076    -0.097478295450    30.973761998420
         O            1.217026201301     0.058994862924    -0.529365295450    15.994914619570
         O           -1.114828798699     0.147283862924     0.517516704550    15.994914619570
         O            0.517107201301    -1.574044137076     1.258428704550    15.994914619570
         O           -0.495291798699    -1.773972137076    -1.168097295450    15.994914619570
         C            1.817467301301     0.895459862924     0.424458004550    12.000000000000
         C           -1.913197798699     0.880906862924    -0.453191295450    12.000000000000
         C            2.835090201301     1.790307862924    -0.277705295450    12.000000000000
         C           -2.844314798699     1.778341862924     0.327532704550    12.000000000000
         H            1.063204201301     1.523594862924     0.945853704550     1.007825032230
         H            2.323154201301     0.298088862924     1.211488704550     1.007825032230
         H           -1.243687798699     1.460488862924    -1.098158295450     1.007825032230
         H           -2.457438798699     0.162860862924    -1.071969295450     1.007825032230
         H            3.342695201301     2.455509862924     0.426923704550     1.007825032230
         H            3.582642201301     1.168310862924    -0.773756295450     1.007825032230
         H            2.329592201301     2.397271862924    -1.031633295450     1.007825032230
         H           -3.474536798699     2.350368862924    -0.359524295450     1.007825032230
         H           -3.487126798699     1.181606862924     0.977768704550     1.007825032230
         H           -2.274827798699     2.476878862924     0.944278704550     1.007825032230
         H            0.149656201301    -2.474020137076     1.327811704550     1.007825032230

  Running in c1 symmetry.

  Rotational constants: A =      0.05271  B =      0.03543  C =      0.02598 [cm^-1]
  Rotational constants: A =   1580.08356  B =   1062.10446  C =    778.84717 [MHz]
  Nuclear repulsion =  628.585156156731500

  Charge       = 0
  Multiplicity = 1
  Electrons    = 82
  Nalpha       = 41
  Nbeta        = 41

  ==> Algorithm <==

  SCF Algorithm Type is DF.
  DIIS enabled.
  MOM disabled.
  Fractional occupation disabled.
  Guess Type is SAD.
  Energy threshold   = 1.00e-10
  Density threshold  = 1.00e-10
  Integral threshold = 1.00e-12

  ==> Primary Basis <==

  Basis Set: AUG-CC-PVTZ
    Blend: AUG-CC-PVTZ
    Number of shells: 227
    Number of basis functions: 671
    Number of Cartesian functions: 774
    Spherical Harmonics?: true
    Max angular momentum: 3

   => Loading Basis Set <=

    Name: (AUG-CC-PVTZ AUX)
    Role: JKFIT
    Keyword: DF_BASIS_SCF
    atoms 1     entry P          line   644 file /home1/07844/xy3866/miniconda3/envs/p4env/share/psi4/basis/aug-cc-pvtz-jkfit.gbs 
    atoms 2-5   entry O          line   286 file /home1/07844/xy3866/miniconda3/envs/p4env/share/psi4/basis/aug-cc-pvtz-jkfit.gbs 
    atoms 6-9   entry C          line   162 file /home1/07844/xy3866/miniconda3/envs/p4env/share/psi4/basis/aug-cc-pvtz-jkfit.gbs 
    atoms 10-20 entry H          line    70 file /home1/07844/xy3866/miniconda3/envs/p4env/share/psi4/basis/aug-cc-pvtz-jkfit.gbs 

  ==> Integral Setup <==

  DFHelper Memory: AOs need 4.628 GiB; user supplied 22.352 GiB. Using in-core AOs.

  ==> MemDFJK: Density-Fitted J/K Matrices <==

    J tasked:                   Yes
    K tasked:                   Yes
    wK tasked:                   No
    OpenMP threads:              32
    Memory [MiB]:             22888
    Algorithm:                 Core
    Schwarz Cutoff:           1E-12
    Mask sparsity (%):      11.3437
    Fitting Condition:        1E-10

   => Auxiliary Basis Set <=

  Basis Set: (AUG-CC-PVTZ AUX)
    Blend: AUG-CC-PVTZ-JKFIT
    Number of shells: 436
    Number of basis functions: 1484
    Number of Cartesian functions: 1833
    Spherical Harmonics?: true
    Max angular momentum: 4

  Minimum eigenvalue in the overlap matrix is 8.3475741623E-06.
  Reciprocal condition number of the overlap matrix is 4.6251222773E-07.
    Using symmetric orthogonalization.

  ==> Pre-Iterations <==

  SCF Guess: Superposition of Atomic Densities via on-the-fly atomic UHF (no occupation information).

   -------------------------
    Irrep   Nso     Nmo    
   -------------------------
     A        671     671 
   -------------------------
    Total     671     671
   -------------------------

  ==> Iterations <==

                           Total Energy        Delta E     RMS |[F,P]|

   @DF-RHF iter SAD:  -797.34314455948220   -7.97343e+02   0.00000e+00 
   @DF-RHF iter   1:  -798.02593562240543   -6.82791e-01   1.32141e-03 DIIS
   @DF-RHF iter   2:  -798.28763466549060   -2.61699e-01   7.80926e-04 DIIS
   @DF-RHF iter   3:  -798.38271316159307   -9.50785e-02   1.25258e-04 DIIS
   @DF-RHF iter   4:  -798.38670733992444   -3.99418e-03   5.02714e-05 DIIS
   @DF-RHF iter   5:  -798.38730800582641   -6.00666e-04   1.19046e-05 DIIS
   @DF-RHF iter   6:  -798.38734421841139   -3.62126e-05   3.43618e-06 DIIS
   @DF-RHF iter   7:  -798.38734820217815   -3.98377e-06   7.92172e-07 DIIS
   @DF-RHF iter   8:  -798.38734844089424   -2.38716e-07   2.38940e-07 DIIS
   @DF-RHF iter   9:  -798.38734846342959   -2.25353e-08   7.96670e-08 DIIS
   @DF-RHF iter  10:  -798.38734846608827   -2.65868e-09   2.77959e-08 DIIS
   @DF-RHF iter  11:  -798.38734846636225   -2.73985e-10   9.67557e-09 DIIS
   @DF-RHF iter  12:  -798.38734846639602   -3.37650e-11   2.69055e-09 DIIS
   @DF-RHF iter  13:  -798.38734846640034   -4.32010e-12   7.45696e-10 DIIS
   @DF-RHF iter  14:  -798.38734846640216   -1.81899e-12   2.67662e-10 DIIS
   @DF-RHF iter  15:  -798.38734846640114    1.02318e-12   9.57725e-11 DIIS
  Energy and wave function converged.


  ==> Post-Iterations <==

    Orbital Energies [Eh]
    ---------------------

    Doubly Occupied:                                                      

       1A    -80.108702     2A    -20.606873     3A    -20.596906  
       4A    -20.592341     5A    -20.514223     6A    -11.300106  
       7A    -11.299463     8A    -11.230397     9A    -11.227768  
      10A     -7.624148    11A     -5.522658    12A     -5.522161  
      13A     -5.521167    14A     -1.453401    15A     -1.390322  
      16A     -1.380020    17A     -1.294993    18A     -1.040256  
      19A     -1.029964    20A     -0.876003    21A     -0.864166  
      22A     -0.815006    23A     -0.732295    24A     -0.722303  
      25A     -0.684872    26A     -0.656163    27A     -0.653821  
      28A     -0.620141    29A     -0.614908    30A     -0.577334  
      31A     -0.566205    32A     -0.564834    33A     -0.546882  
      34A     -0.540397    35A     -0.536212    36A     -0.515954  
      37A     -0.498417    38A     -0.480666    39A     -0.472918  
      40A     -0.467641    41A     -0.462861  

    Virtual:                                                              

      42A      0.025599    43A      0.032917    44A      0.034214  
      45A      0.039898    46A      0.048653    47A      0.049904  
      48A      0.052911    49A      0.062198    50A      0.064758  
      51A      0.079961    52A      0.080875    53A      0.084750  
      54A      0.095835    55A      0.106548    56A      0.112230  
      57A      0.119713    58A      0.123602    59A      0.130762  
      60A      0.133184    61A      0.133305    62A      0.136952  
      63A      0.143193    64A      0.144400    65A      0.148828  
      66A      0.152272    67A      0.154245    68A      0.166013  
      69A      0.169658    70A      0.181418    71A      0.188609  
      72A      0.193682    73A      0.205370    74A      0.208479  
      75A      0.214305    76A      0.219575    77A      0.223222  
      78A      0.230361    79A      0.238760    80A      0.247172  
      81A      0.251140    82A      0.253122    83A      0.260421  
      84A      0.262715    85A      0.271664    86A      0.273724  
      87A      0.275075    88A      0.285127    89A      0.289469  
      90A      0.295467    91A      0.302379    92A      0.303919  
      93A      0.312003    94A      0.314210    95A      0.320997  
      96A      0.327036    97A      0.328769    98A      0.339858  
      99A      0.343804   100A      0.347266   101A      0.349888  
     102A      0.350292   103A      0.352862   104A      0.363581  
     105A      0.366879   106A      0.367810   107A      0.374870  
     108A      0.375445   109A      0.386520   110A      0.389710  
     111A      0.391468   112A      0.397347   113A      0.402870  
     114A      0.405981   115A      0.409694   116A      0.417372  
     117A      0.423543   118A      0.425572   119A      0.425989  
     120A      0.428552   121A      0.430750   122A      0.434981  
     123A      0.444065   124A      0.448931   125A      0.449854  
     126A      0.450898   127A      0.458520   128A      0.462093  
     129A      0.462865   130A      0.465325   131A      0.470428  
     132A      0.483067   133A      0.487023   134A      0.498328  
     135A      0.501195   136A      0.505811   137A      0.509221  
     138A      0.510558   139A      0.516485   140A      0.525203  
     141A      0.529224   142A      0.532693   143A      0.536466  
     144A      0.542342   145A      0.545096   146A      0.547432  
     147A      0.559307   148A      0.559479   149A      0.565640  
     150A      0.577759   151A      0.585387   152A      0.590858  
     153A      0.596051   154A      0.596604   155A      0.606210  
     156A      0.609175   157A      0.615702   158A      0.622294  
     159A      0.629333   160A      0.633067   161A      0.638712  
     162A      0.653017   163A      0.665827   164A      0.674470  
     165A      0.681184   166A      0.690721   167A      0.703078  
     168A      0.726769   169A      0.744975   170A      0.757625  
     171A      0.765286   172A      0.771003   173A      0.778167  
     174A      0.786488   175A      0.800219   176A      0.805853  
     177A      0.811287   178A      0.813933   179A      0.818094  
     180A      0.820850   181A      0.825727   182A      0.830847  
     183A      0.847001   184A      0.847908   185A      0.852279  
     186A      0.857872   187A      0.860732   188A      0.870700  
     189A      0.874104   190A      0.884783   191A      0.890167  
     192A      0.892628   193A      0.901093   194A      0.903486  
     195A      0.909435   196A      0.918021   197A      0.919647  
     198A      0.925287   199A      0.926545   200A      0.932441  
     201A      0.940344   202A      0.942697   203A      0.947093  
     204A      0.951978   205A      0.956740   206A      0.964351  
     207A      0.971130   208A      0.976835   209A      0.985295  
     210A      0.987408   211A      0.994271   212A      0.996747  
     213A      1.003276   214A      1.007962   215A      1.017645  
     216A      1.023246   217A      1.032977   218A      1.036723  
     219A      1.041843   220A      1.048878   221A      1.054829  
     222A      1.058751   223A      1.063128   224A      1.068877  
     225A      1.079365   226A      1.088786   227A      1.094214  
     228A      1.096232   229A      1.103773   230A      1.107616  
     231A      1.112785   232A      1.124099   233A      1.127466  
     234A      1.132562   235A      1.136943   236A      1.145587  
     237A      1.147426   238A      1.151460   239A      1.161070  
     240A      1.172765   241A      1.175006   242A      1.182084  
     243A      1.189843   244A      1.199254   245A      1.204833  
     246A      1.214848   247A      1.222878   248A      1.228867  
     249A      1.229890   250A      1.234665   251A      1.244953  
     252A      1.246918   253A      1.260550   254A      1.262578  
     255A      1.275554   256A      1.282831   257A      1.284887  
     258A      1.295042   259A      1.300984   260A      1.307962  
     261A      1.313485   262A      1.320448   263A      1.324461  
     264A      1.338468   265A      1.342987   266A      1.357870  
     267A      1.366450   268A      1.372971   269A      1.384836  
     270A      1.390380   271A      1.399583   272A      1.409186  
     273A      1.416681   274A      1.433085   275A      1.443099  
     276A      1.447312   277A      1.456429   278A      1.460631  
     279A      1.472704   280A      1.494982   281A      1.503594  
     282A      1.509531   283A      1.517490   284A      1.527028  
     285A      1.531487   286A      1.541040   287A      1.545031  
     288A      1.569026   289A      1.576211   290A      1.582962  
     291A      1.589766   292A      1.602589   293A      1.610538  
     294A      1.627636   295A      1.629264   296A      1.633046  
     297A      1.643980   298A      1.651808   299A      1.663915  
     300A      1.665633   301A      1.672341   302A      1.681423  
     303A      1.682054   304A      1.694134   305A      1.695448  
     306A      1.700817   307A      1.704339   308A      1.713464  
     309A      1.716199   310A      1.723628   311A      1.731227  
     312A      1.737112   313A      1.749871   314A      1.754210  
     315A      1.761909   316A      1.767826   317A      1.772149  
     318A      1.776950   319A      1.799730   320A      1.803822  
     321A      1.806746   322A      1.818986   323A      1.827199  
     324A      1.834319   325A      1.838123   326A      1.846481  
     327A      1.860028   328A      1.872613   329A      1.884758  
     330A      1.885852   331A      1.894139   332A      1.901289  
     333A      1.927971   334A      1.931228   335A      1.944759  
     336A      1.954321   337A      1.959811   338A      1.966765  
     339A      1.972147   340A      1.979247   341A      1.999976  
     342A      2.005761   343A      2.011882   344A      2.015167  
     345A      2.034067   346A      2.048609   347A      2.060002  
     348A      2.066093   349A      2.074403   350A      2.087571  
     351A      2.099640   352A      2.112848   353A      2.122656  
     354A      2.129784   355A      2.137124   356A      2.163514  
     357A      2.172089   358A      2.181840   359A      2.190051  
     360A      2.201998   361A      2.209693   362A      2.223670  
     363A      2.236920   364A      2.238515   365A      2.242316  
     366A      2.258337   367A      2.265319   368A      2.272736  
     369A      2.286969   370A      2.299700   371A      2.304483  
     372A      2.312731   373A      2.328260   374A      2.343191  
     375A      2.348445   376A      2.359788   377A      2.385658  
     378A      2.388175   379A      2.407091   380A      2.412809  
     381A      2.433145   382A      2.438505   383A      2.446590  
     384A      2.466875   385A      2.475535   386A      2.501029  
     387A      2.516196   388A      2.523513   389A      2.535491  
     390A      2.548836   391A      2.572726   392A      2.581814  
     393A      2.601190   394A      2.609106   395A      2.637244  
     396A      2.651018   397A      2.663679   398A      2.681010  
     399A      2.693548   400A      2.715300   401A      2.730277  
     402A      2.743593   403A      2.748795   404A      2.761828  
     405A      2.795234   406A      2.800824   407A      2.813577  
     408A      2.836466   409A      2.848577   410A      2.860577  
     411A      2.882777   412A      2.903897   413A      2.931439  
     414A      2.956982   415A      2.963394   416A      2.971237  
     417A      2.988984   418A      3.000934   419A      3.021341  
     420A      3.042813   421A      3.063875   422A      3.076777  
     423A      3.100665   424A      3.118580   425A      3.157342  
     426A      3.193159   427A      3.209081   428A      3.216605  
     429A      3.260517   430A      3.266991   431A      3.270717  
     432A      3.286357   433A      3.326557   434A      3.333959  
     435A      3.340898   436A      3.363780   437A      3.395129  
     438A      3.421949   439A      3.441339   440A      3.448489  
     441A      3.459127   442A      3.460284   443A      3.475668  
     444A      3.489865   445A      3.494942   446A      3.524315  
     447A      3.537209   448A      3.567089   449A      3.574109  
     450A      3.592497   451A      3.610550   452A      3.626668  
     453A      3.638274   454A      3.651618   455A      3.662241  
     456A      3.685903   457A      3.695145   458A      3.700902  
     459A      3.705894   460A      3.731086   461A      3.737809  
     462A      3.746234   463A      3.754471   464A      3.779069  
     465A      3.782168   466A      3.794942   467A      3.807773  
     468A      3.813252   469A      3.826981   470A      3.850258  
     471A      3.857802   472A      3.871622   473A      3.880138  
     474A      3.896904   475A      3.914318   476A      3.920013  
     477A      3.924394   478A      3.954830   479A      3.958286  
     480A      3.964296   481A      3.976891   482A      3.985994  
     483A      3.994832   484A      4.010669   485A      4.024935  
     486A      4.035238   487A      4.068088   488A      4.097658  
     489A      4.106434   490A      4.118309   491A      4.132396  
     492A      4.139186   493A      4.145766   494A      4.162247  
     495A      4.190342   496A      4.193084   497A      4.216137  
     498A      4.228998   499A      4.236967   500A      4.248243  
     501A      4.259518   502A      4.262037   503A      4.282866  
     504A      4.308323   505A      4.313812   506A      4.330521  
     507A      4.349443   508A      4.367985   509A      4.377600  
     510A      4.397877   511A      4.422364   512A      4.451238  
     513A      4.461386   514A      4.480923   515A      4.506681  
     516A      4.514008   517A      4.530429   518A      4.552738  
     519A      4.561008   520A      4.576069   521A      4.591048  
     522A      4.601313   523A      4.615136   524A      4.630602  
     525A      4.636864   526A      4.651692   527A      4.673265  
     528A      4.701081   529A      4.713112   530A      4.745682  
     531A      4.795515   532A      4.813645   533A      4.819222  
     534A      4.837803   535A      4.841510   536A      4.844286  
     537A      4.851973   538A      4.856364   539A      4.866601  
     540A      4.889861   541A      4.911299   542A      4.938037  
     543A      4.953339   544A      4.956842   545A      4.970455  
     546A      4.990125   547A      5.006487   548A      5.018587  
     549A      5.038645   550A      5.058708   551A      5.066128  
     552A      5.078261   553A      5.096320   554A      5.114947  
     555A      5.131256   556A      5.159553   557A      5.174131  
     558A      5.183196   559A      5.197123   560A      5.210272  
     561A      5.223587   562A      5.239788   563A      5.248764  
     564A      5.330597   565A      5.339449   566A      5.342504  
     567A      5.363383   568A      5.383207   569A      5.383816  
     570A      5.396712   571A      5.402387   572A      5.413537  
     573A      5.429744   574A      5.460601   575A      5.481121  
     576A      5.502810   577A      5.517999   578A      5.537552  
     579A      5.554599   580A      5.578247   581A      5.586951  
     582A      5.615897   583A      5.632907   584A      5.728316  
     585A      5.744176   586A      5.751685   587A      5.766756  
     588A      5.773876   589A      5.801815   590A      5.807966  
     591A      5.837636   592A      5.945240   593A      5.986144  
     594A      5.999558   595A      6.011620   596A      6.020545  
     597A      6.053934   598A      6.126358   599A      6.146828  
     600A      6.158988   601A      6.172590   602A      6.211063  
     603A      6.226474   604A      6.315693   605A      6.343205  
     606A      6.422982   607A      6.480922   608A      6.500674  
     609A      6.717490   610A      6.721843   611A      6.733996  
     612A      6.759540   613A      6.778229   614A      6.791444  
     615A      6.805971   616A      6.827508   617A      6.831923  
     618A      6.846639   619A      6.872235   620A      6.883699  
     621A      6.893575   622A      6.919914   623A      6.938072  
     624A      6.945077   625A      6.973666   626A      6.980728  
     627A      7.006673   628A      7.039266   629A      7.074821  
     630A      7.136908   631A      7.146804   632A      7.158589  
     633A      7.187405   634A      7.212267   635A      7.256745  
     636A      7.272923   637A      7.301621   638A      7.310771  
     639A      7.333147   640A      7.356112   641A      7.382739  
     642A      7.417065   643A      7.418817   644A      7.444251  
     645A      7.482908   646A      7.504721   647A      7.519644  
     648A      7.553033   649A      7.582770   650A      7.647684  
     651A      7.660345   652A      7.720765   653A      7.822728  
     654A      7.851922   655A      7.867260   656A      7.881760  
     657A      7.958985   658A      8.080739   659A      8.116920  
     660A      8.185069   661A      8.263428   662A      8.369470  
     663A     11.365480   664A     13.229402   665A     14.969220  
     666A     15.170585   667A     15.849280   668A     17.776380  
     669A     17.864507   670A     18.400642   671A     18.513631  

    Final Occupation by Irrep:
              A 
    DOCC [    41 ]

  @DF-RHF Final Energy:  -798.38734846640114

   => Energetics <=

    Nuclear Repulsion Energy =            628.5851561567315002
    One-Electron Energy =               -2348.4932775954607678
    Two-Electron Energy =                 921.5207729723281318
    Total Energy =                       -798.3873484664011357

Computation Completed

*** tstop() called on c445-091.stampede2.tacc.utexas.edu at Sat Mar 20 01:53:41 2021
Module time:
	user time   =     666.60 seconds =      11.11 minutes
	system time =      45.95 seconds =       0.77 minutes
	total time  =         40 seconds =       0.67 minutes
Total time:
	user time   =     666.60 seconds =      11.11 minutes
	system time =      45.95 seconds =       0.77 minutes
	total time  =         40 seconds =       0.67 minutes
   => Loading Basis Set <=

    Name: (AUG-CC-PVTZ AUX)
    Role: RIFIT
    Keyword: DF_BASIS_MP2
    atoms 1     entry P          line   590 file /home1/07844/xy3866/miniconda3/envs/p4env/share/psi4/basis/aug-cc-pvtz-ri.gbs 
    atoms 2-5   entry O          line   264 file /home1/07844/xy3866/miniconda3/envs/p4env/share/psi4/basis/aug-cc-pvtz-ri.gbs 
    atoms 6-9   entry C          line   148 file /home1/07844/xy3866/miniconda3/envs/p4env/share/psi4/basis/aug-cc-pvtz-ri.gbs 
    atoms 10-20 entry H          line    30 file /home1/07844/xy3866/miniconda3/envs/p4env/share/psi4/basis/aug-cc-pvtz-ri.gbs 


*** tstart() called on c445-091.stampede2.tacc.utexas.edu
*** at Sat Mar 20 01:53:42 2021


  //>>>>>>>>>>>>>>>>>>>>>>>>>>>>>>>>>>>//
  //               DFMP2               //
  //<<<<<<<<<<<<<<<<<<<<<<<<<<<<<<<<<<<//

	 --------------------------------------------------------
	                          DF-MP2                         
	      2nd-Order Density-Fitted Moller-Plesset Theory     
	              RMP2 Wavefunction,  32 Threads             
	                                                         
	        Rob Parrish, Justin Turney, Andy Simmonett,      
	           Ed Hohenstein, and C. David Sherrill          
	 --------------------------------------------------------

   => Auxiliary Basis Set <=

  Basis Set: (AUG-CC-PVTZ AUX)
    Blend: AUG-CC-PVTZ-RI
    Number of shells: 415
    Number of basis functions: 1501
    Number of Cartesian functions: 1884
    Spherical Harmonics?: true
    Max angular momentum: 4

	 --------------------------------------------------------
	                 NBF =   671, NAUX =  1501
	 --------------------------------------------------------
	   CLASS    FOCC     OCC    AOCC    AVIR     VIR    FVIR
	   PAIRS       0      41      41     630     630       0
	 --------------------------------------------------------

  DFHelper Memory: AOs need 4.837 GiB; user supplied 22.352 GiB. Using in-core AOs.


         ------------------------------------------------------------
                                     CPHF                           
                                  Rob Parrish                       
         ------------------------------------------------------------

  ==> Geometry <==

    Molecular point group: c1
    Full point group: C1

    Geometry (in Angstrom), charge = 0, multiplicity = 1:

       Center              X                  Y                   Z               Mass       
    ------------   -----------------  -----------------  -----------------  -----------------
         P           -0.018605798699    -0.871417137076    -0.097478295450    30.973761998420
         O            1.217026201301     0.058994862924    -0.529365295450    15.994914619570
         O           -1.114828798699     0.147283862924     0.517516704550    15.994914619570
         O            0.517107201301    -1.574044137076     1.258428704550    15.994914619570
         O           -0.495291798699    -1.773972137076    -1.168097295450    15.994914619570
         C            1.817467301301     0.895459862924     0.424458004550    12.000000000000
         C           -1.913197798699     0.880906862924    -0.453191295450    12.000000000000
         C            2.835090201301     1.790307862924    -0.277705295450    12.000000000000
         C           -2.844314798699     1.778341862924     0.327532704550    12.000000000000
         H            1.063204201301     1.523594862924     0.945853704550     1.007825032230
         H            2.323154201301     0.298088862924     1.211488704550     1.007825032230
         H           -1.243687798699     1.460488862924    -1.098158295450     1.007825032230
         H           -2.457438798699     0.162860862924    -1.071969295450     1.007825032230
         H            3.342695201301     2.455509862924     0.426923704550     1.007825032230
         H            3.582642201301     1.168310862924    -0.773756295450     1.007825032230
         H            2.329592201301     2.397271862924    -1.031633295450     1.007825032230
         H           -3.474536798699     2.350368862924    -0.359524295450     1.007825032230
         H           -3.487126798699     1.181606862924     0.977768704550     1.007825032230
         H           -2.274827798699     2.476878862924     0.944278704550     1.007825032230
         H            0.149656201301    -2.474020137076     1.327811704550     1.007825032230

  Nuclear repulsion =  628.585156156731500
  Reference energy  = -798.387348466401136

  ==> Basis Set <==

  Basis Set: AUG-CC-PVTZ
    Blend: AUG-CC-PVTZ
    Number of shells: 227
    Number of basis functions: 671
    Number of Cartesian functions: 774
    Spherical Harmonics?: true
    Max angular momentum: 3

  ==> CGRSolver (by Rob Parrish) <==

   Number of roots    =         1
   Preconditioning    =    JACOBI
   Convergence cutoff =     1E-06
   Maximum iterations =       100

  ==> CPHFRHamiltonian (by Rob Parrish) <== 

  ==> MemDFJK: Density-Fitted J/K Matrices <==

    J tasked:                   Yes
    K tasked:                   Yes
    wK tasked:                   No
    OpenMP threads:              32
    Memory [MiB]:             22888
    Algorithm:                 Core
    Schwarz Cutoff:           1E-12
    Mask sparsity (%):       7.1464
    Fitting Condition:        1E-10

   => Auxiliary Basis Set <=

  Basis Set: (AUG-CC-PVTZ AUX)
    Blend: AUG-CC-PVTZ-JKFIT
    Number of shells: 436
    Number of basis functions: 1484
    Number of Cartesian functions: 1833
    Spherical Harmonics?: true
    Max angular momentum: 4

  ==> CPHF Iterations <==

  => Iterations <=

             Iter  Converged  Remaining    Residual
  CGR           1          0          1   7.638E-02
  CGR           2          0          1   1.957E-02
  CGR           3          0          1   7.243E-03
  CGR           4          0          1   2.224E-03
  CGR           5          0          1   7.928E-04
  CGR           6          0          1   2.046E-04
  CGR           7          0          1   7.142E-05
  CGR           8          0          1   2.379E-05
  CGR           9          0          1   7.267E-06
  CGR          10          0          1   2.787E-06
  CGR          11          1          0   6.987E-07

    CGRSolver converged.

	-----------------------------------------------------------
	 ==================> DF-MP2 Energies <==================== 
	-----------------------------------------------------------
	 Reference Energy          =    -798.3873484664011357 [Eh]
	 Singles Energy            =      -0.0000000000000000 [Eh]
	 Same-Spin Energy          =      -0.4896747691638654 [Eh]
	 Opposite-Spin Energy      =      -1.5375741768734967 [Eh]
	 Correlation Energy        =      -2.0272489460373624 [Eh]
	 Total Energy              =    -800.4145974124385248 [Eh]
	-----------------------------------------------------------
	 ================> DF-SCS-MP2 Energies <================== 
	-----------------------------------------------------------
	 SCS Same-Spin Scale       =       0.3333333333333333 [-]
	 SCS Opposite-Spin Scale   =       1.2000000000000000 [-]
	 SCS Same-Spin Energy      =      -0.1632249230546218 [Eh]
	 SCS Opposite-Spin Energy  =      -1.8450890122481960 [Eh]
	 SCS Correlation Energy    =      -2.0083139353028177 [Eh]
	 SCS Total Energy          =    -800.3956624017039303 [Eh]
	-----------------------------------------------------------



Properties will be evaluated at   0.000000,  -0.000000,  -0.000000 [a0]

Properties computed using the MP2 density matrix

  Nuclear Dipole Moment: [e a0]
     X:    -0.1198      Y:    12.9747      Z:     1.4954

  Electronic Dipole Moment: [e a0]
     X:     0.1091      Y:   -11.9904      Z:    -0.7042

  Dipole Moment: [e a0]
     X:    -0.0107      Y:     0.9843      Z:     0.7912     Total:     1.2629

  Dipole Moment: [D]
     X:    -0.0271      Y:     2.5017      Z:     2.0110     Total:     3.2099


*** tstop() called on c445-091.stampede2.tacc.utexas.edu at Sat Mar 20 01:58:05 2021
Module time:
	user time   =    2117.52 seconds =      35.29 minutes
	system time =      71.92 seconds =       1.20 minutes
	total time  =        263 seconds =       4.38 minutes
Total time:
	user time   =    2785.12 seconds =      46.42 minutes
	system time =     117.89 seconds =       1.96 minutes
	total time  =        304 seconds =       5.07 minutes

    Psi4 stopped on: Saturday, 20 March 2021 01:58AM
    Psi4 wall time for execution: 0:05:04.90

*** Psi4 exiting successfully. Buy a developer a beer!
