opt=Tight                                                               
Freq      RMP2-FC                                                     6-31G(d)            
Number of atoms                            I                7
Info1-9                                    I   N=           9
          16          16        1002           0           0         100
           6           2           1
Charge                                     I               -1
Multiplicity                               I                1
Number of electrons                        I               46
Number of alpha electrons                  I               23
Number of beta electrons                   I               23
Number of basis functions                  I               92
Number of independent functions            I               92
Number of point charges in /Mol/           I                0
Number of translation vectors              I                0
Atomic numbers                             I   N=           7
           8           8           8           8           6           6
           1
Nuclear charges                            R   N=           7
  8.00000000E+00  8.00000000E+00  8.00000000E+00  8.00000000E+00  6.00000000E+00
  6.00000000E+00  1.00000000E+00
Current cartesian coordinates              R   N=          21
  2.56949156E+00  1.95398958E+00  2.44000204E-04  2.40637841E+00 -2.30364906E+00
  1.35976099E-04 -2.83981705E+00 -1.98900285E+00 -1.51699028E-04 -2.41857024E+00
  2.31129177E+00 -2.47841525E-04  1.29047475E+00 -2.75934959E-01  9.21352114E-05
 -1.64100151E+00  6.46296258E-02 -1.29602774E-04  4.36329920E+00  1.48679649E+00
  3.81319374E-04
Force Field                                I                0
Int Atom Types                             I   N=           7
           0           0           0           0           0           0
           0
MM charges                                 R   N=           7
  0.00000000E+00  0.00000000E+00  0.00000000E+00  0.00000000E+00  0.00000000E+00
  0.00000000E+00  0.00000000E+00
Integer atomic weights                     I   N=           7
          16          16          16          16          12          12
           1
Real atomic weights                        R   N=           7
  1.59949146E+01  1.59949146E+01  1.59949146E+01  1.59949146E+01  1.20000000E+01
  1.20000000E+01  1.00782504E+00
Atom fragment info                         I   N=           7
           0           0           0           0           0           0
           0
Atom residue num                           I   N=           7
           0           0           0           0           0           0
           0
Nuclear spins                              I   N=           7
           0           0           0           0           0           0
           1
Nuclear ZEff                               R   N=           7
 -5.60000000E+00 -5.60000000E+00 -5.60000000E+00 -5.60000000E+00 -3.60000000E+00
 -3.60000000E+00 -1.00000000E+00
Nuclear QMom                               R   N=           7
  0.00000000E+00  0.00000000E+00  0.00000000E+00  0.00000000E+00  0.00000000E+00
  0.00000000E+00  0.00000000E+00
Nuclear GFac                               R   N=           7
  0.00000000E+00  0.00000000E+00  0.00000000E+00  0.00000000E+00  0.00000000E+00
  0.00000000E+00  2.79284600E+00
MicOpt                                     I   N=           7
          -1          -1          -1          -1          -1          -1
          -1
Number of contracted shells                I               26
Number of primitive shells                 I               70
Pure/Cartesian d shells                    I                1
Pure/Cartesian f shells                    I                0
Highest angular momentum                   I                2
Largest degree of contraction              I                6
Shell types                                I   N=          26
           0          -1          -1           2           0          -1
          -1           2           0          -1          -1           2
           0          -1          -1           2           0          -1
          -1           2           0          -1          -1           2
           0           0
Number of primitives per shell             I   N=          26
           6           3           1           1           6           3
           1           1           6           3           1           1
           6           3           1           1           6           3
           1           1           6           3           1           1
           3           1
Shell to atom map                          I   N=          26
           1           1           1           1           2           2
           2           2           3           3           3           3
           4           4           4           4           5           5
           5           5           6           6           6           6
           7           7
Primitive exponents                        R   N=          70
  5.48467166E+03  8.25234946E+02  1.88046958E+02  5.29645000E+01  1.68975704E+01
  5.79963534E+00  1.55396162E+01  3.59993359E+00  1.01376175E+00  2.70005823E-01
  8.00000000E-01  5.48467166E+03  8.25234946E+02  1.88046958E+02  5.29645000E+01
  1.68975704E+01  5.79963534E+00  1.55396162E+01  3.59993359E+00  1.01376175E+00
  2.70005823E-01  8.00000000E-01  5.48467166E+03  8.25234946E+02  1.88046958E+02
  5.29645000E+01  1.68975704E+01  5.79963534E+00  1.55396162E+01  3.59993359E+00
  1.01376175E+00  2.70005823E-01  8.00000000E-01  5.48467166E+03  8.25234946E+02
  1.88046958E+02  5.29645000E+01  1.68975704E+01  5.79963534E+00  1.55396162E+01
  3.59993359E+00  1.01376175E+00  2.70005823E-01  8.00000000E-01  3.04752488E+03
  4.57369518E+02  1.03948685E+02  2.92101553E+01  9.28666296E+00  3.16392696E+00
  7.86827235E+00  1.88128854E+00  5.44249258E-01  1.68714478E-01  8.00000000E-01
  3.04752488E+03  4.57369518E+02  1.03948685E+02  2.92101553E+01  9.28666296E+00
  3.16392696E+00  7.86827235E+00  1.88128854E+00  5.44249258E-01  1.68714478E-01
  8.00000000E-01  1.87311370E+01  2.82539436E+00  6.40121692E-01  1.61277759E-01
Contraction coefficients                   R   N=          70
  1.83107443E-03  1.39501722E-02  6.84450781E-02  2.32714336E-01  4.70192898E-01
  3.58520853E-01 -1.10777550E-01 -1.48026263E-01  1.13076702E+00  1.00000000E+00
  1.00000000E+00  1.83107443E-03  1.39501722E-02  6.84450781E-02  2.32714336E-01
  4.70192898E-01  3.58520853E-01 -1.10777550E-01 -1.48026263E-01  1.13076702E+00
  1.00000000E+00  1.00000000E+00  1.83107443E-03  1.39501722E-02  6.84450781E-02
  2.32714336E-01  4.70192898E-01  3.58520853E-01 -1.10777550E-01 -1.48026263E-01
  1.13076702E+00  1.00000000E+00  1.00000000E+00  1.83107443E-03  1.39501722E-02
  6.84450781E-02  2.32714336E-01  4.70192898E-01  3.58520853E-01 -1.10777550E-01
 -1.48026263E-01  1.13076702E+00  1.00000000E+00  1.00000000E+00  1.83473713E-03
  1.40373228E-02  6.88426223E-02  2.32184443E-01  4.67941348E-01  3.62311985E-01
 -1.19332420E-01 -1.60854152E-01  1.14345644E+00  1.00000000E+00  1.00000000E+00
  1.83473713E-03  1.40373228E-02  6.88426223E-02  2.32184443E-01  4.67941348E-01
  3.62311985E-01 -1.19332420E-01 -1.60854152E-01  1.14345644E+00  1.00000000E+00
  1.00000000E+00  3.34946043E-02  2.34726953E-01  8.13757326E-01  1.00000000E+00
P(S=P) Contraction coefficients            R   N=          70
  0.00000000E+00  0.00000000E+00  0.00000000E+00  0.00000000E+00  0.00000000E+00
  0.00000000E+00  7.08742682E-02  3.39752839E-01  7.27158577E-01  1.00000000E+00
  0.00000000E+00  0.00000000E+00  0.00000000E+00  0.00000000E+00  0.00000000E+00
  0.00000000E+00  0.00000000E+00  7.08742682E-02  3.39752839E-01  7.27158577E-01
  1.00000000E+00  0.00000000E+00  0.00000000E+00  0.00000000E+00  0.00000000E+00
  0.00000000E+00  0.00000000E+00  0.00000000E+00  7.08742682E-02  3.39752839E-01
  7.27158577E-01  1.00000000E+00  0.00000000E+00  0.00000000E+00  0.00000000E+00
  0.00000000E+00  0.00000000E+00  0.00000000E+00  0.00000000E+00  7.08742682E-02
  3.39752839E-01  7.27158577E-01  1.00000000E+00  0.00000000E+00  0.00000000E+00
  0.00000000E+00  0.00000000E+00  0.00000000E+00  0.00000000E+00  0.00000000E+00
  6.89990666E-02  3.16423961E-01  7.44308291E-01  1.00000000E+00  0.00000000E+00
  0.00000000E+00  0.00000000E+00  0.00000000E+00  0.00000000E+00  0.00000000E+00
  0.00000000E+00  6.89990666E-02  3.16423961E-01  7.44308291E-01  1.00000000E+00
  0.00000000E+00  0.00000000E+00  0.00000000E+00  0.00000000E+00  0.00000000E+00
Coordinates of each shell                  R   N=          78
  2.56949156E+00  1.95398958E+00  2.44000204E-04  2.56949156E+00  1.95398958E+00
  2.44000204E-04  2.56949156E+00  1.95398958E+00  2.44000204E-04  2.56949156E+00
  1.95398958E+00  2.44000204E-04  2.40637841E+00 -2.30364906E+00  1.35976099E-04
  2.40637841E+00 -2.30364906E+00  1.35976099E-04  2.40637841E+00 -2.30364906E+00
  1.35976099E-04  2.40637841E+00 -2.30364906E+00  1.35976099E-04 -2.83981705E+00
 -1.98900285E+00 -1.51699028E-04 -2.83981705E+00 -1.98900285E+00 -1.51699028E-04
 -2.83981705E+00 -1.98900285E+00 -1.51699028E-04 -2.83981705E+00 -1.98900285E+00
 -1.51699028E-04 -2.41857024E+00  2.31129177E+00 -2.47841525E-04 -2.41857024E+00
  2.31129177E+00 -2.47841525E-04 -2.41857024E+00  2.31129177E+00 -2.47841525E-04
 -2.41857024E+00  2.31129177E+00 -2.47841525E-04  1.29047475E+00 -2.75934959E-01
  9.21352114E-05  1.29047475E+00 -2.75934959E-01  9.21352114E-05  1.29047475E+00
 -2.75934959E-01  9.21352114E-05  1.29047475E+00 -2.75934959E-01  9.21352114E-05
 -1.64100151E+00  6.46296258E-02 -1.29602774E-04 -1.64100151E+00  6.46296258E-02
 -1.29602774E-04 -1.64100151E+00  6.46296258E-02 -1.29602774E-04 -1.64100151E+00
  6.46296258E-02 -1.29602774E-04  4.36329920E+00  1.48679649E+00  3.81319374E-04
  4.36329920E+00  1.48679649E+00  3.81319374E-04
Constraint Structure                       R   N=          21
  2.56949156E+00  1.95398958E+00  2.44000204E-04  2.40637841E+00 -2.30364906E+00
  1.35976099E-04 -2.83981705E+00 -1.98900285E+00 -1.51699028E-04 -2.41857024E+00
  2.31129177E+00 -2.47841525E-04  1.29047475E+00 -2.75934959E-01  9.21352114E-05
 -1.64100151E+00  6.46296258E-02 -1.29602774E-04  4.36329920E+00  1.48679649E+00
  3.81319374E-04
Num ILSW                                   I              100
ILSW                                       I   N=         100
           0           1           0           1           2           0
           0           0           0           0           0          -1
           0           0           0           0           0           0
           0           0           0           0           1           0
           1           0           0           0           0           0
           0           0      100000           0          -1           0
           0           0           0           0           0           0
           0           0           0           1           1           0
           0           0           1           0           0           0
           0           0           4          40           0           0
           0           0           0           0           0           0
           0           0           0           0           0           0
           0           0           0           0           0           0
           0           0           0           0           0           0
           0           0           0           0           0           0
           0           0           0           0           0           0
           0           0           0           0
Num RLSW                                   I               40
RLSW                                       R   N=          40
  1.00000000E+00  1.00000000E+00  1.00000000E+00  1.00000000E+00  1.00000000E+00
  0.00000000E+00  0.00000000E+00  1.00000000E+00  0.00000000E+00  0.00000000E+00
  0.00000000E+00  0.00000000E+00  1.00000000E+00  0.00000000E+00  0.00000000E+00
  0.00000000E+00  0.00000000E+00  1.00000000E+00  0.00000000E+00  0.00000000E+00
  0.00000000E+00  0.00000000E+00  1.00000000E+00  0.00000000E+00  0.00000000E+00
  0.00000000E+00  0.00000000E+00  1.00000000E+00  0.00000000E+00  0.00000000E+00
  0.00000000E+00  0.00000000E+00  0.00000000E+00  0.00000000E+00  0.00000000E+00
  0.00000000E+00  0.00000000E+00  0.00000000E+00  1.00000000E+00  1.00000000E+00
MxBond                                     I                3
NBond                                      I   N=           7
           2           1           1           1           3           3
           1
IBond                                      I   N=          21
           5           7           0           5           0           0
           6           0           0           6           0           0
           1           2           6           3           4           5
           1           0           0
RBond                                      R   N=          21
  1.50000000E+00  1.00000000E+00  0.00000000E+00  2.00000000E+00  0.00000000E+00
  0.00000000E+00  2.00000000E+00  0.00000000E+00  0.00000000E+00  2.00000000E+00
  0.00000000E+00  0.00000000E+00  1.50000000E+00  2.00000000E+00  1.00000000E+00
  2.00000000E+00  2.00000000E+00  1.00000000E+00  1.00000000E+00  0.00000000E+00
  0.00000000E+00
Virial Ratio                               R      2.003620761621767E+00
SCF Energy                                 R     -3.759109065720294E+02
MP2 Energy                                 R     -3.768747072341222E+02
Total Energy                               R     -3.768747072341222E+02
Post-SCF wavefunction norm                 R      1.602359873445658E+00
RMS Force                                  R      1.589379282289477E-05
RMS Density                                R      8.033030605836638E-10
External E-field                           R   N=          35
  0.00000000E+00  0.00000000E+00  0.00000000E+00  0.00000000E+00  0.00000000E+00
  0.00000000E+00  0.00000000E+00  0.00000000E+00  0.00000000E+00  0.00000000E+00
  0.00000000E+00  0.00000000E+00  0.00000000E+00  0.00000000E+00  0.00000000E+00
  0.00000000E+00  0.00000000E+00  0.00000000E+00  0.00000000E+00  0.00000000E+00
  0.00000000E+00  0.00000000E+00  0.00000000E+00  0.00000000E+00  0.00000000E+00
  0.00000000E+00  0.00000000E+00  0.00000000E+00  0.00000000E+00  0.00000000E+00
  0.00000000E+00  0.00000000E+00  0.00000000E+00  0.00000000E+00  0.00000000E+00
IOpCl                                      I                0
IROHF                                      I                0
Alpha Orbital Energies                     R   N=          92
 -2.06113578E+01 -2.05574906E+01 -2.04923989E+01 -2.04912696E+01 -1.13818637E+01
 -1.13418182E+01 -1.45004347E+00 -1.35559466E+00 -1.34444747E+00 -1.25865996E+00
 -8.90804633E-01 -7.35451317E-01 -6.93989069E-01 -6.51462463E-01 -6.19394072E-01
 -5.89862750E-01 -5.81937343E-01 -5.35749904E-01 -4.83069126E-01 -4.71957249E-01
 -4.02723928E-01 -3.88857781E-01 -3.80248218E-01  1.38326604E-01  2.47250515E-01
  3.33539569E-01  4.45714243E-01  4.68762327E-01  4.92852120E-01  5.71644446E-01
  6.80305865E-01  7.53522456E-01  8.23253902E-01  8.54545615E-01  8.59219421E-01
  8.97929712E-01  9.40229376E-01  9.70581166E-01  1.05047456E+00  1.08365673E+00
  1.12127830E+00  1.15947384E+00  1.19070640E+00  1.20106322E+00  1.25906964E+00
  1.29207528E+00  1.30647831E+00  1.31999072E+00  1.33157034E+00  1.41478013E+00
  1.44318238E+00  1.53552902E+00  1.60015660E+00  1.65762496E+00  1.66660737E+00
  1.75669177E+00  1.86665850E+00  1.87893462E+00  1.93729748E+00  1.96865719E+00
  2.05744747E+00  2.06174014E+00  2.11677209E+00  2.15409293E+00  2.16378700E+00
  2.17981315E+00  2.22034698E+00  2.24584748E+00  2.31434553E+00  2.33120543E+00
  2.39981908E+00  2.42737235E+00  2.60482814E+00  2.62264768E+00  2.69693771E+00
  2.81554247E+00  2.86319132E+00  2.93986007E+00  3.04557469E+00  3.11519278E+00
  3.17445180E+00  3.25662408E+00  3.30680568E+00  3.33509214E+00  3.50019237E+00
  3.62420906E+00  4.12377630E+00  4.41065838E+00  4.46082853E+00  4.50726247E+00
  4.99237279E+00  5.16248237E+00
Alpha MO coefficients                      R   N=        8464
  9.94645336E-01  2.11774692E-02  4.79642193E-04 -1.18215454E-03  1.46784841E-08
  3.95101342E-03 -3.53073800E-04  5.53582368E-04 -1.63327252E-08 -4.14105415E-03
 -4.07164108E-03 -3.94079344E-03 -2.34952767E-05 -1.94051609E-08 -5.59774172E-09
 -3.38150235E-04  3.93482266E-06 -1.11938081E-05 -4.46966264E-05 -2.43143995E-09
 -1.57304395E-04 -6.92318995E-05 -6.51288589E-05 -4.85892758E-09  3.83532036E-05
 -6.57253540E-05 -2.11434447E-05 -2.89981598E-05  4.73729546E-09 -3.19162989E-09
  1.80619969E-05  5.56993676E-05  6.11842774E-06  3.82825162E-07 -3.99913402E-10
 -3.71508313E-04 -1.15468015E-04 -5.66155024E-05 -3.95567239E-09  1.94363412E-05
  4.66478519E-05  2.70194741E-05 -1.97811503E-05  4.35929434E-10 -2.08898514E-09
 -1.10113785E-05  1.63666227E-05  3.59970844E-05  1.46210056E-05  3.50634484E-09
  3.78200712E-05 -1.05111281E-04 -4.72006397E-05 -9.84008907E-09  8.29157641E-07
  2.76108553E-05  4.56507194E-05  7.51351578E-06 -5.87113968E-09  1.06372655E-09
  5.33072153E-07  4.04854701E-04  1.56161168E-04  2.76546988E-04  1.88718689E-08
 -4.01234516E-04  5.29761696E-04 -1.58340509E-04  3.36322302E-08 -3.80291130E-05
 -6.48932163E-05 -4.66049935E-05 -3.87321369E-05  4.70311313E-10 -3.85359622E-09
 -1.10806464E-06  1.13382819E-05 -3.95388294E-06  7.82957251E-06  3.35535919E-10
  5.41921516E-04  2.31664829E-04 -3.60413025E-04  2.38247168E-08 -3.76184687E-05
  1.47821043E-05 -1.16909435E-05 -1.33124828E-05 -4.13936208E-09 -2.02158302E-09
  4.33588102E-04 -2.63792503E-04  3.32635720E-04 -4.09668685E-05 -7.79961863E-06
  4.19531475E-05  5.06625774E-10  1.62993795E-04  4.95035045E-06 -7.58476606E-05
 -1.81649443E-09  2.97641310E-05 -8.11539001E-05 -6.85122550E-05  5.09458695E-05
  1.03247381E-08  3.75178426E-09  9.94685994E-01  2.09732762E-02 -6.71254069E-04
  1.32606257E-03 -2.49012014E-08  4.56056839E-03  7.51252117E-06  3.56464735E-06
  8.75584527E-10 -3.85661950E-03 -3.69625593E-03 -4.13571577E-03 -1.38167011E-04
  2.21438125E-08  2.31329045E-10 -3.28545069E-05  1.42622218E-05  9.02121365E-06
 -1.11049811E-05  6.19473658E-10 -7.08230859E-05 -2.38770908E-05 -1.42987028E-05
  6.48246494E-10  1.90121754E-05 -1.98701251E-06  2.93309756E-05 -2.45754447E-06
 -2.90854567E-10  1.44656654E-09  1.94952876E-05  3.80636894E-05  9.85991182E-06
 -8.82824417E-06  1.15366099E-09 -1.24222779E-04 -5.29871820E-05  1.65719803E-05
 -4.24043353E-09 -3.30515389E-06  3.74678339E-05  2.79495318E-05  1.59990812E-05
 -3.56082255E-09  6.63953045E-10 -5.43303024E-07  4.91835990E-04 -1.14333572E-05
  2.27791392E-05 -3.47899383E-10 -4.65576700E-04 -3.55757308E-04  4.03381160E-04
 -1.84348265E-08 -2.12678724E-04 -6.03035931E-04 -3.09869839E-05  3.40221914E-04
 -9.40953638E-09  1.22905475E-08  5.36289403E-06  1.43652033E-05 -1.17172479E-05
  6.77712735E-06 -2.77674533E-10 -9.84630774E-05 -6.26405977E-05  1.31817042E-05
 -7.58372923E-09  1.95591446E-05  1.37543866E-06  5.44445405E-08  6.52008399E-05
  2.29035520E-09  4.81169641E-09 -2.17057566E-05 -2.69323440E-05  2.70424999E-05
  3.87549683E-05 -1.82571694E-05  8.53329342E-06 -1.72878269E-09 -1.61891480E-04
  1.04067385E-04  8.18539470E-06  1.05576429E-08  1.26678811E-05  2.07603523E-05
  3.74035019E-05 -6.48110622E-06 -3.39423753E-09 -1.04763257E-09 -1.38347582E-05
  2.51035279E-06 -1.06332401E-05  1.13284480E-05 -1.36337322E-10  6.32281029E-05
  4.85090847E-06  3.25992197E-05  4.41247599E-10 -1.54266922E-05  2.73736194E-05
  1.50295581E-06 -1.51699392E-06 -1.25568636E-09  7.88941756E-10 -1.45059204E-02
 -3.49911830E-04  2.44794900E-05 -2.43490467E-05  2.48094813E-09  2.19924313E-04
  1.19186645E-04  1.24854807E-04  4.41610343E-09  1.26904755E-04 -1.59685506E-05
 -1.19882127E-05  1.06466512E-04  7.79279183E-09  7.44530179E-09  9.94587928E-01
  2.09969861E-02  4.36168802E-04 -1.27925544E-03  6.55743048E-08  4.20855370E-03
 -6.05465989E-05  1.22844538E-04 -6.51909220E-09 -3.86565572E-03 -3.74986031E-03
 -4.04232355E-03 -6.11334888E-05  1.66616470E-08 -1.40587489E-08  1.10601590E-07
  1.96497566E-05  2.59661621E-05 -2.34308377E-06  2.69073332E-09 -2.89125937E-05
  9.71711673E-07  1.03683922E-04  2.23025235E-09 -4.47597538E-05 -1.31547912E-05
 -1.21434990E-05  6.67999617E-05 -3.91584166E-09  5.36453042E-09 -7.15614504E-06
  5.11745553E-04 -1.16304901E-05  1.27778425E-04 -4.75579698E-09 -4.66727168E-04
  2.04830038E-04 -2.01226888E-04  1.90022070E-08 -9.25682830E-05 -6.26643798E-04
 -5.02433469E-05  1.75156629E-04 -8.43426588E-09  3.13003092E-08 -1.41091290E-05
 -2.17754310E-05 -2.27132935E-07  2.99658721E-05 -1.28020186E-05 -2.10419241E-06
 -1.57870943E-09 -1.50068268E-04  7.88136854E-05  1.65011526E-05  8.19646990E-09
  2.86738341E-06  3.41515303E-05  2.02168330E-05 -1.01613555E-05 -2.34747615E-09
 -5.06820809E-10  4.06670069E-05  1.24146192E-06 -8.17693442E-06 -1.15945136E-05
 -6.73069385E-10  2.78370375E-05  2.33784562E-05  1.19213538E-05  7.08344719E-10
 -2.71221707E-06  4.21322081E-06  1.90870925E-05  8.72677298E-06 -9.98310455E-10
 -8.65433853E-11  9.94590453E-01  2.10063996E-02  6.74532910E-04  1.16996632E-03
  1.15936748E-08  4.12475948E-03 -9.17679876E-05 -1.20691775E-04 -2.23484789E-09
 -3.83012548E-03 -3.76833604E-03 -4.03825916E-03  8.40102283E-05  1.42545515E-08
 -3.03551552E-09  1.44859898E-02  2.52408098E-04  4.14809419E-05 -1.73015329E-05
  3.04685815E-09  4.25255781E-04  9.65595627E-05 -1.56647455E-04  1.20543516E-08
 -3.41957904E-05 -9.28089465E-05 -1.34600109E-04 -1.31938838E-04  1.18766560E-08
 -1.04879347E-08  2.37885612E-06  2.62106331E-05  4.30979659E-05 -1.94664424E-08
  2.93346114E-09 -2.67527439E-05  2.90417161E-05  1.42497941E-04  4.03111284E-09
 -6.16733058E-05  1.76876975E-05 -1.22785678E-05 -3.79844570E-05 -2.83393088E-09
 -2.82155587E-09 -7.26161311E-06  5.25297978E-04 -3.65688858E-05 -1.21918050E-04
  8.26697274E-10 -4.61403724E-04  2.40369159E-04  2.43310362E-05  1.39684734E-08
 -1.72369979E-04 -5.63840128E-04 -5.17385575E-05 -2.78804689E-04 -1.56456572E-09
 -1.67149655E-09 -8.81872799E-06 -2.34177420E-05 -1.02297269E-04  5.74940008E-04
  2.05146378E-05 -1.67744395E-04 -1.86748169E-09 -1.09913949E-03 -2.42888198E-04
  1.68536270E-03  1.58868176E-08 -1.03093156E-05 -5.86970278E-04  4.74425409E-04
 -3.84320283E-04 -5.35641277E-08 -5.74123963E-08 -2.33758072E-04  8.07200910E-04
 -8.65645068E-05  2.63308417E-04 -3.47991748E-10 -4.32823249E-03  3.96658377E-04
 -2.19334335E-03 -2.00777350E-08  3.84160296E-04 -5.06001086E-05  4.93655895E-04
  4.71522474E-05 -9.07284861E-09 -1.02458344E-08 -6.27854947E-05 -3.25362266E-04
 -3.50625953E-05 -8.83887584E-07 -1.70751585E-09  1.44254926E-03  1.28442254E-04
  3.90407617E-04 -9.66767978E-09 -1.17031648E-04 -8.89527107E-05 -2.78763329E-04
  3.91157028E-05  1.21910338E-08 -6.09020126E-09 -1.95279794E-05 -1.37761866E-04
 -5.44777680E-05  1.33415429E-05 -2.24259420E-09 -2.09426090E-04 -8.21837902E-05
 -7.09896300E-05 -1.26922237E-08  2.88101206E-05  2.30881062E-05 -2.04019297E-04
 -2.50599467E-05  2.02149876E-08 -7.96082296E-09  9.95898377E-01  2.58040313E-02
  1.13340467E-03  3.44925738E-04  9.71276349E-08 -5.58787686E-03  4.37413429E-03
 -2.37231966E-03  3.03927368E-07 -1.13691582E-03 -4.97183753E-04 -2.29019886E-03
 -2.10544016E-04  1.00090449E-07  3.12054582E-08  5.81639222E-03  3.87719292E-05
  4.20414231E-05 -1.42472826E-05  1.92048209E-09  4.24996600E-03  2.58811095E-03
  9.42478967E-04  1.84638488E-07 -5.72927010E-04 -3.60000325E-04 -2.79925977E-04
  1.32696146E-06 -2.35834741E-08  1.91760661E-09  3.05734906E-04  1.02737553E-04
 -5.45999981E-05 -3.27732156E-04  1.04030820E-04  4.09079767E-05  8.61954247E-09
  1.17516177E-03 -3.85527985E-04 -4.37818663E-04 -4.01691313E-08 -1.09314845E-04
 -6.93781928E-05 -2.78811291E-04  6.05968973E-05  1.65768685E-08  1.08694181E-08
 -2.06550966E-05 -1.37692267E-04  3.48616389E-05  1.57272490E-05  3.63421213E-09
  2.82065511E-04  2.09926781E-04  3.11728354E-04  2.17338300E-08 -7.03730362E-05
  8.95965329E-05 -1.92911508E-04 -1.79946478E-05  1.05124062E-08  5.69547693E-09
 -2.26937650E-04  4.48091511E-04  2.14913373E-05  2.26760268E-04 -5.21895527E-09
 -1.49544064E-03 -1.00352699E-04 -1.57177868E-03  4.00341622E-08  3.56558586E-05
 -1.74489032E-04  3.68385314E-04 -1.82371068E-04 -2.14122884E-08  6.30906925E-09
 -2.07350462E-04  5.36250939E-04 -2.67084624E-05 -2.28561812E-04  5.73189858E-09
 -2.23762905E-03  1.49472752E-04  1.72049025E-03 -4.08433387E-08  1.59388848E-04
 -1.77839814E-04  4.09144640E-04  1.31252917E-04 -2.44432730E-08  2.80087215E-08
 -6.21647221E-03 -1.15072603E-04 -8.13853890E-06  2.07799914E-06 -7.86528692E-10
  4.04750601E-03 -2.83455753E-03 -4.47045980E-04 -2.29805219E-07 -7.31940106E-04
 -3.91804281E-04 -2.34218948E-04  5.57682055E-05 -4.40571012E-08  1.04923246E-09
  9.95905040E-01  2.58668564E-02  5.68403373E-05  1.25116021E-05  5.12688432E-09
 -6.60675921E-03 -4.27273199E-03  9.66983341E-04 -3.23503797E-07 -1.45316515E-03
 -3.32668720E-04 -2.18303878E-03  1.32768072E-04  5.63867822E-08 -5.41224651E-08
  2.24401417E-05  2.80184536E-04 -1.55288441E-01  3.50747832E-01  7.63079926E-03
 -8.61385813E-02 -1.17326001E-06  3.23524149E-01  9.74833878E-03 -4.85718179E-02
 -1.92873414E-07  1.53934210E-02  1.56081341E-02 -8.17036186E-04  1.15307900E-03
  1.55200521E-06  4.96716310E-07 -1.07125960E-01  2.36805762E-01 -3.24670012E-02
  8.01294143E-02 -7.92849362E-07  2.08431475E-01 -6.17840002E-03  3.31407546E-02
  2.32345681E-07 -2.77319507E-04  1.09728172E-02 -2.57387350E-04 -5.34471385E-03
 -1.12135817E-07 -1.31379145E-07 -1.74084966E-02  4.07071248E-02  9.93754083E-03
  1.17851638E-02  3.39688670E-07  2.69600492E-02  6.45604240E-04  2.66399858E-03
 -3.58291979E-08  1.24467678E-03  2.09550700E-03  1.35825971E-03  8.50560186E-04
 -3.89458636E-08  2.80977103E-08 -1.97912845E-02  4.56681771E-02  9.01202717E-03
 -1.45148420E-02  1.11555205E-06  3.08963914E-02  1.47025105E-03 -2.48764824E-03
  1.89097850E-07  1.22754517E-03  2.18906349E-03  1.12880175E-03 -7.62339232E-04
  4.42092248E-08 -9.65036430E-08 -1.11639904E-01  2.16987248E-01  8.69730823E-02
 -1.38386057E-03  6.93204997E-06  4.81287876E-02 -1.95654942E-02  9.28739082E-05
 -1.53195535E-06 -1.00248936E-03  2.18152550E-02 -1.77514817E-02  1.12586744E-03
  1.57138994E-06  1.13940238E-06 -2.83891150E-02  5.64786846E-02  1.28119125E-02
  1.23236592E-03  9.94757133E-07  1.43960822E-02  9.55284418E-04  1.50079367E-03
  9.60837591E-08  6.12229685E-03  4.44620594E-03 -3.79807707E-03 -4.54384337E-04
  8.48029694E-07 -3.26714764E-07  8.23133711E-02 -5.85286663E-03  7.10823465E-02
 -1.56411815E-01 -1.76645615E-02  2.50094598E-02 -9.71763017E-07 -1.72561715E-01
 -5.37474855E-03  1.90644778E-02 -5.57695511E-08 -6.02221156E-03 -2.21201652E-03
  2.29755090E-03  1.04130031E-03 -7.53673764E-07 -2.12037073E-08 -3.03228167E-02
  6.63928413E-02 -1.74660423E-02  1.06812569E-02 -1.10570187E-06  6.67421748E-02
 -9.45794519E-03  2.23588048E-03 -6.63495919E-07  1.91980178E-03 -4.93225756E-04
  7.43605840E-05 -1.93513397E-03  1.16211140E-07 -1.55879356E-07 -1.27277630E-01
  2.79110106E-01  4.31308490E-02  8.03379139E-02  6.10495940E-07  2.57127927E-01
  1.31997963E-02  3.52130779E-02 -2.63370586E-08  7.84129303E-04  1.12231746E-02
 -9.61231588E-04  7.03515227E-03 -5.77904611E-08  7.67333982E-08 -1.19883129E-01
  2.61656888E-01  2.28127907E-02 -8.33841126E-02  3.93519898E-06  2.53819900E-01
  4.36613300E-03 -3.88980257E-02  1.44616058E-06 -2.32342805E-03  1.22934977E-02
 -9.88612320E-04 -3.88880457E-03 -1.23470425E-08 -7.18967230E-07 -9.58148403E-03
  2.27027263E-02 -4.51166482E-02 -5.95151467E-02 -4.85382135E-06 -5.78897998E-04
  9.75834405E-03  1.65604196E-02  1.06421960E-06  8.27854622E-03 -3.10227357E-03
 -1.31415383E-04 -1.25627949E-02  4.88946537E-07 -1.06010886E-06 -1.25050781E-01
  2.41354911E-01 -7.65554531E-02 -8.61103413E-04 -5.28058742E-06  7.34393619E-02
  2.92421618E-02 -1.41595477E-02  2.13227705E-06 -1.06575419E-02  2.73013929E-02
 -1.97757515E-02  4.40693354E-03  5.44048167E-07 -1.29172462E-06 -4.21720118E-02
  1.06043119E-03  1.15163979E-01 -2.57825900E-01 -1.30133955E-02  2.65544717E-02
 -5.44900791E-07 -2.70800880E-01 -7.02160189E-03  1.61148068E-02 -2.38745806E-07
 -1.26345920E-02 -8.15287998E-04  9.59079520E-04  1.71944865E-03 -1.24452757E-06
  9.38761065E-08 -1.65411946E-01  3.58266350E-01 -5.21674910E-02  8.28740497E-02
 -2.32115444E-06  3.68574493E-01 -2.45929236E-02  3.76965090E-02 -1.08360206E-06
  4.08474508E-04  7.84228432E-03 -4.22484154E-03 -8.32340051E-03  2.59090144E-07
 -3.43908243E-07  2.72063053E-02 -5.76177898E-02 -4.47633654E-03 -2.05424780E-02
  1.68946113E-07 -7.06048733E-02 -1.61213866E-03 -1.40338342E-02  4.19761740E-07
  1.89193619E-03 -2.52334611E-03  6.22770882E-04 -1.75540011E-03  1.36447479E-07
 -8.46341315E-10  5.76457351E-02 -1.26151872E-01 -1.41519302E-02  3.62205762E-02
 -2.15489550E-06 -1.10864662E-01 -5.90078340E-03  1.34257548E-02 -7.12631204E-07
 -5.04836024E-04 -5.33038353E-03  1.10352168E-03  2.22666291E-03 -2.14537230E-07
  3.56281966E-07 -4.42354821E-02  8.57277012E-02  4.95518527E-02 -2.03692789E-01
 -5.76050667E-07  2.27427452E-02 -9.83864408E-03  3.35824905E-02 -2.49968920E-07
 -7.62302728E-03  5.71048742E-03 -7.36738451E-03 -3.13786658E-02 -6.97761272E-07
 -2.16476218E-06  3.98168295E-02 -7.62836084E-02  3.01413978E-02 -3.47161617E-02
  2.73460902E-06 -2.65318979E-02 -1.39175385E-02 -2.11858472E-02 -1.06355240E-06
  6.34731246E-03 -9.47902647E-03  6.47491627E-03 -7.86082796E-04 -1.22657638E-07
  4.76726009E-07 -6.17433968E-02  6.09870509E-03 -1.85833485E-02  4.06962381E-02
  1.06792882E-02 -3.93504814E-03  9.93632950E-07  5.55287106E-02  5.64719792E-03
 -6.16014567E-03  2.46894673E-07  1.08222934E-03 -1.02980657E-04 -3.31068700E-04
 -6.36923970E-04  1.11006321E-07 -3.34768917E-08  2.08442429E-02 -4.37558062E-02