
    -----------------------------------------------------------------------
          Psi4: An Open-Source Ab Initio Electronic Structure Package
                               Psi4 1.3.2 release

                         Git: Rev {HEAD} ecbda83 


    R. M. Parrish, L. A. Burns, D. G. A. Smith, A. C. Simmonett,
    A. E. DePrince III, E. G. Hohenstein, U. Bozkaya, A. Yu. Sokolov,
    R. Di Remigio, R. M. Richard, J. F. Gonthier, A. M. James,
    H. R. McAlexander, A. Kumar, M. Saitow, X. Wang, B. P. Pritchard,
    P. Verma, H. F. Schaefer III, K. Patkowski, R. A. King, E. F. Valeev,
    F. A. Evangelista, J. M. Turney, T. D. Crawford, and C. D. Sherrill,
    J. Chem. Theory Comput. 13(7) pp 3185--3197 (2017).
    (doi: 10.1021/acs.jctc.7b00174)


                         Additional Contributions by
    P. Kraus, H. Kruse, M. H. Lechner, M. C. Schieber, R. A. Shaw,
    A. Alenaizan, R. Galvelis, Z. L. Glick, S. Lehtola, and J. P. Misiewicz

    -----------------------------------------------------------------------


    Psi4 started on: Tuesday, 03 November 2020 12:38AM

    Process ID: 117195
    Host:       node94.bme.utexas.edu
    PSIDATADIR: /home/xy3866/psi4conda/share/psi4
    Memory:     500.0 MiB
    Threads:    8
    
  ==> Input File <==

--------------------------------------------------------------------------
#psi4
#
memory 32 gb

molecule  {
-1 1
  O        1.8996640     1.2894670    -0.0585490
  O        2.6973380    -0.8133440     0.2844750
  C       -2.1007360    -0.3533330    -0.4966910
  C       -3.0415820     0.2042600     0.5765370
  C       -0.7068410     0.1811810    -0.3555730
  C        0.3877500    -0.5533880    -0.1062960
  C        1.7796670     0.0321010     0.0519970
  H       -2.0810980    -1.4485100    -0.4425170
  H       -2.4999350    -0.0921100    -1.4864390
  H       -3.0846480     1.2965650     0.5261450
  H       -4.0584310    -0.1803650     0.4515950
  H       -2.6909580    -0.0729930     1.5749670
  H       -0.5778430     1.2611610    -0.4426850
  H        0.1751269    -1.7876162    -0.0137380
units angstrom
no_reorient  #important for SAPT in psi4, default
symmetry c1  #important for SAPT in psi4, default
}

set PROPERTIES_ORIGIN ["COM"]
properties('MP2/aug-cc-pvtz', properties = ['dipole'])
--------------------------------------------------------------------------

  Memory set to  29.802 GiB by Python driver.
    SCF Algorithm Type (re)set to DF.

*** tstart() called on node94.bme.utexas.edu
*** at Tue Nov  3 00:38:29 2020

   => Loading Basis Set <=

    Name: AUG-CC-PVTZ
    Role: ORBITAL
    Keyword: BASIS
    atoms 1-2  entry O          line   327 file /home/xy3866/psi4conda/share/psi4/basis/aug-cc-pvtz.gbs 
    atoms 3-7  entry C          line   235 file /home/xy3866/psi4conda/share/psi4/basis/aug-cc-pvtz.gbs 
    atoms 8-14 entry H          line    36 file /home/xy3866/psi4conda/share/psi4/basis/aug-cc-pvtz.gbs 


         ---------------------------------------------------------
                                   SCF
               by Justin Turney, Rob Parrish, Andy Simmonett
                          and Daniel G. A. Smith
                              RHF Reference
                        8 Threads,  30517 MiB Core
         ---------------------------------------------------------

  ==> Geometry <==

    Molecular point group: c1
    Full point group: C1

    Geometry (in Angstrom), charge = -1, multiplicity = 1:

       Center              X                  Y                   Z               Mass       
    ------------   -----------------  -----------------  -----------------  -----------------
         O            1.754133460299     1.282262985853    -0.056751753460    15.994914619570
         O            2.551807460299    -0.820548014147     0.286272246540    15.994914619570
         C           -2.246266539701    -0.360537014147    -0.494893753460    12.000000000000
         C           -3.187112539701     0.197055985853     0.578334246540    12.000000000000
         C           -0.852371539701     0.173976985853    -0.353775753460    12.000000000000
         C            0.242219460299    -0.560592014147    -0.104498753460    12.000000000000
         C            1.634136460299     0.024896985853     0.053794246540    12.000000000000
         H           -2.226628539701    -1.455714014147    -0.440719753460     1.007825032230
         H           -2.645465539701    -0.099314014147    -1.484641753460     1.007825032230
         H           -3.230178539701     1.289360985853     0.527942246540     1.007825032230
         H           -4.203961539701    -0.187569014147     0.453392246540     1.007825032230
         H           -2.836488539701    -0.080197014147     1.576764246540     1.007825032230
         H           -0.723373539701     1.253956985853    -0.440887753460     1.007825032230
         H            0.029596360299    -1.794820214147    -0.011940753460     1.007825032230

  Running in c1 symmetry.

  Rotational constants: A =      0.24975  B =      0.03815  C =      0.03525 [cm^-1]
  Rotational constants: A =   7487.41274  B =   1143.72270  C =   1056.71288 [MHz]
  Nuclear repulsion =  270.161630346936704

  Charge       = -1
  Multiplicity = 1
  Electrons    = 54
  Nalpha       = 27
  Nbeta        = 27

  ==> Algorithm <==

  SCF Algorithm Type is DF.
  DIIS enabled.
  MOM disabled.
  Fractional occupation disabled.
  Guess Type is SAD.
  Energy threshold   = 1.00e-10
  Density threshold  = 1.00e-10
  Integral threshold = 0.00e+00

  ==> Primary Basis <==

  Basis Set: AUG-CC-PVTZ
    Blend: AUG-CC-PVTZ
    Number of shells: 161
    Number of basis function: 483
    Number of Cartesian functions: 560
    Spherical Harmonics?: true
    Max angular momentum: 3

   => Loading Basis Set <=

    Name: (AUG-CC-PVTZ AUX)
    Role: JKFIT
    Keyword: DF_BASIS_SCF
    atoms 1-2  entry O          line   286 file /home/xy3866/psi4conda/share/psi4/basis/aug-cc-pvtz-jkfit.gbs 
    atoms 3-7  entry C          line   162 file /home/xy3866/psi4conda/share/psi4/basis/aug-cc-pvtz-jkfit.gbs 
    atoms 8-14 entry H          line    70 file /home/xy3866/psi4conda/share/psi4/basis/aug-cc-pvtz-jkfit.gbs 

  ==> Pre-Iterations <==

   -------------------------------------------------------
    Irrep   Nso     Nmo     Nalpha   Nbeta   Ndocc  Nsocc
   -------------------------------------------------------
     A        483     483       0       0       0       0
   -------------------------------------------------------
    Total     483     483      27      27      27       0
   -------------------------------------------------------

  ==> Integral Setup <==

  DFHelper Memory: AOs need 1.790 GiB; user supplied 22.352 GiB. Using in-core AOs.

  ==> MemDFJK: Density-Fitted J/K Matrices <==

    J tasked:                   Yes
    K tasked:                   Yes
    wK tasked:                   No
    OpenMP threads:               8
    Memory [MiB]:             22888
    Algorithm:                 Core
    Schwarz Cutoff:           1E-12
    Mask sparsity (%):       5.7054
    Fitting Condition:        1E-10

   => Auxiliary Basis Set <=

  Basis Set: (AUG-CC-PVTZ AUX)
    Blend: AUG-CC-PVTZ-JKFIT
    Number of shells: 308
    Number of basis function: 1050
    Number of Cartesian functions: 1302
    Spherical Harmonics?: true
    Max angular momentum: 4

  Minimum eigenvalue in the overlap matrix is 4.0804480360E-06.
  Using Symmetric Orthogonalization.

  SCF Guess: Superposition of Atomic Densities via on-the-fly atomic UHF.

  ==> Iterations <==

                           Total Energy        Delta E     RMS |[F,P]|

   @DF-RHF iter SAD:  -341.77510311509803   -3.41775e+02   0.00000e+00 
   @DF-RHF iter   1:  -342.95523017015228   -1.18013e+00   1.63961e-03 DIIS
   @DF-RHF iter   2:  -343.18510220928709   -2.29872e-01   9.98454e-04 DIIS
   @DF-RHF iter   3:  -343.26481091746564   -7.97087e-02   1.50070e-04 DIIS
   @DF-RHF iter   4:  -343.26811309797085   -3.30218e-03   6.15126e-05 DIIS
   @DF-RHF iter   5:  -343.26872909681521   -6.15999e-04   1.10118e-05 DIIS
   @DF-RHF iter   6:  -343.26875627837808   -2.71816e-05   3.50842e-06 DIIS
   @DF-RHF iter   7:  -343.26875905956166   -2.78118e-06   1.93949e-06 DIIS
   @DF-RHF iter   8:  -343.26875972046082   -6.60899e-07   6.01143e-07 DIIS
   @DF-RHF iter   9:  -343.26875983953801   -1.19077e-07   2.73511e-07 DIIS
   @DF-RHF iter  10:  -343.26875986497026   -2.54323e-08   1.09696e-07 DIIS
   @DF-RHF iter  11:  -343.26875986861063   -3.64037e-09   2.84564e-08 DIIS
   @DF-RHF iter  12:  -343.26875986888086   -2.70234e-10   8.39340e-09 DIIS
   @DF-RHF iter  13:  -343.26875986890394   -2.30784e-11   2.50262e-09 DIIS
   @DF-RHF iter  14:  -343.26875986890400   -5.68434e-14   8.52173e-10 DIIS
   @DF-RHF iter  15:  -343.26875986890576   -1.76215e-12   2.82120e-10 DIIS
   @DF-RHF iter  16:  -343.26875986890462    1.13687e-12   1.10649e-10 DIIS
   @DF-RHF iter  17:  -343.26875986890462    0.00000e+00   4.37533e-11 DIIS
  Energy and wave function converged.


  ==> Post-Iterations <==

    Orbital Energies [Eh]
    ---------------------

    Doubly Occupied:                                                      

       1A    -20.296381     2A    -20.295722     3A    -11.147511  
       4A    -11.115994     5A    -11.114207     6A    -11.089791  
       7A    -11.086535     8A     -1.164281     9A     -1.063418  
      10A     -0.954490    11A     -0.860591    12A     -0.741783  
      13A     -0.627786    14A     -0.547937    15A     -0.495030  
      16A     -0.473744    17A     -0.447499    18A     -0.414755  
      19A     -0.407195    20A     -0.380666    21A     -0.376378  
      22A     -0.360564    23A     -0.336281    24A     -0.214336  
      25A     -0.211136    26A     -0.206658    27A     -0.193318  

    Virtual:                                                              

      28A      0.098723    29A      0.116867    30A      0.117355  
      31A      0.128741    32A      0.136707    33A      0.146759  
      34A      0.153686    35A      0.183628    36A      0.189717  
      37A      0.194949    38A      0.204302    39A      0.218341  
      40A      0.221334    41A      0.222490    42A      0.233516  
      43A      0.237206    44A      0.240305    45A      0.246215  
      46A      0.256615    47A      0.261507    48A      0.273295  
      49A      0.277573    50A      0.285408    51A      0.292401  
      52A      0.296218    53A      0.322689    54A      0.333658  
      55A      0.341331    56A      0.346316    57A      0.351299  
      58A      0.364496    59A      0.374039    60A      0.376642  
      61A      0.382396    62A      0.384762    63A      0.390261  
      64A      0.397691    65A      0.410270    66A      0.416265  
      67A      0.424060    68A      0.429460    69A      0.436977  
      70A      0.441704    71A      0.453279    72A      0.461832  
      73A      0.463811    74A      0.469591    75A      0.473439  
      76A      0.484314    77A      0.489251    78A      0.495972  
      79A      0.502447    80A      0.505707    81A      0.509674  
      82A      0.523116    83A      0.525051    84A      0.531337  
      85A      0.540408    86A      0.545273    87A      0.554741  
      88A      0.559610    89A      0.565575    90A      0.577103  
      91A      0.584360    92A      0.590139    93A      0.593961  
      94A      0.602952    95A      0.611514    96A      0.618034  
      97A      0.620143    98A      0.622844    99A      0.629575  
     100A      0.633247   101A      0.640577   102A      0.651337  
     103A      0.655937   104A      0.675292   105A      0.682341  
     106A      0.686810   107A      0.697497   108A      0.698699  
     109A      0.714157   110A      0.725400   111A      0.735099  
     112A      0.749267   113A      0.759226   114A      0.768129  
     115A      0.782596   116A      0.784797   117A      0.803497  
     118A      0.809695   119A      0.820042   120A      0.849139  
     121A      0.864266   122A      0.869820   123A      0.882894  
     124A      0.887371   125A      0.899348   126A      0.906637  
     127A      0.922625   128A      0.930165   129A      0.942074  
     130A      0.953139   131A      0.956043   132A      0.970203  
     133A      0.975270   134A      0.976627   135A      0.991299  
     136A      0.996126   137A      1.005256   138A      1.014552  
     139A      1.017031   140A      1.026577   141A      1.028320  
     142A      1.048216   143A      1.050862   144A      1.061673  
     145A      1.067067   146A      1.068140   147A      1.071907  
     148A      1.083068   149A      1.087668   150A      1.094056  
     151A      1.110888   152A      1.113917   153A      1.121375  
     154A      1.128763   155A      1.137912   156A      1.142712  
     157A      1.152738   158A      1.160717   159A      1.164931  
     160A      1.170913   161A      1.179337   162A      1.185586  
     163A      1.190270   164A      1.198198   165A      1.208802  
     166A      1.225276   167A      1.230501   168A      1.237146  
     169A      1.242839   170A      1.255648   171A      1.265222  
     172A      1.284339   173A      1.286231   174A      1.291143  
     175A      1.300469   176A      1.307481   177A      1.318526  
     178A      1.331579   179A      1.336432   180A      1.346367  
     181A      1.355511   182A      1.361124   183A      1.372952  
     184A      1.379264   185A      1.394420   186A      1.396829  
     187A      1.404974   188A      1.415431   189A      1.419102  
     190A      1.428533   191A      1.436554   192A      1.459908  
     193A      1.471260   194A      1.485284   195A      1.511070  
     196A      1.516484   197A      1.534745   198A      1.540896  
     199A      1.555840   200A      1.568060   201A      1.596977  
     202A      1.599968   203A      1.606638   204A      1.616008  
     205A      1.622740   206A      1.633728   207A      1.653919  
     208A      1.660743   209A      1.681746   210A      1.694824  
     211A      1.711503   212A      1.722151   213A      1.738101  
     214A      1.739007   215A      1.753317   216A      1.771109  
     217A      1.776406   218A      1.783236   219A      1.797569  
     220A      1.810356   221A      1.812403   222A      1.830224  
     223A      1.846491   224A      1.856404   225A      1.864602  
     226A      1.876389   227A      1.886924   228A      1.892040  
     229A      1.895586   230A      1.911435   231A      1.919918  
     232A      1.943867   233A      1.946117   234A      1.957798  
     235A      1.978989   236A      1.981019   237A      1.994923  
     238A      2.015026   239A      2.026744   240A      2.037773  
     241A      2.053498   242A      2.056888   243A      2.083645  
     244A      2.090099   245A      2.098013   246A      2.108404  
     247A      2.146308   248A      2.153634   249A      2.162559  
     250A      2.172595   251A      2.191258   252A      2.200053  
     253A      2.230455   254A      2.241790   255A      2.258439  
     256A      2.280490   257A      2.290206   258A      2.309583  
     259A      2.329657   260A      2.341024   261A      2.352802  
     262A      2.365734   263A      2.384629   264A      2.390545  
     265A      2.404632   266A      2.420684   267A      2.431164  
     268A      2.450458   269A      2.497973   270A      2.505580  
     271A      2.509249   272A      2.517747   273A      2.532389  
     274A      2.547054   275A      2.574201   276A      2.585250  
     277A      2.594514   278A      2.626858   279A      2.649141  
     280A      2.683050   281A      2.719334   282A      2.734720  
     283A      2.746210   284A      2.751258   285A      2.782365  
     286A      2.794533   287A      2.811485   288A      2.832512  
     289A      2.835173   290A      2.862438   291A      2.911942  
     292A      2.951037   293A      2.981994   294A      2.987069  
     295A      3.019754   296A      3.042903   297A      3.069693  
     298A      3.092622   299A      3.157599   300A      3.161210  
     301A      3.222646   302A      3.229145   303A      3.254604  
     304A      3.297083   305A      3.320121   306A      3.327552  
     307A      3.351190   308A      3.428257   309A      3.453398  
     310A      3.468088   311A      3.494766   312A      3.501832  
     313A      3.525521   314A      3.538226   315A      3.548477  
     316A      3.587693   317A      3.600833   318A      3.604559  
     319A      3.621434   320A      3.645161   321A      3.652397  
     322A      3.674564   323A      3.675474   324A      3.698380  
     325A      3.708344   326A      3.733630   327A      3.751193  
     328A      3.759251   329A      3.763099   330A      3.793503  
     331A      3.801250   332A      3.805328   333A      3.838030  
     334A      3.860250   335A      3.880521   336A      3.889432  
     337A      3.892220   338A      3.924567   339A      3.933769  
     340A      3.937231   341A      3.958281   342A      3.988410  
     343A      4.004093   344A      4.018548   345A      4.035826  
     346A      4.055171   347A      4.066454   348A      4.073493  
     349A      4.083145   350A      4.093126   351A      4.102956  
     352A      4.121015   353A      4.137906   354A      4.155668  
     355A      4.177241   356A      4.194783   357A      4.204483  
     358A      4.231130   359A      4.241262   360A      4.242841  
     361A      4.267048   362A      4.293761   363A      4.299629  
     364A      4.316487   365A      4.345342   366A      4.349111  
     367A      4.369418   368A      4.398965   369A      4.410561  
     370A      4.423835   371A      4.454143   372A      4.470150  
     373A      4.490950   374A      4.500108   375A      4.533539  
     376A      4.555463   377A      4.579154   378A      4.590514  
     379A      4.611089   380A      4.639635   381A      4.657452  
     382A      4.676203   383A      4.703289   384A      4.760085  
     385A      4.774277   386A      4.788051   387A      4.804645  
     388A      4.826552   389A      4.842200   390A      4.854345  
     391A      4.873104   392A      4.896518   393A      4.916213  
     394A      4.945265   395A      4.958797   396A      4.977685  
     397A      4.993165   398A      5.012620   399A      5.022560  
     400A      5.035136   401A      5.066603   402A      5.088530  
     403A      5.107072   404A      5.138557   405A      5.155513  
     406A      5.193696   407A      5.217964   408A      5.236862  
     409A      5.271803   410A      5.289607   411A      5.297234  
     412A      5.315123   413A      5.321887   414A      5.356905  
     415A      5.365411   416A      5.380883   417A      5.409642  
     418A      5.440172   419A      5.490728   420A      5.500112  
     421A      5.508947   422A      5.539836   423A      5.556328  
     424A      5.569697   425A      5.603240   426A      5.604087  
     427A      5.699988   428A      5.714737   429A      5.747500  
     430A      5.770486   431A      5.810423   432A      5.870110  
     433A      5.913238   434A      5.963400   435A      6.038190  
     436A      6.087546   437A      6.115819   438A      6.160993  
     439A      6.224049   440A      6.279347   441A      6.293360  
     442A      6.319645   443A      6.432633   444A      6.477246  
     445A      6.574349   446A      6.618273   447A      6.675244  
     448A      6.754591   449A      6.802224   450A      6.856588  
     451A      6.886001   452A      6.911029   453A      6.931333  
     454A      6.939423   455A      7.018240   456A      7.024504  
     457A      7.130637   458A      7.139118   459A      7.143395  
     460A      7.289381   461A      7.310869   462A      7.317868  
     463A      7.395320   464A      7.549443   465A      7.556396  
     466A      7.591097   467A      7.592376   468A      7.783497  
     469A      7.803767   470A      7.853812   471A      7.915839  
     472A      7.938137   473A      8.084517   474A      8.125371  
     475A      8.173072   476A      8.262153   477A     14.647459  
     478A     15.189841   479A     16.506930   480A     17.788596  
     481A     17.997438   482A     18.580980   483A     19.354182  

    Final Occupation by Irrep:
              A 
    DOCC [    27 ]

  @DF-RHF Final Energy:  -343.26875986890462

   => Energetics <=

    Nuclear Repulsion Energy =            270.1616303469367040
    One-Electron Energy =               -1013.6128082179583316
    Two-Electron Energy =                 400.1824180021170037
    Total Energy =                       -343.2687598689046240

Computation Completed

*** tstop() called on node94.bme.utexas.edu at Tue Nov  3 00:38:43 2020
Module time:
	user time   =      88.45 seconds =       1.47 minutes
	system time =       2.03 seconds =       0.03 minutes
	total time  =         14 seconds =       0.23 minutes
Total time:
	user time   =      88.45 seconds =       1.47 minutes
	system time =       2.03 seconds =       0.03 minutes
	total time  =         14 seconds =       0.23 minutes
   => Loading Basis Set <=

    Name: (AUG-CC-PVTZ AUX)
    Role: RIFIT
    Keyword: DF_BASIS_MP2
    atoms 1-2  entry O          line   264 file /home/xy3866/psi4conda/share/psi4/basis/aug-cc-pvtz-ri.gbs 
    atoms 3-7  entry C          line   148 file /home/xy3866/psi4conda/share/psi4/basis/aug-cc-pvtz-ri.gbs 
    atoms 8-14 entry H          line    30 file /home/xy3866/psi4conda/share/psi4/basis/aug-cc-pvtz-ri.gbs 


*** tstart() called on node94.bme.utexas.edu
*** at Tue Nov  3 00:38:43 2020


  //>>>>>>>>>>>>>>>>>>>>>>>>>>>>>>>>>>>//
  //               DFMP2               //
  //<<<<<<<<<<<<<<<<<<<<<<<<<<<<<<<<<<<//

	 --------------------------------------------------------
	                          DF-MP2                         
	      2nd-Order Density-Fitted Moller-Plesset Theory     
	              RMP2 Wavefunction,   8 Threads             
	                                                         
	        Rob Parrish, Justin Turney, Andy Simmonett,      
	           Ed Hohenstein, and C. David Sherrill          
	 --------------------------------------------------------

   => Auxiliary Basis Set <=

  Basis Set: (AUG-CC-PVTZ AUX)
    Blend: AUG-CC-PVTZ-RI
    Number of shells: 294
    Number of basis function: 1064
    Number of Cartesian functions: 1337
    Spherical Harmonics?: true
    Max angular momentum: 4

	 --------------------------------------------------------
	                 NBF =   483, NAUX =  1064
	 --------------------------------------------------------
	   CLASS    FOCC     OCC    AOCC    AVIR     VIR    FVIR
	   PAIRS       0      27      27     456     456       0
	 --------------------------------------------------------

  DFHelper Memory: AOs need 1.790 GiB; user supplied 22.352 GiB. Using in-core AOs.


         ------------------------------------------------------------
                                     CPHF                           
                                  Rob Parrish                       
         ------------------------------------------------------------

  ==> Geometry <==

    Molecular point group: c1
    Full point group: C1

    Geometry (in Angstrom), charge = -1, multiplicity = 1:

       Center              X                  Y                   Z               Mass       
    ------------   -----------------  -----------------  -----------------  -----------------
         O            1.754133460299     1.282262985853    -0.056751753460    15.994914619570
         O            2.551807460299    -0.820548014147     0.286272246540    15.994914619570
         C           -2.246266539701    -0.360537014147    -0.494893753460    12.000000000000
         C           -3.187112539701     0.197055985853     0.578334246540    12.000000000000
         C           -0.852371539701     0.173976985853    -0.353775753460    12.000000000000
         C            0.242219460299    -0.560592014147    -0.104498753460    12.000000000000
         C            1.634136460299     0.024896985853     0.053794246540    12.000000000000
         H           -2.226628539701    -1.455714014147    -0.440719753460     1.007825032230
         H           -2.645465539701    -0.099314014147    -1.484641753460     1.007825032230
         H           -3.230178539701     1.289360985853     0.527942246540     1.007825032230
         H           -4.203961539701    -0.187569014147     0.453392246540     1.007825032230
         H           -2.836488539701    -0.080197014147     1.576764246540     1.007825032230
         H           -0.723373539701     1.253956985853    -0.440887753460     1.007825032230
         H            0.029596360299    -1.794820214147    -0.011940753460     1.007825032230

  Nuclear repulsion =  270.161630346936704
  Reference energy  = -343.268759868904624

  ==> Basis Set <==

  Basis Set: AUG-CC-PVTZ
    Blend: AUG-CC-PVTZ
    Number of shells: 161
    Number of basis function: 483
    Number of Cartesian functions: 560
    Spherical Harmonics?: true
    Max angular momentum: 3

  ==> CGRSolver (by Rob Parrish) <==

   Number of roots    =         1
   Preconditioning    =    JACOBI
   Convergence cutoff =     1E-06
   Maximum iterations =       100

  ==> CPHFRHamiltonian (by Rob Parrish) <== 

  ==> MemDFJK: Density-Fitted J/K Matrices <==

    J tasked:                   Yes
    K tasked:                   Yes
    wK tasked:                   No
    OpenMP threads:               8
    Memory [MiB]:             22888
    Algorithm:                 Core
    Schwarz Cutoff:           1E-12
    Mask sparsity (%):       5.7054
    Fitting Condition:        1E-10

   => Auxiliary Basis Set <=

  Basis Set: (AUG-CC-PVTZ AUX)
    Blend: AUG-CC-PVTZ-JKFIT
    Number of shells: 308
    Number of basis function: 1050
    Number of Cartesian functions: 1302
    Spherical Harmonics?: true
    Max angular momentum: 4

  ==> CPHF Iterations <==

  => Iterations <=

             Iter  Converged  Remaining    Residual
  CGR           1          0          1   1.162E-01
  CGR           2          0          1   3.292E-02
  CGR           3          0          1   1.339E-02
  CGR           4          0          1   3.831E-03
  CGR           5          0          1   1.665E-03
  CGR           6          0          1   6.019E-04
  CGR           7          0          1   1.694E-04
  CGR           8          0          1   7.785E-05
  CGR           9          0          1   2.655E-05
  CGR          10          0          1   8.826E-06
  CGR          11          0          1   2.669E-06
  CGR          12          1          0   6.836E-07

    CGRSolver converged.

	-----------------------------------------------------------
	 ==================> DF-MP2 Energies <==================== 
	-----------------------------------------------------------
	 Reference Energy          =    -343.2687598689046240 [Eh]
	 Singles Energy            =      -0.0000000000000000 [Eh]
	 Same-Spin Energy          =      -0.3487814713047507 [Eh]
	 Opposite-Spin Energy      =      -1.1075042525859617 [Eh]
	 Correlation Energy        =      -1.4562857238907125 [Eh]
	 Total Energy              =    -344.7250455927953112 [Eh]
	-----------------------------------------------------------
	 ================> DF-SCS-MP2 Energies <================== 
	-----------------------------------------------------------
	 SCS Same-Spin Scale       =       0.3333333333333333 [-]
	 SCS Opposite-Spin Scale   =       1.2000000000000000 [-]
	 SCS Same-Spin Energy      =      -0.1162604904349169 [Eh]
	 SCS Opposite-Spin Energy  =      -1.3290051031031540 [Eh]
	 SCS Correlation Energy    =      -1.4452655935380709 [Eh]
	 SCS Total Energy          =    -344.7140254624426916 [Eh]
	-----------------------------------------------------------



Properties will be evaluated at   0.000000,   0.000000,   0.000000 [a0]

Properties computed using the MP2 density matrix

  Nuclear Dipole Moment: [e a0]
     X:   -14.8255      Y:    -1.0049      Z:     0.1698

  Electronic Dipole Moment: [e a0]
     X:    11.1119      Y:     0.6285      Z:    -0.4007

  Dipole Moment: [e a0]
     X:    -3.7136      Y:    -0.3764      Z:    -0.2309     Total:     3.7398

  Dipole Moment: [D]
     X:    -9.4391      Y:    -0.9568      Z:    -0.5869     Total:     9.5056


*** tstop() called on node94.bme.utexas.edu at Tue Nov  3 00:39:58 2020
Module time:
	user time   =     292.68 seconds =       4.88 minutes
	system time =       6.83 seconds =       0.11 minutes
	total time  =         75 seconds =       1.25 minutes
Total time:
	user time   =     382.17 seconds =       6.37 minutes
	system time =       8.89 seconds =       0.15 minutes
	total time  =         89 seconds =       1.48 minutes

    Psi4 stopped on: Tuesday, 03 November 2020 12:39AM
    Psi4 wall time for execution: 0:01:29.54

*** Psi4 exiting successfully. Buy a developer a beer!
