
    -----------------------------------------------------------------------
          Psi4: An Open-Source Ab Initio Electronic Structure Package
                               Psi4 1.3.2 release

                         Git: Rev {HEAD} ecbda83 


    R. M. Parrish, L. A. Burns, D. G. A. Smith, A. C. Simmonett,
    A. E. DePrince III, E. G. Hohenstein, U. Bozkaya, A. Yu. Sokolov,
    R. Di Remigio, R. M. Richard, J. F. Gonthier, A. M. James,
    H. R. McAlexander, A. Kumar, M. Saitow, X. Wang, B. P. Pritchard,
    P. Verma, H. F. Schaefer III, K. Patkowski, R. A. King, E. F. Valeev,
    F. A. Evangelista, J. M. Turney, T. D. Crawford, and C. D. Sherrill,
    J. Chem. Theory Comput. 13(7) pp 3185--3197 (2017).
    (doi: 10.1021/acs.jctc.7b00174)


                         Additional Contributions by
    P. Kraus, H. Kruse, M. H. Lechner, M. C. Schieber, R. A. Shaw,
    A. Alenaizan, R. Galvelis, Z. L. Glick, S. Lehtola, and J. P. Misiewicz

    -----------------------------------------------------------------------


    Psi4 started on: Monday, 02 November 2020 10:02PM

    Process ID: 99745
    Host:       node94.bme.utexas.edu
    PSIDATADIR: /home/xy3866/psi4conda/share/psi4
    Memory:     500.0 MiB
    Threads:    8
    
  ==> Input File <==

--------------------------------------------------------------------------
#psi4
#
memory 32 gb

molecule  {
-1 1
  O        1.8342387     1.2930234    -0.0691872
  O        2.6973380    -0.8133440     0.2844750
  C       -2.1007360    -0.3533330    -0.4966910
  C       -3.0415820     0.2042600     0.5765370
  C       -0.7068410     0.1811810    -0.3555730
  C        0.3603794    -0.4797105    -0.1181750
  C        1.7796670     0.0321010     0.0519970
  H       -2.0810980    -1.4485100    -0.4425170
  H       -2.4999350    -0.0921100    -1.4864390
  H       -3.0846480     1.2965650     0.5261450
  H       -4.0584310    -0.1803650     0.4515950
  H       -2.6909580    -0.0729930     1.5749670
  H       -0.5778430     1.2611610    -0.4426850
  H        0.3073520    -1.6376590    -0.0083210
units angstrom
no_reorient  #important for SAPT in psi4, default
symmetry c1  #important for SAPT in psi4, default
}

set PROPERTIES_ORIGIN ["COM"]
properties('MP2/aug-cc-pvtz', properties = ['dipole'])
--------------------------------------------------------------------------

  Memory set to  29.802 GiB by Python driver.
    SCF Algorithm Type (re)set to DF.

*** tstart() called on node94.bme.utexas.edu
*** at Mon Nov  2 22:02:37 2020

   => Loading Basis Set <=

    Name: AUG-CC-PVTZ
    Role: ORBITAL
    Keyword: BASIS
    atoms 1-2  entry O          line   327 file /home/xy3866/psi4conda/share/psi4/basis/aug-cc-pvtz.gbs 
    atoms 3-7  entry C          line   235 file /home/xy3866/psi4conda/share/psi4/basis/aug-cc-pvtz.gbs 
    atoms 8-14 entry H          line    36 file /home/xy3866/psi4conda/share/psi4/basis/aug-cc-pvtz.gbs 


         ---------------------------------------------------------
                                   SCF
               by Justin Turney, Rob Parrish, Andy Simmonett
                          and Daniel G. A. Smith
                              RHF Reference
                        8 Threads,  30517 MiB Core
         ---------------------------------------------------------

  ==> Geometry <==

    Molecular point group: c1
    Full point group: C1

    Geometry (in Angstrom), charge = -1, multiplicity = 1:

       Center              X                  Y                   Z               Mass       
    ------------   -----------------  -----------------  -----------------  -----------------
         O            1.701244527409     1.274792586966    -0.064287859064    15.994914619570
         O            2.564343827409    -0.831574813034     0.289374340936    15.994914619570
         C           -2.233730172591    -0.371563813034    -0.491791659064    12.000000000000
         C           -3.174576172591     0.186029186966     0.581436340936    12.000000000000
         C           -0.839835172591     0.162950186966    -0.350673659064    12.000000000000
         C            0.227385227409    -0.497941313034    -0.113275659064    12.000000000000
         C            1.646672827409     0.013870186966     0.056896340936    12.000000000000
         H           -2.214092172591    -1.466740813034    -0.437617659064     1.007825032230
         H           -2.632929172591    -0.110340813034    -1.481539659064     1.007825032230
         H           -3.217642172591     1.278334186966     0.531044340936     1.007825032230
         H           -4.191425172591    -0.198595813034     0.456494340936     1.007825032230
         H           -2.823952172591    -0.091223813034     1.579866340936     1.007825032230
         H           -0.710837172591     1.242930186966    -0.437785659064     1.007825032230
         H            0.174357827409    -1.655889813034    -0.003421659064     1.007825032230

  Running in c1 symmetry.

  Rotational constants: A =      0.25448  B =      0.03847  C =      0.03562 [cm^-1]
  Rotational constants: A =   7629.16496  B =   1153.39897  C =   1067.98019 [MHz]
  Nuclear repulsion =  272.081476497646065

  Charge       = -1
  Multiplicity = 1
  Electrons    = 54
  Nalpha       = 27
  Nbeta        = 27

  ==> Algorithm <==

  SCF Algorithm Type is DF.
  DIIS enabled.
  MOM disabled.
  Fractional occupation disabled.
  Guess Type is SAD.
  Energy threshold   = 1.00e-10
  Density threshold  = 1.00e-10
  Integral threshold = 0.00e+00

  ==> Primary Basis <==

  Basis Set: AUG-CC-PVTZ
    Blend: AUG-CC-PVTZ
    Number of shells: 161
    Number of basis function: 483
    Number of Cartesian functions: 560
    Spherical Harmonics?: true
    Max angular momentum: 3

   => Loading Basis Set <=

    Name: (AUG-CC-PVTZ AUX)
    Role: JKFIT
    Keyword: DF_BASIS_SCF
    atoms 1-2  entry O          line   286 file /home/xy3866/psi4conda/share/psi4/basis/aug-cc-pvtz-jkfit.gbs 
    atoms 3-7  entry C          line   162 file /home/xy3866/psi4conda/share/psi4/basis/aug-cc-pvtz-jkfit.gbs 
    atoms 8-14 entry H          line    70 file /home/xy3866/psi4conda/share/psi4/basis/aug-cc-pvtz-jkfit.gbs 

  ==> Pre-Iterations <==

   -------------------------------------------------------
    Irrep   Nso     Nmo     Nalpha   Nbeta   Ndocc  Nsocc
   -------------------------------------------------------
     A        483     483       0       0       0       0
   -------------------------------------------------------
    Total     483     483      27      27      27       0
   -------------------------------------------------------

  ==> Integral Setup <==

  DFHelper Memory: AOs need 1.792 GiB; user supplied 22.352 GiB. Using in-core AOs.

  ==> MemDFJK: Density-Fitted J/K Matrices <==

    J tasked:                   Yes
    K tasked:                   Yes
    wK tasked:                   No
    OpenMP threads:               8
    Memory [MiB]:             22888
    Algorithm:                 Core
    Schwarz Cutoff:           1E-12
    Mask sparsity (%):       5.6214
    Fitting Condition:        1E-10

   => Auxiliary Basis Set <=

  Basis Set: (AUG-CC-PVTZ AUX)
    Blend: AUG-CC-PVTZ-JKFIT
    Number of shells: 308
    Number of basis function: 1050
    Number of Cartesian functions: 1302
    Spherical Harmonics?: true
    Max angular momentum: 4

  Minimum eigenvalue in the overlap matrix is 3.0679430766E-06.
  Using Symmetric Orthogonalization.

  SCF Guess: Superposition of Atomic Densities via on-the-fly atomic UHF.

  ==> Iterations <==

                           Total Energy        Delta E     RMS |[F,P]|

   @DF-RHF iter SAD:  -341.91927771117508   -3.41919e+02   0.00000e+00 
   @DF-RHF iter   1:  -342.96102003197177   -1.04174e+00   1.65307e-03 DIIS
   @DF-RHF iter   2:  -343.19513950399494   -2.34119e-01   9.86157e-04 DIIS
   @DF-RHF iter   3:  -343.27354793488701   -7.84084e-02   1.49139e-04 DIIS
   @DF-RHF iter   4:  -343.27679149442514   -3.24356e-03   6.14868e-05 DIIS
   @DF-RHF iter   5:  -343.27739487103321   -6.03377e-04   1.10292e-05 DIIS
   @DF-RHF iter   6:  -343.27742230592196   -2.74349e-05   4.34231e-06 DIIS
   @DF-RHF iter   7:  -343.27742546449343   -3.15857e-06   1.90137e-06 DIIS
   @DF-RHF iter   8:  -343.27742623692706   -7.72434e-07   5.74673e-07 DIIS
   @DF-RHF iter   9:  -343.27742635472953   -1.17802e-07   1.87188e-07 DIIS
   @DF-RHF iter  10:  -343.27742637115188   -1.64223e-08   7.87309e-08 DIIS
   @DF-RHF iter  11:  -343.27742637284734   -1.69547e-09   2.07361e-08 DIIS
   @DF-RHF iter  12:  -343.27742637297519   -1.27841e-10   7.75673e-09 DIIS
   @DF-RHF iter  13:  -343.27742637299070   -1.55183e-11   2.38581e-09 DIIS
   @DF-RHF iter  14:  -343.27742637299332   -2.61480e-12   9.20507e-10 DIIS
   @DF-RHF iter  15:  -343.27742637299298    3.41061e-13   3.23762e-10 DIIS
   @DF-RHF iter  16:  -343.27742637299298    0.00000e+00   1.17972e-10 DIIS
   @DF-RHF iter  17:  -343.27742637299207    9.09495e-13   4.10606e-11 DIIS
  Energy and wave function converged.


  ==> Post-Iterations <==

    Orbital Energies [Eh]
    ---------------------

    Doubly Occupied:                                                      

       1A    -20.302105     2A    -20.293221     3A    -11.144940  
       4A    -11.114595     5A    -11.112648     6A    -11.072332  
       7A    -11.063372     8A     -1.163814     9A     -1.068065  
      10A     -0.956899    11A     -0.869856    12A     -0.741497  
      13A     -0.630184    14A     -0.547483    15A     -0.496034  
      16A     -0.478474    17A     -0.449020    18A     -0.418598  
      19A     -0.407829    20A     -0.382475    21A     -0.379840  
      22A     -0.361387    23A     -0.330406    24A     -0.218206  
      25A     -0.217724    26A     -0.205548    27A     -0.194994  

    Virtual:                                                              

      28A      0.099049    29A      0.117260    30A      0.117952  
      31A      0.129101    32A      0.137002    33A      0.147332  
      34A      0.153915    35A      0.184133    36A      0.189821  
      37A      0.195174    38A      0.203903    39A      0.218087  
      40A      0.221853    41A      0.222472    42A      0.232511  
      43A      0.238972    44A      0.241165    45A      0.246133  
      46A      0.257339    47A      0.262334    48A      0.274169  
      49A      0.278835    50A      0.285803    51A      0.294658  
      52A      0.304423    53A      0.322888    54A      0.334843  
      55A      0.341671    56A      0.348125    57A      0.352536  
      58A      0.365084    59A      0.374806    60A      0.375232  
      61A      0.381760    62A      0.386445    63A      0.390596  
      64A      0.400404    65A      0.415457    66A      0.417667  
      67A      0.426538    68A      0.429502    69A      0.435919  
      70A      0.448945    71A      0.454895    72A      0.464448  
      73A      0.464844    74A      0.472914    75A      0.476074  
      76A      0.486063    77A      0.490203    78A      0.497255  
      79A      0.502616    80A      0.507506    81A      0.512571  
      82A      0.524428    83A      0.526848    84A      0.533851  
      85A      0.539961    86A      0.548094    87A      0.557748  
      88A      0.560392    89A      0.569096    90A      0.575732  
      91A      0.584376    92A      0.593812    93A      0.596905  
      94A      0.605550    95A      0.613555    96A      0.616659  
      97A      0.619995    98A      0.624481    99A      0.631126  
     100A      0.635768   101A      0.645327   102A      0.653071  
     103A      0.667663   104A      0.678441   105A      0.684174  
     106A      0.688437   107A      0.697027   108A      0.699527  
     109A      0.719060   110A      0.727984   111A      0.740569  
     112A      0.748083   113A      0.757944   114A      0.770000  
     115A      0.787448   116A      0.789120   117A      0.804394  
     118A      0.812968   119A      0.826956   120A      0.849752  
     121A      0.850709   122A      0.872185   123A      0.880437  
     124A      0.887715   125A      0.894779   126A      0.907960  
     127A      0.921411   128A      0.939899   129A      0.943360  
     130A      0.955406   131A      0.963775   132A      0.973886  
     133A      0.980513   134A      0.988078   135A      0.993505  
     136A      0.999378   137A      1.007873   138A      1.016741  
     139A      1.022469   140A      1.026200   141A      1.033192  
     142A      1.047646   143A      1.052310   144A      1.061812  
     145A      1.065490   146A      1.070319   147A      1.073244  
     148A      1.085749   149A      1.089766   150A      1.095333  
     151A      1.116600   152A      1.120548   153A      1.130829  
     154A      1.131862   155A      1.137153   156A      1.149954  
     157A      1.158335   158A      1.161396   159A      1.166554  
     160A      1.171292   161A      1.184387   162A      1.190423  
     163A      1.197024   164A      1.210599   165A      1.222528  
     166A      1.225029   167A      1.237745   168A      1.239109  
     169A      1.245396   170A      1.258317   171A      1.268326  
     172A      1.285861   173A      1.295919   174A      1.299428  
     175A      1.308300   176A      1.316899   177A      1.326895  
     178A      1.330489   179A      1.333029   180A      1.349716  
     181A      1.352498   182A      1.370306   183A      1.374620  
     184A      1.384004   185A      1.396451   186A      1.401380  
     187A      1.409699   188A      1.423061   189A      1.427601  
     190A      1.436130   191A      1.454011   192A      1.469347  
     193A      1.475421   194A      1.509729   195A      1.519489  
     196A      1.520516   197A      1.538545   198A      1.549840  
     199A      1.561458   200A      1.565094   201A      1.593640  
     202A      1.604260   203A      1.619017   204A      1.627500  
     205A      1.630455   206A      1.633263   207A      1.657505  
     208A      1.662153   209A      1.696345   210A      1.704132  
     211A      1.721095   212A      1.730051   213A      1.742703  
     214A      1.748112   215A      1.768094   216A      1.777082  
     217A      1.778824   218A      1.785232   219A      1.800503  
     220A      1.818315   221A      1.835379   222A      1.838258  
     223A      1.858554   224A      1.863936   225A      1.871218  
     226A      1.881752   227A      1.893600   228A      1.905676  
     229A      1.909171   230A      1.920292   231A      1.943378  
     232A      1.948614   233A      1.952905   234A      1.982437  
     235A      1.985384   236A      1.997473   237A      2.009225  
     238A      2.030656   239A      2.044924   240A      2.052062  
     241A      2.058539   242A      2.077501   243A      2.091636  
     244A      2.096585   245A      2.102735   246A      2.117707  
     247A      2.150894   248A      2.158854   249A      2.172576  
     250A      2.184304   251A      2.203243   252A      2.210082  
     253A      2.232239   254A      2.241623   255A      2.262496  
     256A      2.287168   257A      2.294605   258A      2.326910  
     259A      2.329733   260A      2.350321   261A      2.352225  
     262A      2.381395   263A      2.393843   264A      2.398513  
     265A      2.411994   266A      2.424545   267A      2.440573  
     268A      2.456609   269A      2.502036   270A      2.521588  
     271A      2.526248   272A      2.535297   273A      2.543229  
     274A      2.568722   275A      2.588187   276A      2.595681  
     277A      2.610768   278A      2.627658   279A      2.655255  
     280A      2.692325   281A      2.726672   282A      2.740518  
     283A      2.749016   284A      2.767802   285A      2.778627  
     286A      2.799834   287A      2.819909   288A      2.834925  
     289A      2.859159   290A      2.864133   291A      2.912543  
     292A      2.968991   293A      2.985768   294A      2.987977  
     295A      3.016281   296A      3.076997   297A      3.090834  
     298A      3.117815   299A      3.148941   300A      3.170120  
     301A      3.239495   302A      3.260567   303A      3.276758  
     304A      3.288992   305A      3.308263   306A      3.334733  
     307A      3.368859   308A      3.428006   309A      3.458637  
     310A      3.474658   311A      3.513963   312A      3.515792  
     313A      3.530312   314A      3.554205   315A      3.561374  
     316A      3.594282   317A      3.616330   318A      3.629595  
     319A      3.641703   320A      3.646394   321A      3.650307  
     322A      3.675509   323A      3.682502   324A      3.712150  
     325A      3.716014   326A      3.739644   327A      3.750537  
     328A      3.779788   329A      3.785824   330A      3.802552  
     331A      3.815216   332A      3.828994   333A      3.838481  
     334A      3.858259   335A      3.887534   336A      3.899138  
     337A      3.908978   338A      3.925752   339A      3.933304  
     340A      3.947857   341A      3.974203   342A      4.007234  
     343A      4.029325   344A      4.035009   345A      4.059888  
     346A      4.072057   347A      4.075270   348A      4.085420  
     349A      4.096489   350A      4.109971   351A      4.122434  
     352A      4.129937   353A      4.154872   354A      4.162011  
     355A      4.191430   356A      4.207310   357A      4.236629  
     358A      4.244098   359A      4.255746   360A      4.263228  
     361A      4.280464   362A      4.302025   363A      4.321807  
     364A      4.334543   365A      4.360436   366A      4.372850  
     367A      4.381868   368A      4.406718   369A      4.416123  
     370A      4.441732   371A      4.455267   372A      4.475498  
     373A      4.505371   374A      4.516916   375A      4.558359  
     376A      4.573336   377A      4.589911   378A      4.604625  
     379A      4.625386   380A      4.665296   381A      4.685064  
     382A      4.718930   383A      4.725214   384A      4.779974  
     385A      4.784047   386A      4.795692   387A      4.812952  
     388A      4.858044   389A      4.879946   390A      4.882437  
     391A      4.893803   392A      4.933119   393A      4.957014  
     394A      4.959734   395A      5.007633   396A      5.013383  
     397A      5.030687   398A      5.076973   399A      5.081202  
     400A      5.092762   401A      5.110324   402A      5.131500  
     403A      5.146580   404A      5.166234   405A      5.198580  
     406A      5.233772   407A      5.256693   408A      5.286837  
     409A      5.301315   410A      5.313501   411A      5.325329  
     412A      5.347891   413A      5.365802   414A      5.380919  
     415A      5.422859   416A      5.426719   417A      5.478784  
     418A      5.484676   419A      5.506803   420A      5.520430  
     421A      5.534733   422A      5.585951   423A      5.595853  
     424A      5.613341   425A      5.653843   426A      5.694756  
     427A      5.715671   428A      5.757486   429A      5.776339  
     430A      5.814027   431A      5.875177   432A      5.891009  
     433A      5.939251   434A      5.980856   435A      6.068823  
     436A      6.116715   437A      6.132527   438A      6.219598  
     439A      6.280623   440A      6.284639   441A      6.321467  
     442A      6.333729   443A      6.458332   444A      6.480639  
     445A      6.629099   446A      6.661681   447A      6.719230  
     448A      6.832496   449A      6.855729   450A      6.876162  
     451A      6.901643   452A      6.928655   453A      6.938591  
     454A      6.958608   455A      7.038191   456A      7.043002  
     457A      7.133568   458A      7.136559   459A      7.149304  
     460A      7.298460   461A      7.336083   462A      7.339106  
     463A      7.387096   464A      7.556838   465A      7.566026  
     466A      7.578399   467A      7.589685   468A      7.818453  
     469A      7.856379   470A      7.863660   471A      7.919120  
     472A      7.928234   473A      8.064588   474A      8.118007  
     475A      8.223220   476A      8.271857   477A     15.118951  
     478A     15.326678   479A     17.277649   480A     18.005920  
     481A     18.589171   482A     18.892431   483A     19.698306  

    Final Occupation by Irrep:
              A 
    DOCC [    27 ]

  @DF-RHF Final Energy:  -343.27742637299207

   => Energetics <=

    Nuclear Repulsion Energy =            272.0814764976460651
    One-Electron Energy =               -1017.4747099639208727
    Two-Electron Energy =                 402.1158070932826831
    Total Energy =                       -343.2774263729920676

Computation Completed

*** tstop() called on node94.bme.utexas.edu at Mon Nov  2 22:02:50 2020
Module time:
	user time   =      85.69 seconds =       1.43 minutes
	system time =       2.05 seconds =       0.03 minutes
	total time  =         13 seconds =       0.22 minutes
Total time:
	user time   =      85.69 seconds =       1.43 minutes
	system time =       2.05 seconds =       0.03 minutes
	total time  =         13 seconds =       0.22 minutes
   => Loading Basis Set <=

    Name: (AUG-CC-PVTZ AUX)
    Role: RIFIT
    Keyword: DF_BASIS_MP2
    atoms 1-2  entry O          line   264 file /home/xy3866/psi4conda/share/psi4/basis/aug-cc-pvtz-ri.gbs 
    atoms 3-7  entry C          line   148 file /home/xy3866/psi4conda/share/psi4/basis/aug-cc-pvtz-ri.gbs 
    atoms 8-14 entry H          line    30 file /home/xy3866/psi4conda/share/psi4/basis/aug-cc-pvtz-ri.gbs 


*** tstart() called on node94.bme.utexas.edu
*** at Mon Nov  2 22:02:50 2020


  //>>>>>>>>>>>>>>>>>>>>>>>>>>>>>>>>>>>//
  //               DFMP2               //
  //<<<<<<<<<<<<<<<<<<<<<<<<<<<<<<<<<<<//

	 --------------------------------------------------------
	                          DF-MP2                         
	      2nd-Order Density-Fitted Moller-Plesset Theory     
	              RMP2 Wavefunction,   8 Threads             
	                                                         
	        Rob Parrish, Justin Turney, Andy Simmonett,      
	           Ed Hohenstein, and C. David Sherrill          
	 --------------------------------------------------------

   => Auxiliary Basis Set <=

  Basis Set: (AUG-CC-PVTZ AUX)
    Blend: AUG-CC-PVTZ-RI
    Number of shells: 294
    Number of basis function: 1064
    Number of Cartesian functions: 1337
    Spherical Harmonics?: true
    Max angular momentum: 4

	 --------------------------------------------------------
	                 NBF =   483, NAUX =  1064
	 --------------------------------------------------------
	   CLASS    FOCC     OCC    AOCC    AVIR     VIR    FVIR
	   PAIRS       0      27      27     456     456       0
	 --------------------------------------------------------

  DFHelper Memory: AOs need 1.792 GiB; user supplied 22.352 GiB. Using in-core AOs.


         ------------------------------------------------------------
                                     CPHF                           
                                  Rob Parrish                       
         ------------------------------------------------------------

  ==> Geometry <==

    Molecular point group: c1
    Full point group: C1

    Geometry (in Angstrom), charge = -1, multiplicity = 1:

       Center              X                  Y                   Z               Mass       
    ------------   -----------------  -----------------  -----------------  -----------------
         O            1.701244527409     1.274792586966    -0.064287859064    15.994914619570
         O            2.564343827409    -0.831574813034     0.289374340936    15.994914619570
         C           -2.233730172591    -0.371563813034    -0.491791659064    12.000000000000
         C           -3.174576172591     0.186029186966     0.581436340936    12.000000000000
         C           -0.839835172591     0.162950186966    -0.350673659064    12.000000000000
         C            0.227385227409    -0.497941313034    -0.113275659064    12.000000000000
         C            1.646672827409     0.013870186966     0.056896340936    12.000000000000
         H           -2.214092172591    -1.466740813034    -0.437617659064     1.007825032230
         H           -2.632929172591    -0.110340813034    -1.481539659064     1.007825032230
         H           -3.217642172591     1.278334186966     0.531044340936     1.007825032230
         H           -4.191425172591    -0.198595813034     0.456494340936     1.007825032230
         H           -2.823952172591    -0.091223813034     1.579866340936     1.007825032230
         H           -0.710837172591     1.242930186966    -0.437785659064     1.007825032230
         H            0.174357827409    -1.655889813034    -0.003421659064     1.007825032230

  Nuclear repulsion =  272.081476497646065
  Reference energy  = -343.277426372992068

  ==> Basis Set <==

  Basis Set: AUG-CC-PVTZ
    Blend: AUG-CC-PVTZ
    Number of shells: 161
    Number of basis function: 483
    Number of Cartesian functions: 560
    Spherical Harmonics?: true
    Max angular momentum: 3

  ==> CGRSolver (by Rob Parrish) <==

   Number of roots    =         1
   Preconditioning    =    JACOBI
   Convergence cutoff =     1E-06
   Maximum iterations =       100

  ==> CPHFRHamiltonian (by Rob Parrish) <== 

  ==> MemDFJK: Density-Fitted J/K Matrices <==

    J tasked:                   Yes
    K tasked:                   Yes
    wK tasked:                   No
    OpenMP threads:               8
    Memory [MiB]:             22888
    Algorithm:                 Core
    Schwarz Cutoff:           1E-12
    Mask sparsity (%):       5.6214
    Fitting Condition:        1E-10

   => Auxiliary Basis Set <=

  Basis Set: (AUG-CC-PVTZ AUX)
    Blend: AUG-CC-PVTZ-JKFIT
    Number of shells: 308
    Number of basis function: 1050
    Number of Cartesian functions: 1302
    Spherical Harmonics?: true
    Max angular momentum: 4

  ==> CPHF Iterations <==

  => Iterations <=

             Iter  Converged  Remaining    Residual
  CGR           1          0          1   1.152E-01
  CGR           2          0          1   3.199E-02
  CGR           3          0          1   1.281E-02
  CGR           4          0          1   3.523E-03
  CGR           5          0          1   1.385E-03
  CGR           6          0          1   5.066E-04
  CGR           7          0          1   1.710E-04
  CGR           8          0          1   6.860E-05
  CGR           9          0          1   2.027E-05
  CGR          10          0          1   6.524E-06
  CGR          11          0          1   2.135E-06
  CGR          12          1          0   5.873E-07

    CGRSolver converged.

	-----------------------------------------------------------
	 ==================> DF-MP2 Energies <==================== 
	-----------------------------------------------------------
	 Reference Energy          =    -343.2774263729920676 [Eh]
	 Singles Energy            =      -0.0000000000000000 [Eh]
	 Same-Spin Energy          =      -0.3481482887384841 [Eh]
	 Opposite-Spin Energy      =      -1.1051314917767723 [Eh]
	 Correlation Energy        =      -1.4532797805152564 [Eh]
	 Total Energy              =    -344.7307061535072989 [Eh]
	-----------------------------------------------------------
	 ================> DF-SCS-MP2 Energies <================== 
	-----------------------------------------------------------
	 SCS Same-Spin Scale       =       0.3333333333333333 [-]
	 SCS Opposite-Spin Scale   =       1.2000000000000000 [-]
	 SCS Same-Spin Energy      =      -0.1160494295794947 [Eh]
	 SCS Opposite-Spin Energy  =      -1.3261577901321266 [Eh]
	 SCS Correlation Energy    =      -1.4422072197116214 [Eh]
	 SCS Total Energy          =    -344.7196335927037012 [Eh]
	-----------------------------------------------------------



Properties will be evaluated at   0.000000,   0.000000,  -0.000000 [a0]

Properties computed using the MP2 density matrix

  Nuclear Dipole Moment: [e a0]
     X:   -14.6195      Y:    -0.9368      Z:     0.1952

  Electronic Dipole Moment: [e a0]
     X:    10.9658      Y:     0.5444      Z:    -0.4157

  Dipole Moment: [e a0]
     X:    -3.6538      Y:    -0.3924      Z:    -0.2205     Total:     3.6814

  Dipole Moment: [D]
     X:    -9.2869      Y:    -0.9973      Z:    -0.5604     Total:     9.3571


*** tstop() called on node94.bme.utexas.edu at Mon Nov  2 22:03:35 2020
Module time:
	user time   =     288.91 seconds =       4.82 minutes
	system time =       6.59 seconds =       0.11 minutes
	total time  =         45 seconds =       0.75 minutes
Total time:
	user time   =     375.67 seconds =       6.26 minutes
	system time =       8.69 seconds =       0.14 minutes
	total time  =         58 seconds =       0.97 minutes

    Psi4 stopped on: Monday, 02 November 2020 10:03PM
    Psi4 wall time for execution: 0:00:58.70

*** Psi4 exiting successfully. Buy a developer a beer!
