
    -----------------------------------------------------------------------
          Psi4: An Open-Source Ab Initio Electronic Structure Package
                               Psi4 1.3.2 release

                         Git: Rev {HEAD} ecbda83 


    R. M. Parrish, L. A. Burns, D. G. A. Smith, A. C. Simmonett,
    A. E. DePrince III, E. G. Hohenstein, U. Bozkaya, A. Yu. Sokolov,
    R. Di Remigio, R. M. Richard, J. F. Gonthier, A. M. James,
    H. R. McAlexander, A. Kumar, M. Saitow, X. Wang, B. P. Pritchard,
    P. Verma, H. F. Schaefer III, K. Patkowski, R. A. King, E. F. Valeev,
    F. A. Evangelista, J. M. Turney, T. D. Crawford, and C. D. Sherrill,
    J. Chem. Theory Comput. 13(7) pp 3185--3197 (2017).
    (doi: 10.1021/acs.jctc.7b00174)


                         Additional Contributions by
    P. Kraus, H. Kruse, M. H. Lechner, M. C. Schieber, R. A. Shaw,
    A. Alenaizan, R. Galvelis, Z. L. Glick, S. Lehtola, and J. P. Misiewicz

    -----------------------------------------------------------------------


    Psi4 started on: Tuesday, 03 November 2020 12:05AM

    Process ID: 113393
    Host:       node94.bme.utexas.edu
    PSIDATADIR: /home/xy3866/psi4conda/share/psi4
    Memory:     500.0 MiB
    Threads:    8
    
  ==> Input File <==

--------------------------------------------------------------------------
#psi4
#
memory 32 gb

molecule  {
-1 1
  O        1.8996640     1.2894670    -0.0585490
  O        2.6973380    -0.8133440     0.2844750
  C       -2.1007360    -0.3533330    -0.4966910
  C       -3.0415820     0.2042600     0.5765370
  C       -0.7068410     0.1811810    -0.3555730
  C        0.2245717    -0.4438807    -0.1434575
  C        1.7796670     0.0321010     0.0519970
  H       -2.0810980    -1.4485100    -0.4425170
  H       -2.4999350    -0.0921100    -1.4864390
  H       -3.0846480     1.2965650     0.5261450
  H       -4.0584310    -0.1803650     0.4515950
  H       -2.6909580    -0.0729930     1.5749670
  H       -0.5778430     1.2611610    -0.4426850
  H        0.3073520    -1.6376590    -0.0083210
units angstrom
no_reorient  #important for SAPT in psi4, default
symmetry c1  #important for SAPT in psi4, default
}

set PROPERTIES_ORIGIN ["COM"]
properties('MP2/aug-cc-pvtz', properties = ['dipole'])
--------------------------------------------------------------------------

  Memory set to  29.802 GiB by Python driver.
    SCF Algorithm Type (re)set to DF.

*** tstart() called on node94.bme.utexas.edu
*** at Tue Nov  3 00:05:55 2020

   => Loading Basis Set <=

    Name: AUG-CC-PVTZ
    Role: ORBITAL
    Keyword: BASIS
    atoms 1-2  entry O          line   327 file /home/xy3866/psi4conda/share/psi4/basis/aug-cc-pvtz.gbs 
    atoms 3-7  entry C          line   235 file /home/xy3866/psi4conda/share/psi4/basis/aug-cc-pvtz.gbs 
    atoms 8-14 entry H          line    36 file /home/xy3866/psi4conda/share/psi4/basis/aug-cc-pvtz.gbs 


         ---------------------------------------------------------
                                   SCF
               by Justin Turney, Rob Parrish, Andy Simmonett
                          and Daniel G. A. Smith
                              RHF Reference
                        8 Threads,  30517 MiB Core
         ---------------------------------------------------------

  ==> Geometry <==

    Molecular point group: c1
    Full point group: C1

    Geometry (in Angstrom), charge = -1, multiplicity = 1:

       Center              X                  Y                   Z               Mass       
    ------------   -----------------  -----------------  -----------------  -----------------
         O            1.772558288630     1.267469467035    -0.052304478274    15.994914619570
         O            2.570232288630    -0.835341532965     0.290719521726    15.994914619570
         C           -2.227841711370    -0.375330532965    -0.490446478274    12.000000000000
         C           -3.168687711370     0.182262467035     0.582781521726    12.000000000000
         C           -0.833946711370     0.159183467035    -0.349328478274    12.000000000000
         C            0.097465988630    -0.465878232965    -0.137212978274    12.000000000000
         C            1.652561288630     0.010103467035     0.058241521726    12.000000000000
         H           -2.208203711370    -1.470507532965    -0.436272478274     1.007825032230
         H           -2.627040711370    -0.114107532965    -1.480194478274     1.007825032230
         H           -3.211753711370     1.274567467035     0.532389521726     1.007825032230
         H           -4.185536711370    -0.202362532965     0.457839521726     1.007825032230
         H           -2.818063711370    -0.094990532965     1.581211521726     1.007825032230
         H           -0.704948711370     1.239163467035    -0.436440478274     1.007825032230
         H            0.180246288630    -1.659656532965    -0.002076478274     1.007825032230

  Running in c1 symmetry.

  Rotational constants: A =      0.25650  B =      0.03820  C =      0.03543 [cm^-1]
  Rotational constants: A =   7689.55612  B =   1145.06863  C =   1062.28154 [MHz]
  Nuclear repulsion =  272.439298930575660

  Charge       = -1
  Multiplicity = 1
  Electrons    = 54
  Nalpha       = 27
  Nbeta        = 27

  ==> Algorithm <==

  SCF Algorithm Type is DF.
  DIIS enabled.
  MOM disabled.
  Fractional occupation disabled.
  Guess Type is SAD.
  Energy threshold   = 1.00e-10
  Density threshold  = 1.00e-10
  Integral threshold = 0.00e+00

  ==> Primary Basis <==

  Basis Set: AUG-CC-PVTZ
    Blend: AUG-CC-PVTZ
    Number of shells: 161
    Number of basis function: 483
    Number of Cartesian functions: 560
    Spherical Harmonics?: true
    Max angular momentum: 3

   => Loading Basis Set <=

    Name: (AUG-CC-PVTZ AUX)
    Role: JKFIT
    Keyword: DF_BASIS_SCF
    atoms 1-2  entry O          line   286 file /home/xy3866/psi4conda/share/psi4/basis/aug-cc-pvtz-jkfit.gbs 
    atoms 3-7  entry C          line   162 file /home/xy3866/psi4conda/share/psi4/basis/aug-cc-pvtz-jkfit.gbs 
    atoms 8-14 entry H          line    70 file /home/xy3866/psi4conda/share/psi4/basis/aug-cc-pvtz-jkfit.gbs 

  ==> Pre-Iterations <==

   -------------------------------------------------------
    Irrep   Nso     Nmo     Nalpha   Nbeta   Ndocc  Nsocc
   -------------------------------------------------------
     A        483     483       0       0       0       0
   -------------------------------------------------------
    Total     483     483      27      27      27       0
   -------------------------------------------------------

  ==> Integral Setup <==

  DFHelper Memory: AOs need 1.791 GiB; user supplied 22.352 GiB. Using in-core AOs.

  ==> MemDFJK: Density-Fitted J/K Matrices <==

    J tasked:                   Yes
    K tasked:                   Yes
    wK tasked:                   No
    OpenMP threads:               8
    Memory [MiB]:             22888
    Algorithm:                 Core
    Schwarz Cutoff:           1E-12
    Mask sparsity (%):       5.6522
    Fitting Condition:        1E-10

   => Auxiliary Basis Set <=

  Basis Set: (AUG-CC-PVTZ AUX)
    Blend: AUG-CC-PVTZ-JKFIT
    Number of shells: 308
    Number of basis function: 1050
    Number of Cartesian functions: 1302
    Spherical Harmonics?: true
    Max angular momentum: 4

  Minimum eigenvalue in the overlap matrix is 1.9161389880E-06.
  Using Symmetric Orthogonalization.

  SCF Guess: Superposition of Atomic Densities via on-the-fly atomic UHF.

  ==> Iterations <==

                           Total Energy        Delta E     RMS |[F,P]|

   @DF-RHF iter SAD:  -341.96300577126158   -3.41963e+02   0.00000e+00 
   @DF-RHF iter   1:  -342.86400788928518   -9.01002e-01   1.76742e-03 DIIS
   @DF-RHF iter   2:  -343.11626198950455   -2.52254e-01   1.06352e-03 DIIS
   @DF-RHF iter   3:  -343.21125805336834   -9.49961e-02   1.49236e-04 DIIS
   @DF-RHF iter   4:  -343.21449941732709   -3.24136e-03   6.34704e-05 DIIS
   @DF-RHF iter   5:  -343.21511288803089   -6.13471e-04   1.17735e-05 DIIS
   @DF-RHF iter   6:  -343.21514021620430   -2.73282e-05   4.72095e-06 DIIS
   @DF-RHF iter   7:  -343.21514344711056   -3.23091e-06   1.43363e-06 DIIS
   @DF-RHF iter   8:  -343.21514380549252   -3.58382e-07   5.42632e-07 DIIS
   @DF-RHF iter   9:  -343.21514385697071   -5.14782e-08   1.47524e-07 DIIS
   @DF-RHF iter  10:  -343.21514386354198   -6.57127e-09   4.15092e-08 DIIS
   @DF-RHF iter  11:  -343.21514386418414   -6.42160e-10   1.63749e-08 DIIS
   @DF-RHF iter  12:  -343.21514386426151   -7.73639e-11   5.29071e-09 DIIS
   @DF-RHF iter  13:  -343.21514386427248   -1.09708e-11   1.99411e-09 DIIS
   @DF-RHF iter  14:  -343.21514386427543   -2.95586e-12   6.37466e-10 DIIS
   @DF-RHF iter  15:  -343.21514386427486    5.68434e-13   2.65512e-10 DIIS
   @DF-RHF iter  16:  -343.21514386427373    1.13687e-12   1.00688e-10 DIIS
   @DF-RHF iter  17:  -343.21514386427566   -1.93268e-12   3.47624e-11 DIIS
  Energy and wave function converged.


  ==> Post-Iterations <==

    Orbital Energies [Eh]
    ---------------------

    Doubly Occupied:                                                      

       1A    -20.304112     2A    -20.294373     3A    -11.151767  
       4A    -11.113814     5A    -11.110123     6A    -11.052958  
       7A    -11.046861     8A     -1.162558     9A     -1.064339  
      10A     -0.977578    11A     -0.887925    12A     -0.737194  
      13A     -0.609966    14A     -0.549368    15A     -0.498764  
      16A     -0.477988    17A     -0.452201    18A     -0.420898  
      19A     -0.406487    20A     -0.386160    21A     -0.377487  
      22A     -0.358330    23A     -0.322051    24A     -0.257443  
      25A     -0.214569    26A     -0.195101    27A     -0.191449  

    Virtual:                                                              

      28A      0.099137    29A      0.116951    30A      0.117772  
      31A      0.129030    32A      0.136734    33A      0.148093  
      34A      0.153840    35A      0.183920    36A      0.189635  
      37A      0.195533    38A      0.203576    39A      0.217845  
      40A      0.219782    41A      0.221839    42A      0.232613  
      43A      0.239553    44A      0.241128    45A      0.246197  
      46A      0.257361    47A      0.261776    48A      0.273561  
      49A      0.279725    50A      0.284999    51A      0.295650  
      52A      0.319381    53A      0.328244    54A      0.335516  
      55A      0.340778    56A      0.350896    57A      0.353766  
      58A      0.364676    59A      0.373131    60A      0.375168  
      61A      0.382269    62A      0.387237    63A      0.388994  
      64A      0.401575    65A      0.415404    66A      0.417280  
      67A      0.425022    68A      0.430245    69A      0.434003  
      70A      0.448694    71A      0.454403    72A      0.463897  
      73A      0.465188    74A      0.472094    75A      0.475898  
      76A      0.484134    77A      0.487635    78A      0.495154  
      79A      0.499664    80A      0.505521    81A      0.511097  
      82A      0.519110    83A      0.526509    84A      0.529265  
      85A      0.536165    86A      0.546516    87A      0.556415  
      88A      0.561246    89A      0.568051    90A      0.570511  
      91A      0.578361    92A      0.594870    93A      0.597093  
      94A      0.606342    95A      0.613986    96A      0.615970  
      97A      0.621297    98A      0.622115    99A      0.628716  
     100A      0.634666   101A      0.643150   102A      0.650502  
     103A      0.666546   104A      0.676804   105A      0.685309  
     106A      0.690533   107A      0.694359   108A      0.699930  
     109A      0.718706   110A      0.725394   111A      0.742162  
     112A      0.749660   113A      0.756577   114A      0.763256  
     115A      0.786411   116A      0.788289   117A      0.803847  
     118A      0.814760   119A      0.837288   120A      0.850252  
     121A      0.865046   122A      0.874163   123A      0.876519  
     124A      0.883990   125A      0.894375   126A      0.905547  
     127A      0.918606   128A      0.936829   129A      0.943038  
     130A      0.950180   131A      0.955193   132A      0.970537  
     133A      0.979149   134A      0.989124   135A      0.993521  
     136A      0.996989   137A      1.004780   138A      1.017693  
     139A      1.020430   140A      1.025022   141A      1.033606  
     142A      1.048262   143A      1.051740   144A      1.060025  
     145A      1.068080   146A      1.071474   147A      1.074781  
     148A      1.084685   149A      1.091905   150A      1.101794  
     151A      1.115201   152A      1.127532   153A      1.129025  
     154A      1.137632   155A      1.143171   156A      1.156127  
     157A      1.160354   158A      1.163804   159A      1.170013  
     160A      1.178780   161A      1.187873   162A      1.195603  
     163A      1.198695   164A      1.206408   165A      1.223015  
     166A      1.234875   167A      1.240327   168A      1.241505  
     169A      1.250434   170A      1.261467   171A      1.272030  
     172A      1.286204   173A      1.298486   174A      1.301512  
     175A      1.308998   176A      1.316563   177A      1.330020  
     178A      1.334756   179A      1.339412   180A      1.347223  
     181A      1.361444   182A      1.370422   183A      1.374628  
     184A      1.392211   185A      1.393372   186A      1.399490  
     187A      1.409867   188A      1.418345   189A      1.429295  
     190A      1.433630   191A      1.448967   192A      1.464744  
     193A      1.491427   194A      1.513402   195A      1.517997  
     196A      1.523348   197A      1.543818   198A      1.550609  
     199A      1.561198   200A      1.576158   201A      1.585997  
     202A      1.599475   203A      1.621875   204A      1.633527  
     205A      1.638340   206A      1.654562   207A      1.656559  
     208A      1.662402   209A      1.701860   210A      1.709756  
     211A      1.722487   212A      1.732967   213A      1.748274  
     214A      1.753545   215A      1.776522   216A      1.781147  
     217A      1.781236   218A      1.788483   219A      1.800479  
     220A      1.814881   221A      1.839078   222A      1.844330  
     223A      1.858660   224A      1.860042   225A      1.865049  
     226A      1.878257   227A      1.890055   228A      1.911286  
     229A      1.913579   230A      1.927561   231A      1.947433  
     232A      1.954050   233A      1.964729   234A      1.974750  
     235A      1.987191   236A      1.996766   237A      2.010741  
     238A      2.028680   239A      2.035382   240A      2.046680  
     241A      2.060790   242A      2.072424   243A      2.097121  
     244A      2.098746   245A      2.107943   246A      2.116707  
     247A      2.131614   248A      2.154908   249A      2.167800  
     250A      2.188636   251A      2.202253   252A      2.218447  
     253A      2.236182   254A      2.261596   255A      2.271035  
     256A      2.276031   257A      2.289328   258A      2.319478  
     259A      2.332618   260A      2.348279   261A      2.351496  
     262A      2.376627   263A      2.394005   264A      2.409702  
     265A      2.416641   266A      2.434888   267A      2.447222  
     268A      2.462987   269A      2.493109   270A      2.518130  
     271A      2.524432   272A      2.532197   273A      2.550888  
     274A      2.575383   275A      2.583743   276A      2.600459  
     277A      2.614080   278A      2.628432   279A      2.662309  
     280A      2.685704   281A      2.723277   282A      2.737949  
     283A      2.751372   284A      2.766457   285A      2.775547  
     286A      2.801177   287A      2.826217   288A      2.839427  
     289A      2.845247   290A      2.873879   291A      2.893667  
     292A      2.946320   293A      2.964337   294A      2.990738  
     295A      2.999976   296A      3.065525   297A      3.078570  
     298A      3.082070   299A      3.135348   300A      3.188699  
     301A      3.227317   302A      3.247268   303A      3.263543  
     304A      3.276131   305A      3.282214   306A      3.340653  
     307A      3.370253   308A      3.438731   309A      3.463661  
     310A      3.474412   311A      3.507522   312A      3.516364  
     313A      3.544561   314A      3.547609   315A      3.593741  
     316A      3.604522   317A      3.614714   318A      3.632343  
     319A      3.643326   320A      3.663356   321A      3.670632  
     322A      3.688099   323A      3.698348   324A      3.716985  
     325A      3.739367   326A      3.749648   327A      3.766708  
     328A      3.787380   329A      3.794365   330A      3.803300  
     331A      3.816005   332A      3.827252   333A      3.858251  
     334A      3.874933   335A      3.892705   336A      3.905991  
     337A      3.917216   338A      3.931676   339A      3.949383  
     340A      3.966713   341A      3.986377   342A      4.017229  
     343A      4.018826   344A      4.043115   345A      4.059409  
     346A      4.061165   347A      4.076953   348A      4.084387  
     349A      4.105210   350A      4.106970   351A      4.131726  
     352A      4.150776   353A      4.159188   354A      4.166343  
     355A      4.203315   356A      4.228323   357A      4.247588  
     358A      4.254554   359A      4.278902   360A      4.283862  
     361A      4.292334   362A      4.302688   363A      4.324359  
     364A      4.338604   365A      4.366230   366A      4.374042  
     367A      4.393874   368A      4.406297   369A      4.414147  
     370A      4.449214   371A      4.463327   372A      4.487464  
     373A      4.510866   374A      4.521386   375A      4.532466  
     376A      4.564039   377A      4.591031   378A      4.609662  
     379A      4.635529   380A      4.668184   381A      4.678086  
     382A      4.723917   383A      4.738699   384A      4.745340  
     385A      4.764297   386A      4.789778   387A      4.818371  
     388A      4.840825   389A      4.880411   390A      4.888708  
     391A      4.897870   392A      4.957910   393A      4.959143  
     394A      4.963467   395A      4.992810   396A      5.029256  
     397A      5.055165   398A      5.078473   399A      5.083049  
     400A      5.113445   401A      5.138352   402A      5.145143  
     403A      5.175146   404A      5.182352   405A      5.206480  
     406A      5.242929   407A      5.267568   408A      5.277674  
     409A      5.308945   410A      5.320945   411A      5.335581  
     412A      5.357272   413A      5.382022   414A      5.393254  
     415A      5.442166   416A      5.449786   417A      5.497424  
     418A      5.509789   419A      5.535516   420A      5.563920  
     421A      5.605999   422A      5.608004   423A      5.631712  
     424A      5.666666   425A      5.690339   426A      5.694259  
     427A      5.732107   428A      5.795547   429A      5.802354  
     430A      5.886502   431A      5.906987   432A      5.927095  
     433A      5.987903   434A      6.011990   435A      6.068692  
     436A      6.119752   437A      6.234860   438A      6.249478  
     439A      6.270779   440A      6.284756   441A      6.325952  
     442A      6.343774   443A      6.425005   444A      6.493083  
     445A      6.650865   446A      6.659463   447A      6.749127  
     448A      6.857690   449A      6.872533   450A      6.888266  
     451A      6.922842   452A      6.931171   453A      6.984056  
     454A      7.015235   455A      7.023184   456A      7.103647  
     457A      7.128186   458A      7.140563   459A      7.195205  
     460A      7.277917   461A      7.319993   462A      7.325469  
     463A      7.388112   464A      7.523439   465A      7.558571  
     466A      7.580439   467A      7.588573   468A      7.759892  
     469A      7.787101   470A      7.849084   471A      7.913167  
     472A      7.913554   473A      8.065414   474A      8.090589  
     475A      8.185671   476A      8.241582   477A     14.552905  
     478A     15.018504   479A     17.639337   480A     18.057675  
     481A     18.289038   482A     19.736753   483A     21.871314  

    Final Occupation by Irrep:
              A 
    DOCC [    27 ]

  @DF-RHF Final Energy:  -343.21514386427566

   => Energetics <=

    Nuclear Repulsion Energy =            272.4392989305756601
    One-Electron Energy =               -1018.0651549223948678
    Two-Electron Energy =                 402.4107121275435475
    Total Energy =                       -343.2151438642756602

Computation Completed

*** tstop() called on node94.bme.utexas.edu at Tue Nov  3 00:06:08 2020
Module time:
	user time   =      86.85 seconds =       1.45 minutes
	system time =       1.90 seconds =       0.03 minutes
	total time  =         13 seconds =       0.22 minutes
Total time:
	user time   =      86.85 seconds =       1.45 minutes
	system time =       1.90 seconds =       0.03 minutes
	total time  =         13 seconds =       0.22 minutes
   => Loading Basis Set <=

    Name: (AUG-CC-PVTZ AUX)
    Role: RIFIT
    Keyword: DF_BASIS_MP2
    atoms 1-2  entry O          line   264 file /home/xy3866/psi4conda/share/psi4/basis/aug-cc-pvtz-ri.gbs 
    atoms 3-7  entry C          line   148 file /home/xy3866/psi4conda/share/psi4/basis/aug-cc-pvtz-ri.gbs 
    atoms 8-14 entry H          line    30 file /home/xy3866/psi4conda/share/psi4/basis/aug-cc-pvtz-ri.gbs 


*** tstart() called on node94.bme.utexas.edu
*** at Tue Nov  3 00:06:08 2020


  //>>>>>>>>>>>>>>>>>>>>>>>>>>>>>>>>>>>//
  //               DFMP2               //
  //<<<<<<<<<<<<<<<<<<<<<<<<<<<<<<<<<<<//

	 --------------------------------------------------------
	                          DF-MP2                         
	      2nd-Order Density-Fitted Moller-Plesset Theory     
	              RMP2 Wavefunction,   8 Threads             
	                                                         
	        Rob Parrish, Justin Turney, Andy Simmonett,      
	           Ed Hohenstein, and C. David Sherrill          
	 --------------------------------------------------------

   => Auxiliary Basis Set <=

  Basis Set: (AUG-CC-PVTZ AUX)
    Blend: AUG-CC-PVTZ-RI
    Number of shells: 294
    Number of basis function: 1064
    Number of Cartesian functions: 1337
    Spherical Harmonics?: true
    Max angular momentum: 4

	 --------------------------------------------------------
	                 NBF =   483, NAUX =  1064
	 --------------------------------------------------------
	   CLASS    FOCC     OCC    AOCC    AVIR     VIR    FVIR
	   PAIRS       0      27      27     456     456       0
	 --------------------------------------------------------

  DFHelper Memory: AOs need 1.791 GiB; user supplied 22.352 GiB. Using in-core AOs.


         ------------------------------------------------------------
                                     CPHF                           
                                  Rob Parrish                       
         ------------------------------------------------------------

  ==> Geometry <==

    Molecular point group: c1
    Full point group: C1

    Geometry (in Angstrom), charge = -1, multiplicity = 1:

       Center              X                  Y                   Z               Mass       
    ------------   -----------------  -----------------  -----------------  -----------------
         O            1.772558288630     1.267469467035    -0.052304478274    15.994914619570
         O            2.570232288630    -0.835341532965     0.290719521726    15.994914619570
         C           -2.227841711370    -0.375330532965    -0.490446478274    12.000000000000
         C           -3.168687711370     0.182262467035     0.582781521726    12.000000000000
         C           -0.833946711370     0.159183467035    -0.349328478274    12.000000000000
         C            0.097465988630    -0.465878232965    -0.137212978274    12.000000000000
         C            1.652561288630     0.010103467035     0.058241521726    12.000000000000
         H           -2.208203711370    -1.470507532965    -0.436272478274     1.007825032230
         H           -2.627040711370    -0.114107532965    -1.480194478274     1.007825032230
         H           -3.211753711370     1.274567467035     0.532389521726     1.007825032230
         H           -4.185536711370    -0.202362532965     0.457839521726     1.007825032230
         H           -2.818063711370    -0.094990532965     1.581211521726     1.007825032230
         H           -0.704948711370     1.239163467035    -0.436440478274     1.007825032230
         H            0.180246288630    -1.659656532965    -0.002076478274     1.007825032230

  Nuclear repulsion =  272.439298930575660
  Reference energy  = -343.215143864275660

  ==> Basis Set <==

  Basis Set: AUG-CC-PVTZ
    Blend: AUG-CC-PVTZ
    Number of shells: 161
    Number of basis function: 483
    Number of Cartesian functions: 560
    Spherical Harmonics?: true
    Max angular momentum: 3

  ==> CGRSolver (by Rob Parrish) <==

   Number of roots    =         1
   Preconditioning    =    JACOBI
   Convergence cutoff =     1E-06
   Maximum iterations =       100

  ==> CPHFRHamiltonian (by Rob Parrish) <== 

  ==> MemDFJK: Density-Fitted J/K Matrices <==

    J tasked:                   Yes
    K tasked:                   Yes
    wK tasked:                   No
    OpenMP threads:               8
    Memory [MiB]:             22888
    Algorithm:                 Core
    Schwarz Cutoff:           1E-12
    Mask sparsity (%):       5.6522
    Fitting Condition:        1E-10

   => Auxiliary Basis Set <=

  Basis Set: (AUG-CC-PVTZ AUX)
    Blend: AUG-CC-PVTZ-JKFIT
    Number of shells: 308
    Number of basis function: 1050
    Number of Cartesian functions: 1302
    Spherical Harmonics?: true
    Max angular momentum: 4

  ==> CPHF Iterations <==

  => Iterations <=

             Iter  Converged  Remaining    Residual
  CGR           1          0          1   1.160E-01
  CGR           2          0          1   3.160E-02
  CGR           3          0          1   1.221E-02
  CGR           4          0          1   3.257E-03
  CGR           5          0          1   1.135E-03
  CGR           6          0          1   4.519E-04
  CGR           7          0          1   1.538E-04
  CGR           8          0          1   5.072E-05
  CGR           9          0          1   1.315E-05
  CGR          10          0          1   3.668E-06
  CGR          11          0          1   1.410E-06
  CGR          12          1          0   5.017E-07

    CGRSolver converged.

	-----------------------------------------------------------
	 ==================> DF-MP2 Energies <==================== 
	-----------------------------------------------------------
	 Reference Energy          =    -343.2151438642756602 [Eh]
	 Singles Energy            =      -0.0000000000000000 [Eh]
	 Same-Spin Energy          =      -0.3482366131965059 [Eh]
	 Opposite-Spin Energy      =      -1.1039117218564034 [Eh]
	 Correlation Energy        =      -1.4521483350529092 [Eh]
	 Total Energy              =    -344.6672921993285854 [Eh]
	-----------------------------------------------------------
	 ================> DF-SCS-MP2 Energies <================== 
	-----------------------------------------------------------
	 SCS Same-Spin Scale       =       0.3333333333333333 [-]
	 SCS Opposite-Spin Scale   =       1.2000000000000000 [-]
	 SCS Same-Spin Energy      =      -0.1160788710655020 [Eh]
	 SCS Opposite-Spin Energy  =      -1.3246940662276840 [Eh]
	 SCS Correlation Energy    =      -1.4407729372931861 [Eh]
	 SCS Total Energy          =    -344.6559168015688215 [Eh]
	-----------------------------------------------------------



Properties will be evaluated at   0.000000,  -0.000000,   0.000000 [a0]

Properties computed using the MP2 density matrix

  Nuclear Dipole Moment: [e a0]
     X:   -14.5805      Y:    -0.9615      Z:     0.2041

  Electronic Dipole Moment: [e a0]
     X:    10.9178      Y:     0.6071      Z:    -0.4314

  Dipole Moment: [e a0]
     X:    -3.6627      Y:    -0.3544      Z:    -0.2274     Total:     3.6868

  Dipole Moment: [D]
     X:    -9.3095      Y:    -0.9008      Z:    -0.5779     Total:     9.3709


*** tstop() called on node94.bme.utexas.edu at Tue Nov  3 00:07:30 2020
Module time:
	user time   =     292.37 seconds =       4.87 minutes
	system time =       6.68 seconds =       0.11 minutes
	total time  =         82 seconds =       1.37 minutes
Total time:
	user time   =     380.26 seconds =       6.34 minutes
	system time =       8.62 seconds =       0.14 minutes
	total time  =         95 seconds =       1.58 minutes

    Psi4 stopped on: Tuesday, 03 November 2020 12:07AM
    Psi4 wall time for execution: 0:01:35.57

*** Psi4 exiting successfully. Buy a developer a beer!
