
    -----------------------------------------------------------------------
          Psi4: An Open-Source Ab Initio Electronic Structure Package
                               Psi4 1.3.2 release

                         Git: Rev {HEAD} ecbda83 


    R. M. Parrish, L. A. Burns, D. G. A. Smith, A. C. Simmonett,
    A. E. DePrince III, E. G. Hohenstein, U. Bozkaya, A. Yu. Sokolov,
    R. Di Remigio, R. M. Richard, J. F. Gonthier, A. M. James,
    H. R. McAlexander, A. Kumar, M. Saitow, X. Wang, B. P. Pritchard,
    P. Verma, H. F. Schaefer III, K. Patkowski, R. A. King, E. F. Valeev,
    F. A. Evangelista, J. M. Turney, T. D. Crawford, and C. D. Sherrill,
    J. Chem. Theory Comput. 13(7) pp 3185--3197 (2017).
    (doi: 10.1021/acs.jctc.7b00174)


                         Additional Contributions by
    P. Kraus, H. Kruse, M. H. Lechner, M. C. Schieber, R. A. Shaw,
    A. Alenaizan, R. Galvelis, Z. L. Glick, S. Lehtola, and J. P. Misiewicz

    -----------------------------------------------------------------------


    Psi4 started on: Monday, 02 November 2020 11:35PM

    Process ID: 109903
    Host:       node94.bme.utexas.edu
    PSIDATADIR: /home/xy3866/psi4conda/share/psi4
    Memory:     500.0 MiB
    Threads:    8
    
  ==> Input File <==

--------------------------------------------------------------------------
#psi4
#
memory 32 gb

molecule  {
-1 1
  O        1.8996640     1.2894670    -0.0585490
  O        2.6973380    -0.8133440     0.2844750
  C       -2.1007360    -0.3533330    -0.4966910
  C       -3.0415820     0.2042600     0.5765370
  C       -0.7114627     0.1933713    -0.3567017
  C        0.3877500    -0.5533880    -0.1062960
  C        1.7796670     0.0321010     0.0519970
  H       -2.0906002    -1.4486943    -0.4436427
  H       -2.4999350    -0.0921100    -1.4864390
  H       -3.0846480     1.2965650     0.5261450
  H       -4.0584310    -0.1803650     0.4515950
  H       -2.6909580    -0.0729930     1.5749670
  H       -0.5778430     1.2611610    -0.4426850
  H        0.3073520    -1.6376590    -0.0083210
units angstrom
no_reorient  #important for SAPT in psi4, default
symmetry c1  #important for SAPT in psi4, default
}

set PROPERTIES_ORIGIN ["COM"]
properties('MP2/aug-cc-pvtz', properties = ['dipole'])
--------------------------------------------------------------------------

  Memory set to  29.802 GiB by Python driver.
    SCF Algorithm Type (re)set to DF.

*** tstart() called on node94.bme.utexas.edu
*** at Mon Nov  2 23:35:57 2020

   => Loading Basis Set <=

    Name: AUG-CC-PVTZ
    Role: ORBITAL
    Keyword: BASIS
    atoms 1-2  entry O          line   327 file /home/xy3866/psi4conda/share/psi4/basis/aug-cc-pvtz.gbs 
    atoms 3-7  entry C          line   235 file /home/xy3866/psi4conda/share/psi4/basis/aug-cc-pvtz.gbs 
    atoms 8-14 entry H          line    36 file /home/xy3866/psi4conda/share/psi4/basis/aug-cc-pvtz.gbs 


         ---------------------------------------------------------
                                   SCF
               by Justin Turney, Rob Parrish, Andy Simmonett
                          and Daniel G. A. Smith
                              RHF Reference
                        8 Threads,  30517 MiB Core
         ---------------------------------------------------------

  ==> Geometry <==

    Molecular point group: c1
    Full point group: C1

    Geometry (in Angstrom), charge = -1, multiplicity = 1:

       Center              X                  Y                   Z               Mass       
    ------------   -----------------  -----------------  -----------------  -----------------
         O            1.753444651343     1.279262030078    -0.056658668930    15.994914619570
         O            2.551118651343    -0.823548969922     0.286365331070    15.994914619570
         C           -2.246955348657    -0.363537969922    -0.494800668930    12.000000000000
         C           -3.187801348657     0.194055030078     0.578427331070    12.000000000000
         C           -0.857682048657     0.183166330078    -0.354811368930    12.000000000000
         C            0.241530651343    -0.563592969922    -0.104405668930    12.000000000000
         C            1.633447651343     0.021896030078     0.053887331070    12.000000000000
         H           -2.236819548657    -1.458899269922    -0.441752368930     1.007825032230
         H           -2.646154348657    -0.102314969922    -1.484548668930     1.007825032230
         H           -3.230867348657     1.286360030078     0.528035331070     1.007825032230
         H           -4.204650348657    -0.190569969922     0.453485331070     1.007825032230
         H           -2.837177348657    -0.083197969922     1.576857331070     1.007825032230
         H           -0.724062348657     1.250956030078    -0.440794668930     1.007825032230
         H            0.161132651343    -1.647863969922    -0.006430668930     1.007825032230

  Running in c1 symmetry.

  Rotational constants: A =      0.25145  B =      0.03814  C =      0.03527 [cm^-1]
  Rotational constants: A =   7538.31618  B =   1143.28524  C =   1057.37905 [MHz]
  Nuclear repulsion =  270.736091583475456

  Charge       = -1
  Multiplicity = 1
  Electrons    = 54
  Nalpha       = 27
  Nbeta        = 27

  ==> Algorithm <==

  SCF Algorithm Type is DF.
  DIIS enabled.
  MOM disabled.
  Fractional occupation disabled.
  Guess Type is SAD.
  Energy threshold   = 1.00e-10
  Density threshold  = 1.00e-10
  Integral threshold = 0.00e+00

  ==> Primary Basis <==

  Basis Set: AUG-CC-PVTZ
    Blend: AUG-CC-PVTZ
    Number of shells: 161
    Number of basis function: 483
    Number of Cartesian functions: 560
    Spherical Harmonics?: true
    Max angular momentum: 3

   => Loading Basis Set <=

    Name: (AUG-CC-PVTZ AUX)
    Role: JKFIT
    Keyword: DF_BASIS_SCF
    atoms 1-2  entry O          line   286 file /home/xy3866/psi4conda/share/psi4/basis/aug-cc-pvtz-jkfit.gbs 
    atoms 3-7  entry C          line   162 file /home/xy3866/psi4conda/share/psi4/basis/aug-cc-pvtz-jkfit.gbs 
    atoms 8-14 entry H          line    70 file /home/xy3866/psi4conda/share/psi4/basis/aug-cc-pvtz-jkfit.gbs 

  ==> Pre-Iterations <==

   -------------------------------------------------------
    Irrep   Nso     Nmo     Nalpha   Nbeta   Ndocc  Nsocc
   -------------------------------------------------------
     A        483     483       0       0       0       0
   -------------------------------------------------------
    Total     483     483      27      27      27       0
   -------------------------------------------------------

  ==> Integral Setup <==

  DFHelper Memory: AOs need 1.790 GiB; user supplied 22.352 GiB. Using in-core AOs.

  ==> MemDFJK: Density-Fitted J/K Matrices <==

    J tasked:                   Yes
    K tasked:                   Yes
    wK tasked:                   No
    OpenMP threads:               8
    Memory [MiB]:             22888
    Algorithm:                 Core
    Schwarz Cutoff:           1E-12
    Mask sparsity (%):       5.6968
    Fitting Condition:        1E-10

   => Auxiliary Basis Set <=

  Basis Set: (AUG-CC-PVTZ AUX)
    Blend: AUG-CC-PVTZ-JKFIT
    Number of shells: 308
    Number of basis function: 1050
    Number of Cartesian functions: 1302
    Spherical Harmonics?: true
    Max angular momentum: 4

  Minimum eigenvalue in the overlap matrix is 4.0833076018E-06.
  Using Symmetric Orthogonalization.

  SCF Guess: Superposition of Atomic Densities via on-the-fly atomic UHF.

  ==> Iterations <==

                           Total Energy        Delta E     RMS |[F,P]|

   @DF-RHF iter SAD:  -341.83048872676096   -3.41830e+02   0.00000e+00 
   @DF-RHF iter   1:  -342.97730009180236   -1.14681e+00   1.62964e-03 DIIS
   @DF-RHF iter   2:  -343.20467710765564   -2.27377e-01   9.83567e-04 DIIS
   @DF-RHF iter   3:  -343.28112934668133   -7.64522e-02   1.50255e-04 DIIS
   @DF-RHF iter   4:  -343.28447272607809   -3.34338e-03   5.95215e-05 DIIS
   @DF-RHF iter   5:  -343.28507766771088   -6.04942e-04   1.14521e-05 DIIS
   @DF-RHF iter   6:  -343.28510953441923   -3.18667e-05   3.56053e-06 DIIS
   @DF-RHF iter   7:  -343.28511356651279   -4.03209e-06   2.20553e-06 DIIS
   @DF-RHF iter   8:  -343.28511461009862   -1.04359e-06   7.40339e-07 DIIS
   @DF-RHF iter   9:  -343.28511481683307   -2.06734e-07   3.23991e-07 DIIS
   @DF-RHF iter  10:  -343.28511484904323   -3.22102e-08   1.17546e-07 DIIS
   @DF-RHF iter  11:  -343.28511485264460   -3.60137e-09   2.70848e-08 DIIS
   @DF-RHF iter  12:  -343.28511485285554   -2.10946e-10   8.15015e-09 DIIS
   @DF-RHF iter  13:  -343.28511485287169   -1.61435e-11   2.41466e-09 DIIS
   @DF-RHF iter  14:  -343.28511485287265   -9.66338e-13   8.01797e-10 DIIS
   @DF-RHF iter  15:  -343.28511485287311   -4.54747e-13   2.48611e-10 DIIS
   @DF-RHF iter  16:  -343.28511485287311    0.00000e+00   9.14301e-11 DIIS
  Energy and wave function converged.


  ==> Post-Iterations <==

    Orbital Energies [Eh]
    ---------------------

    Doubly Occupied:                                                      

       1A    -20.295334     2A    -20.291575     3A    -11.141870  
       4A    -11.115531     5A    -11.114011     6A    -11.086138  
       7A    -11.071673     8A     -1.161772     9A     -1.061005  
      10A     -0.953797    11A     -0.860546    12A     -0.743298  
      13A     -0.635064    14A     -0.548552    15A     -0.494055  
      16A     -0.486510    17A     -0.445950    18A     -0.419079  
      19A     -0.408609    20A     -0.382794    21A     -0.374618  
      22A     -0.357815    23A     -0.352651    24A     -0.211081  
      25A     -0.208979    26A     -0.202323    27A     -0.191128  

    Virtual:                                                              

      28A      0.098577    29A      0.116858    30A      0.117232  
      31A      0.128456    32A      0.136564    33A      0.146280  
      34A      0.154163    35A      0.183737    36A      0.189803  
      37A      0.194908    38A      0.203706    39A      0.217714  
      40A      0.221196    41A      0.222847    42A      0.233651  
      43A      0.237265    44A      0.241367    45A      0.245507  
      46A      0.256330    47A      0.260484    48A      0.273961  
      49A      0.278441    50A      0.285708    51A      0.292237  
      52A      0.295664    53A      0.322841    54A      0.333660  
      55A      0.341946    56A      0.345885    57A      0.350524  
      58A      0.365495    59A      0.374169    60A      0.376472  
      61A      0.382632    62A      0.385063    63A      0.391391  
      64A      0.398006    65A      0.414218    66A      0.418757  
      67A      0.425591    68A      0.429178    69A      0.436724  
      70A      0.448274    71A      0.452752    72A      0.463427  
      73A      0.463961    74A      0.471293    75A      0.474165  
      76A      0.484904    77A      0.490432    78A      0.496525  
      79A      0.503790    80A      0.506834    81A      0.510370  
      82A      0.524778    83A      0.525401    84A      0.532747  
      85A      0.539617    86A      0.548914    87A      0.556671  
      88A      0.560979    89A      0.566594    90A      0.577204  
      91A      0.586321    92A      0.591087    93A      0.596253  
      94A      0.604619    95A      0.611465    96A      0.616536  
      97A      0.622091    98A      0.623679    99A      0.631465  
     100A      0.631955   101A      0.644113   102A      0.652018  
     103A      0.664480   104A      0.675867   105A      0.678224  
     106A      0.687140   107A      0.697358   108A      0.698241  
     109A      0.714726   110A      0.726975   111A      0.739475  
     112A      0.750090   113A      0.759390   114A      0.770412  
     115A      0.782875   116A      0.786588   117A      0.805894  
     118A      0.808982   119A      0.824742   120A      0.843885  
     121A      0.862381   122A      0.869867   123A      0.883085  
     124A      0.887481   125A      0.895332   126A      0.906344  
     127A      0.921070   128A      0.933802   129A      0.942134  
     130A      0.954231   131A      0.961942   132A      0.971131  
     133A      0.973760   134A      0.979500   135A      0.991445  
     136A      0.996601   137A      1.006844   138A      1.015646  
     139A      1.022962   140A      1.027413   141A      1.031474  
     142A      1.047655   143A      1.052038   144A      1.059472  
     145A      1.062886   146A      1.067459   147A      1.071365  
     148A      1.085648   149A      1.086662   150A      1.093126  
     151A      1.112706   152A      1.115834   153A      1.122804  
     154A      1.131356   155A      1.135860   156A      1.145659  
     157A      1.152085   158A      1.158830   159A      1.167114  
     160A      1.169872   161A      1.179860   162A      1.189404  
     163A      1.195125   164A      1.204587   165A      1.217086  
     166A      1.223999   167A      1.233349   168A      1.238755  
     169A      1.242776   170A      1.257060   171A      1.266706  
     172A      1.285601   173A      1.291891   174A      1.295529  
     175A      1.302595   176A      1.314964   177A      1.321521  
     178A      1.331439   179A      1.335606   180A      1.344326  
     181A      1.356279   182A      1.365555   183A      1.370556  
     184A      1.383046   185A      1.394634   186A      1.398210  
     187A      1.410423   188A      1.417090   189A      1.420292  
     190A      1.431728   191A      1.444538   192A      1.462611  
     193A      1.478745   194A      1.501310   195A      1.513818  
     196A      1.516927   197A      1.536208   198A      1.546638  
     199A      1.554349   200A      1.562511   201A      1.592859  
     202A      1.601837   203A      1.613152   204A      1.620524  
     205A      1.624697   206A      1.635223   207A      1.653261  
     208A      1.658101   209A      1.685682   210A      1.702593  
     211A      1.719109   212A      1.724679   213A      1.746193  
     214A      1.750228   215A      1.760969   216A      1.772461  
     217A      1.776876   218A      1.782528   219A      1.801719  
     220A      1.815639   221A      1.829985   222A      1.834793  
     223A      1.857039   224A      1.861193   225A      1.870675  
     226A      1.876939   227A      1.892018   228A      1.899602  
     229A      1.904134   230A      1.916946   231A      1.927904  
     232A      1.945920   233A      1.948519   234A      1.974797  
     235A      1.982206   236A      1.993812   237A      1.999526  
     238A      2.018304   239A      2.038367   240A      2.047781  
     241A      2.053652   242A      2.068035   243A      2.089023  
     244A      2.091059   245A      2.103622   246A      2.117838  
     247A      2.148573   248A      2.164245   249A      2.170820  
     250A      2.178374   251A      2.198045   252A      2.201716  
     253A      2.233777   254A      2.251999   255A      2.253740  
     256A      2.280473   257A      2.298891   258A      2.315170  
     259A      2.325317   260A      2.342923   261A      2.357120  
     262A      2.368945   263A      2.389727   264A      2.394534  
     265A      2.406496   266A      2.420084   267A      2.443244  
     268A      2.454213   269A      2.499999   270A      2.508123  
     271A      2.515035   272A      2.520574   273A      2.536200  
     274A      2.550358   275A      2.583240   276A      2.592564  
     277A      2.609572   278A      2.625573   279A      2.659105  
     280A      2.696453   281A      2.724439   282A      2.731350  
     283A      2.746557   284A      2.753951   285A      2.779970  
     286A      2.808524   287A      2.821552   288A      2.838131  
     289A      2.845011   290A      2.864323   291A      2.914850  
     292A      2.957611   293A      2.966188   294A      2.992466  
     295A      3.017448   296A      3.040751   297A      3.064097  
     298A      3.082997   299A      3.133162   300A      3.175317  
     301A      3.230945   302A      3.236505   303A      3.260419  
     304A      3.290953   305A      3.312348   306A      3.322676  
     307A      3.346391   308A      3.397986   309A      3.456497  
     310A      3.471786   311A      3.485960   312A      3.515114  
     313A      3.529091   314A      3.534378   315A      3.566561  
     316A      3.589046   317A      3.598293   318A      3.610569  
     319A      3.616285   320A      3.638562   321A      3.664593  
     322A      3.669110   323A      3.678782   324A      3.707758  
     325A      3.714978   326A      3.732127   327A      3.748707  
     328A      3.767649   329A      3.770707   330A      3.792736  
     331A      3.808563   332A      3.821799   333A      3.835434  
     334A      3.851636   335A      3.877083   336A      3.888505  
     337A      3.894478   338A      3.928680   339A      3.931021  
     340A      3.944697   341A      3.964454   342A      4.004062  
     343A      4.008814   344A      4.032424   345A      4.049935  
     346A      4.061072   347A      4.071064   348A      4.075748  
     349A      4.083012   350A      4.107329   351A      4.112726  
     352A      4.122333   353A      4.138085   354A      4.151538  
     355A      4.180644   356A      4.202312   357A      4.222525  
     358A      4.232399   359A      4.234542   360A      4.259701  
     361A      4.271348   362A      4.298593   363A      4.320191  
     364A      4.325917   365A      4.357790   366A      4.377329  
     367A      4.399309   368A      4.406698   369A      4.420708  
     370A      4.445452   371A      4.471105   372A      4.479055  
     373A      4.495222   374A      4.507880   375A      4.571472  
     376A      4.576320   377A      4.590172   378A      4.604125  
     379A      4.614772   380A      4.661355   381A      4.683899  
     382A      4.689437   383A      4.714230   384A      4.765554  
     385A      4.781909   386A      4.804651   387A      4.808076  
     388A      4.837653   389A      4.870612   390A      4.877750  
     391A      4.899761   392A      4.910317   393A      4.951118  
     394A      4.958886   395A      4.986283   396A      5.007728  
     397A      5.046729   398A      5.059907   399A      5.077696  
     400A      5.083668   401A      5.114424   402A      5.123918  
     403A      5.144797   404A      5.163024   405A      5.198103  
     406A      5.205471   407A      5.244557   408A      5.255199  
     409A      5.289592   410A      5.303908   411A      5.323991  
     412A      5.332106   413A      5.337408   414A      5.379648  
     415A      5.409883   416A      5.427942   417A      5.477773  
     418A      5.483766   419A      5.500946   420A      5.514287  
     421A      5.534922   422A      5.575638   423A      5.596678  
     424A      5.615470   425A      5.643272   426A      5.680482  
     427A      5.707810   428A      5.749624   429A      5.774087  
     430A      5.810087   431A      5.878151   432A      5.923039  
     433A      5.931025   434A      5.974955   435A      6.064722  
     436A      6.089923   437A      6.121847   438A      6.214318  
     439A      6.279265   440A      6.291940   441A      6.320052  
     442A      6.374711   443A      6.452421   444A      6.499607  
     445A      6.624418   446A      6.643171   447A      6.695700  
     448A      6.807528   449A      6.852900   450A      6.868303  
     451A      6.888754   452A      6.919433   453A      6.935391  
     454A      6.944513   455A      7.023645   456A      7.036775  
     457A      7.132511   458A      7.143017   459A      7.145170  
     460A      7.295241   461A      7.315937   462A      7.323908  
     463A      7.398253   464A      7.551132   465A      7.561723  
     466A      7.592938   467A      7.594737   468A      7.800505  
     469A      7.818712   470A      7.863131   471A      7.918859  
     472A      7.945959   473A      8.090056   474A      8.129029  
     475A      8.203234   476A      8.272463   477A     14.789152  
     478A     15.318415   479A     16.830668   480A     17.695104  
     481A     18.013420   482A     18.603408   483A     19.671767  

    Final Occupation by Irrep:
              A 
    DOCC [    27 ]

  @DF-RHF Final Energy:  -343.28511485287311

   => Energetics <=

    Nuclear Repulsion Energy =            270.7360915834754564
    One-Electron Energy =               -1014.8108976584899210
    Two-Electron Energy =                 400.7896912221414141
    Total Energy =                       -343.2851148528731073

Computation Completed

*** tstop() called on node94.bme.utexas.edu at Mon Nov  2 23:36:09 2020
Module time:
	user time   =      83.76 seconds =       1.40 minutes
	system time =       1.95 seconds =       0.03 minutes
	total time  =         12 seconds =       0.20 minutes
Total time:
	user time   =      83.76 seconds =       1.40 minutes
	system time =       1.95 seconds =       0.03 minutes
	total time  =         12 seconds =       0.20 minutes
   => Loading Basis Set <=

    Name: (AUG-CC-PVTZ AUX)
    Role: RIFIT
    Keyword: DF_BASIS_MP2
    atoms 1-2  entry O          line   264 file /home/xy3866/psi4conda/share/psi4/basis/aug-cc-pvtz-ri.gbs 
    atoms 3-7  entry C          line   148 file /home/xy3866/psi4conda/share/psi4/basis/aug-cc-pvtz-ri.gbs 
    atoms 8-14 entry H          line    30 file /home/xy3866/psi4conda/share/psi4/basis/aug-cc-pvtz-ri.gbs 


*** tstart() called on node94.bme.utexas.edu
*** at Mon Nov  2 23:36:10 2020


  //>>>>>>>>>>>>>>>>>>>>>>>>>>>>>>>>>>>//
  //               DFMP2               //
  //<<<<<<<<<<<<<<<<<<<<<<<<<<<<<<<<<<<//

	 --------------------------------------------------------
	                          DF-MP2                         
	      2nd-Order Density-Fitted Moller-Plesset Theory     
	              RMP2 Wavefunction,   8 Threads             
	                                                         
	        Rob Parrish, Justin Turney, Andy Simmonett,      
	           Ed Hohenstein, and C. David Sherrill          
	 --------------------------------------------------------

   => Auxiliary Basis Set <=

  Basis Set: (AUG-CC-PVTZ AUX)
    Blend: AUG-CC-PVTZ-RI
    Number of shells: 294
    Number of basis function: 1064
    Number of Cartesian functions: 1337
    Spherical Harmonics?: true
    Max angular momentum: 4

	 --------------------------------------------------------
	                 NBF =   483, NAUX =  1064
	 --------------------------------------------------------
	   CLASS    FOCC     OCC    AOCC    AVIR     VIR    FVIR
	   PAIRS       0      27      27     456     456       0
	 --------------------------------------------------------

  DFHelper Memory: AOs need 1.790 GiB; user supplied 22.352 GiB. Using in-core AOs.


         ------------------------------------------------------------
                                     CPHF                           
                                  Rob Parrish                       
         ------------------------------------------------------------

  ==> Geometry <==

    Molecular point group: c1
    Full point group: C1

    Geometry (in Angstrom), charge = -1, multiplicity = 1:

       Center              X                  Y                   Z               Mass       
    ------------   -----------------  -----------------  -----------------  -----------------
         O            1.753444651343     1.279262030078    -0.056658668930    15.994914619570
         O            2.551118651343    -0.823548969922     0.286365331070    15.994914619570
         C           -2.246955348657    -0.363537969922    -0.494800668930    12.000000000000
         C           -3.187801348657     0.194055030078     0.578427331070    12.000000000000
         C           -0.857682048657     0.183166330078    -0.354811368930    12.000000000000
         C            0.241530651343    -0.563592969922    -0.104405668930    12.000000000000
         C            1.633447651343     0.021896030078     0.053887331070    12.000000000000
         H           -2.236819548657    -1.458899269922    -0.441752368930     1.007825032230
         H           -2.646154348657    -0.102314969922    -1.484548668930     1.007825032230
         H           -3.230867348657     1.286360030078     0.528035331070     1.007825032230
         H           -4.204650348657    -0.190569969922     0.453485331070     1.007825032230
         H           -2.837177348657    -0.083197969922     1.576857331070     1.007825032230
         H           -0.724062348657     1.250956030078    -0.440794668930     1.007825032230
         H            0.161132651343    -1.647863969922    -0.006430668930     1.007825032230

  Nuclear repulsion =  270.736091583475456
  Reference energy  = -343.285114852873107

  ==> Basis Set <==

  Basis Set: AUG-CC-PVTZ
    Blend: AUG-CC-PVTZ
    Number of shells: 161
    Number of basis function: 483
    Number of Cartesian functions: 560
    Spherical Harmonics?: true
    Max angular momentum: 3

  ==> CGRSolver (by Rob Parrish) <==

   Number of roots    =         1
   Preconditioning    =    JACOBI
   Convergence cutoff =     1E-06
   Maximum iterations =       100

  ==> CPHFRHamiltonian (by Rob Parrish) <== 

  ==> MemDFJK: Density-Fitted J/K Matrices <==

    J tasked:                   Yes
    K tasked:                   Yes
    wK tasked:                   No
    OpenMP threads:               8
    Memory [MiB]:             22888
    Algorithm:                 Core
    Schwarz Cutoff:           1E-12
    Mask sparsity (%):       5.6968
    Fitting Condition:        1E-10

   => Auxiliary Basis Set <=

  Basis Set: (AUG-CC-PVTZ AUX)
    Blend: AUG-CC-PVTZ-JKFIT
    Number of shells: 308
    Number of basis function: 1050
    Number of Cartesian functions: 1302
    Spherical Harmonics?: true
    Max angular momentum: 4

  ==> CPHF Iterations <==

  => Iterations <=

             Iter  Converged  Remaining    Residual
  CGR           1          0          1   1.152E-01
  CGR           2          0          1   3.231E-02
  CGR           3          0          1   1.306E-02
  CGR           4          0          1   3.707E-03
  CGR           5          0          1   1.620E-03
  CGR           6          0          1   5.798E-04
  CGR           7          0          1   1.767E-04
  CGR           8          0          1   8.100E-05
  CGR           9          0          1   2.677E-05
  CGR          10          0          1   9.066E-06
  CGR          11          0          1   2.915E-06
  CGR          12          1          0   7.394E-07

    CGRSolver converged.

	-----------------------------------------------------------
	 ==================> DF-MP2 Energies <==================== 
	-----------------------------------------------------------
	 Reference Energy          =    -343.2851148528731073 [Eh]
	 Singles Energy            =      -0.0000000000000000 [Eh]
	 Same-Spin Energy          =      -0.3482054693046922 [Eh]
	 Opposite-Spin Energy      =      -1.1057754739705474 [Eh]
	 Correlation Energy        =      -1.4539809432752397 [Eh]
	 Total Energy              =    -344.7390957961483196 [Eh]
	-----------------------------------------------------------
	 ================> DF-SCS-MP2 Energies <================== 
	-----------------------------------------------------------
	 SCS Same-Spin Scale       =       0.3333333333333333 [-]
	 SCS Opposite-Spin Scale   =       1.2000000000000000 [-]
	 SCS Same-Spin Energy      =      -0.1160684897682307 [Eh]
	 SCS Opposite-Spin Energy  =      -1.3269305687646569 [Eh]
	 SCS Correlation Energy    =      -1.4429990585328876 [Eh]
	 SCS Total Energy          =    -344.7281139114060124 [Eh]
	-----------------------------------------------------------



Properties will be evaluated at   0.000000,  -0.000000,   0.000000 [a0]

Properties computed using the MP2 density matrix

  Nuclear Dipole Moment: [e a0]
     X:   -14.7150      Y:    -0.8842      Z:     0.1744

  Electronic Dipole Moment: [e a0]
     X:    10.9734      Y:     0.4321      Z:    -0.4039

  Dipole Moment: [e a0]
     X:    -3.7417      Y:    -0.4521      Z:    -0.2295     Total:     3.7758

  Dipole Moment: [D]
     X:    -9.5103      Y:    -1.1491      Z:    -0.5833     Total:     9.5972


*** tstop() called on node94.bme.utexas.edu at Mon Nov  2 23:37:06 2020
Module time:
	user time   =     291.07 seconds =       4.85 minutes
	system time =       6.74 seconds =       0.11 minutes
	total time  =         56 seconds =       0.93 minutes
Total time:
	user time   =     375.89 seconds =       6.26 minutes
	system time =       8.72 seconds =       0.15 minutes
	total time  =         69 seconds =       1.15 minutes

    Psi4 stopped on: Monday, 02 November 2020 11:37PM
    Psi4 wall time for execution: 0:01:08.82

*** Psi4 exiting successfully. Buy a developer a beer!
