12953231                                                                
Freq      RMP2-FC                                                     6-31G(d)            
Number of atoms                            I               15
Info1-9                                    I   N=           9
          27          25        1002           0           0         100
           6           2           1
Charge                                     I                0
Multiplicity                               I                1
Number of electrons                        I               56
Number of alpha electrons                  I               28
Number of beta electrons                   I               28
Number of basis functions                  I              121
Number of independent functions            I              121
Number of point charges in /Mol/           I                0
Number of translation vectors              I                0
Atomic numbers                             I   N=          15
           8           8           8           6           6           6
           6           1           1           1           1           1
           1           1           1
Nuclear charges                            R   N=          15
  8.00000000E+00  8.00000000E+00  8.00000000E+00  6.00000000E+00  6.00000000E+00
  6.00000000E+00  6.00000000E+00  1.00000000E+00  1.00000000E+00  1.00000000E+00
  1.00000000E+00  1.00000000E+00  1.00000000E+00  1.00000000E+00  1.00000000E+00
Current cartesian coordinates              R   N=          45
  1.92799425E-01 -1.12185599E+00  4.59730779E-01  4.26762420E+00 -1.37316748E+00
  9.04343844E-01  2.68158213E+00  1.86521818E+00 -1.45278262E+00 -2.06837720E+00
  1.27152791E-01 -5.14711389E-01 -4.07866444E+00 -1.90854417E+00 -5.56955583E-01
 -2.71695918E+00  2.34903890E+00  1.17490022E+00  2.38053259E+00 -1.71049461E-02
 -1.60185768E-01 -1.64037660E+00  7.84638906E-01 -2.42651829E+00 -5.84401598E+00
 -1.13751589E+00 -1.30525282E+00 -3.48832347E+00 -3.48896056E+00 -1.74604941E+00
 -4.42142758E+00 -2.61147959E+00  1.35486787E+00 -4.45169604E+00  3.25928809E+00
  5.13866230E-01 -1.19789642E+00  3.74428273E+00  1.14698428E+00 -3.01057770E+00
  1.69548863E+00  3.11305267E+00  5.81907713E+00 -5.10555431E-01  4.00428528E-01
Force Field                                I                0
Int Atom Types                             I   N=          15
           0           0           0           0           0           0
           0           0           0           0           0           0
           0           0           0
MM charges                                 R   N=          15
  0.00000000E+00  0.00000000E+00  0.00000000E+00  0.00000000E+00  0.00000000E+00
  0.00000000E+00  0.00000000E+00  0.00000000E+00  0.00000000E+00  0.00000000E+00
  0.00000000E+00  0.00000000E+00  0.00000000E+00  0.00000000E+00  0.00000000E+00
Integer atomic weights                     I   N=          15
          16          16          16          12          12          12
          12           1           1           1           1           1
           1           1           1
Real atomic weights                        R   N=          15
  1.59949146E+01  1.59949146E+01  1.59949146E+01  1.20000000E+01  1.20000000E+01
  1.20000000E+01  1.20000000E+01  1.00782504E+00  1.00782504E+00  1.00782504E+00
  1.00782504E+00  1.00782504E+00  1.00782504E+00  1.00782504E+00  1.00782504E+00
Atom fragment info                         I   N=          15
           0           0           0           0           0           0
           0           0           0           0           0           0
           0           0           0
Atom residue num                           I   N=          15
           0           0           0           0           0           0
           0           0           0           0           0           0
           0           0           0
Nuclear spins                              I   N=          15
           0           0           0           0           0           0
           0           1           1           1           1           1
           1           1           1
Nuclear ZEff                               R   N=          15
 -5.60000000E+00 -5.60000000E+00 -5.60000000E+00 -3.60000000E+00 -3.60000000E+00
 -3.60000000E+00 -3.60000000E+00 -1.00000000E+00 -1.00000000E+00 -1.00000000E+00
 -1.00000000E+00 -1.00000000E+00 -1.00000000E+00 -1.00000000E+00 -1.00000000E+00
Nuclear QMom                               R   N=          15
  0.00000000E+00  0.00000000E+00  0.00000000E+00  0.00000000E+00  0.00000000E+00
  0.00000000E+00  0.00000000E+00  0.00000000E+00  0.00000000E+00  0.00000000E+00
  0.00000000E+00  0.00000000E+00  0.00000000E+00  0.00000000E+00  0.00000000E+00
Nuclear GFac                               R   N=          15
  0.00000000E+00  0.00000000E+00  0.00000000E+00  0.00000000E+00  0.00000000E+00
  0.00000000E+00  0.00000000E+00  2.79284600E+00  2.79284600E+00  2.79284600E+00
  2.79284600E+00  2.79284600E+00  2.79284600E+00  2.79284600E+00  2.79284600E+00
MicOpt                                     I   N=          15
          -1          -1          -1          -1          -1          -1
          -1          -1          -1          -1          -1          -1
          -1          -1          -1
Number of contracted shells                I               44
Number of primitive shells                 I              109
Pure/Cartesian d shells                    I                1
Pure/Cartesian f shells                    I                0
Highest angular momentum                   I                2
Largest degree of contraction              I                6
Shell types                                I   N=          44
           0          -1          -1           2           0          -1
          -1           2           0          -1          -1           2
           0          -1          -1           2           0          -1
          -1           2           0          -1          -1           2
           0          -1          -1           2           0           0
           0           0           0           0           0           0
           0           0           0           0           0           0
           0           0
Number of primitives per shell             I   N=          44
           6           3           1           1           6           3
           1           1           6           3           1           1
           6           3           1           1           6           3
           1           1           6           3           1           1
           6           3           1           1           3           1
           3           1           3           1           3           1
           3           1           3           1           3           1
           3           1
Shell to atom map                          I   N=          44
           1           1           1           1           2           2
           2           2           3           3           3           3
           4           4           4           4           5           5
           5           5           6           6           6           6
           7           7           7           7           8           8
           9           9          10          10          11          11
          12          12          13          13          14          14
          15          15
Primitive exponents                        R   N=         109
  5.48467166E+03  8.25234946E+02  1.88046958E+02  5.29645000E+01  1.68975704E+01
  5.79963534E+00  1.55396162E+01  3.59993359E+00  1.01376175E+00  2.70005823E-01
  8.00000000E-01  5.48467166E+03  8.25234946E+02  1.88046958E+02  5.29645000E+01
  1.68975704E+01  5.79963534E+00  1.55396162E+01  3.59993359E+00  1.01376175E+00
  2.70005823E-01  8.00000000E-01  5.48467166E+03  8.25234946E+02  1.88046958E+02
  5.29645000E+01  1.68975704E+01  5.79963534E+00  1.55396162E+01  3.59993359E+00
  1.01376175E+00  2.70005823E-01  8.00000000E-01  3.04752488E+03  4.57369518E+02
  1.03948685E+02  2.92101553E+01  9.28666296E+00  3.16392696E+00  7.86827235E+00
  1.88128854E+00  5.44249258E-01  1.68714478E-01  8.00000000E-01  3.04752488E+03
  4.57369518E+02  1.03948685E+02  2.92101553E+01  9.28666296E+00  3.16392696E+00
  7.86827235E+00  1.88128854E+00  5.44249258E-01  1.68714478E-01  8.00000000E-01
  3.04752488E+03  4.57369518E+02  1.03948685E+02  2.92101553E+01  9.28666296E+00
  3.16392696E+00  7.86827235E+00  1.88128854E+00  5.44249258E-01  1.68714478E-01
  8.00000000E-01  3.04752488E+03  4.57369518E+02  1.03948685E+02  2.92101553E+01
  9.28666296E+00  3.16392696E+00  7.86827235E+00  1.88128854E+00  5.44249258E-01
  1.68714478E-01  8.00000000E-01  1.87311370E+01  2.82539436E+00  6.40121692E-01
  1.61277759E-01  1.87311370E+01  2.82539436E+00  6.40121692E-01  1.61277759E-01
  1.87311370E+01  2.82539436E+00  6.40121692E-01  1.61277759E-01  1.87311370E+01
  2.82539436E+00  6.40121692E-01  1.61277759E-01  1.87311370E+01  2.82539436E+00
  6.40121692E-01  1.61277759E-01  1.87311370E+01  2.82539436E+00  6.40121692E-01
  1.61277759E-01  1.87311370E+01  2.82539436E+00  6.40121692E-01  1.61277759E-01
  1.87311370E+01  2.82539436E+00  6.40121692E-01  1.61277759E-01
Contraction coefficients                   R   N=         109
  1.83107443E-03  1.39501722E-02  6.84450781E-02  2.32714336E-01  4.70192898E-01
  3.58520853E-01 -1.10777550E-01 -1.48026263E-01  1.13076702E+00  1.00000000E+00
  1.00000000E+00  1.83107443E-03  1.39501722E-02  6.84450781E-02  2.32714336E-01
  4.70192898E-01  3.58520853E-01 -1.10777550E-01 -1.48026263E-01  1.13076702E+00
  1.00000000E+00  1.00000000E+00  1.83107443E-03  1.39501722E-02  6.84450781E-02
  2.32714336E-01  4.70192898E-01  3.58520853E-01 -1.10777550E-01 -1.48026263E-01
  1.13076702E+00  1.00000000E+00  1.00000000E+00  1.83473713E-03  1.40373228E-02
  6.88426223E-02  2.32184443E-01  4.67941348E-01  3.62311985E-01 -1.19332420E-01
 -1.60854152E-01  1.14345644E+00  1.00000000E+00  1.00000000E+00  1.83473713E-03
  1.40373228E-02  6.88426223E-02  2.32184443E-01  4.67941348E-01  3.62311985E-01
 -1.19332420E-01 -1.60854152E-01  1.14345644E+00  1.00000000E+00  1.00000000E+00
  1.83473713E-03  1.40373228E-02  6.88426223E-02  2.32184443E-01  4.67941348E-01
  3.62311985E-01 -1.19332420E-01 -1.60854152E-01  1.14345644E+00  1.00000000E+00
  1.00000000E+00  1.83473713E-03  1.40373228E-02  6.88426223E-02  2.32184443E-01
  4.67941348E-01  3.62311985E-01 -1.19332420E-01 -1.60854152E-01  1.14345644E+00
  1.00000000E+00  1.00000000E+00  3.34946043E-02  2.34726953E-01  8.13757326E-01
  1.00000000E+00  3.34946043E-02  2.34726953E-01  8.13757326E-01  1.00000000E+00
  3.34946043E-02  2.34726953E-01  8.13757326E-01  1.00000000E+00  3.34946043E-02
  2.34726953E-01  8.13757326E-01  1.00000000E+00  3.34946043E-02  2.34726953E-01
  8.13757326E-01  1.00000000E+00  3.34946043E-02  2.34726953E-01  8.13757326E-01
  1.00000000E+00  3.34946043E-02  2.34726953E-01  8.13757326E-01  1.00000000E+00
  3.34946043E-02  2.34726953E-01  8.13757326E-01  1.00000000E+00
P(S=P) Contraction coefficients            R   N=         109
  0.00000000E+00  0.00000000E+00  0.00000000E+00  0.00000000E+00  0.00000000E+00
  0.00000000E+00  7.08742682E-02  3.39752839E-01  7.27158577E-01  1.00000000E+00
  0.00000000E+00  0.00000000E+00  0.00000000E+00  0.00000000E+00  0.00000000E+00
  0.00000000E+00  0.00000000E+00  7.08742682E-02  3.39752839E-01  7.27158577E-01
  1.00000000E+00  0.00000000E+00  0.00000000E+00  0.00000000E+00  0.00000000E+00
  0.00000000E+00  0.00000000E+00  0.00000000E+00  7.08742682E-02  3.39752839E-01
  7.27158577E-01  1.00000000E+00  0.00000000E+00  0.00000000E+00  0.00000000E+00
  0.00000000E+00  0.00000000E+00  0.00000000E+00  0.00000000E+00  6.89990666E-02
  3.16423961E-01  7.44308291E-01  1.00000000E+00  0.00000000E+00  0.00000000E+00
  0.00000000E+00  0.00000000E+00  0.00000000E+00  0.00000000E+00  0.00000000E+00
  6.89990666E-02  3.16423961E-01  7.44308291E-01  1.00000000E+00  0.00000000E+00
  0.00000000E+00  0.00000000E+00  0.00000000E+00  0.00000000E+00  0.00000000E+00
  0.00000000E+00  6.89990666E-02  3.16423961E-01  7.44308291E-01  1.00000000E+00
  0.00000000E+00  0.00000000E+00  0.00000000E+00  0.00000000E+00  0.00000000E+00
  0.00000000E+00  0.00000000E+00  6.89990666E-02  3.16423961E-01  7.44308291E-01
  1.00000000E+00  0.00000000E+00  0.00000000E+00  0.00000000E+00  0.00000000E+00
  0.00000000E+00  0.00000000E+00  0.00000000E+00  0.00000000E+00  0.00000000E+00
  0.00000000E+00  0.00000000E+00  0.00000000E+00  0.00000000E+00  0.00000000E+00
  0.00000000E+00  0.00000000E+00  0.00000000E+00  0.00000000E+00  0.00000000E+00
  0.00000000E+00  0.00000000E+00  0.00000000E+00  0.00000000E+00  0.00000000E+00
  0.00000000E+00  0.00000000E+00  0.00000000E+00  0.00000000E+00  0.00000000E+00
  0.00000000E+00  0.00000000E+00  0.00000000E+00  0.00000000E+00
Coordinates of each shell                  R   N=         132
  1.92799425E-01 -1.12185599E+00  4.59730779E-01  1.92799425E-01 -1.12185599E+00
  4.59730779E-01  1.92799425E-01 -1.12185599E+00  4.59730779E-01  1.92799425E-01
 -1.12185599E+00  4.59730779E-01  4.26762420E+00 -1.37316748E+00  9.04343844E-01
  4.26762420E+00 -1.37316748E+00  9.04343844E-01  4.26762420E+00 -1.37316748E+00
  9.04343844E-01  4.26762420E+00 -1.37316748E+00  9.04343844E-01  2.68158213E+00
  1.86521818E+00 -1.45278262E+00  2.68158213E+00  1.86521818E+00 -1.45278262E+00
  2.68158213E+00  1.86521818E+00 -1.45278262E+00  2.68158213E+00  1.86521818E+00
 -1.45278262E+00 -2.06837720E+00  1.27152791E-01 -5.14711389E-01 -2.06837720E+00
  1.27152791E-01 -5.14711389E-01 -2.06837720E+00  1.27152791E-01 -5.14711389E-01
 -2.06837720E+00  1.27152791E-01 -5.14711389E-01 -4.07866444E+00 -1.90854417E+00
 -5.56955583E-01 -4.07866444E+00 -1.90854417E+00 -5.56955583E-01 -4.07866444E+00
 -1.90854417E+00 -5.56955583E-01 -4.07866444E+00 -1.90854417E+00 -5.56955583E-01
 -2.71695918E+00  2.34903890E+00  1.17490022E+00 -2.71695918E+00  2.34903890E+00
  1.17490022E+00 -2.71695918E+00  2.34903890E+00  1.17490022E+00 -2.71695918E+00
  2.34903890E+00  1.17490022E+00  2.38053259E+00 -1.71049461E-02 -1.60185768E-01
  2.38053259E+00 -1.71049461E-02 -1.60185768E-01  2.38053259E+00 -1.71049461E-02
 -1.60185768E-01  2.38053259E+00 -1.71049461E-02 -1.60185768E-01 -1.64037660E+00
  7.84638906E-01 -2.42651829E+00 -1.64037660E+00  7.84638906E-01 -2.42651829E+00
 -5.84401598E+00 -1.13751589E+00 -1.30525282E+00 -5.84401598E+00 -1.13751589E+00
 -1.30525282E+00 -3.48832347E+00 -3.48896056E+00 -1.74604941E+00 -3.48832347E+00
 -3.48896056E+00 -1.74604941E+00 -4.42142758E+00 -2.61147959E+00  1.35486787E+00
 -4.42142758E+00 -2.61147959E+00  1.35486787E+00 -4.45169604E+00  3.25928809E+00
  5.13866230E-01 -4.45169604E+00  3.25928809E+00  5.13866230E-01 -1.19789642E+00
  3.74428273E+00  1.14698428E+00 -1.19789642E+00  3.74428273E+00  1.14698428E+00
 -3.01057770E+00  1.69548863E+00  3.11305267E+00 -3.01057770E+00  1.69548863E+00
  3.11305267E+00  5.81907713E+00 -5.10555431E-01  4.00428528E-01  5.81907713E+00
 -5.10555431E-01  4.00428528E-01
Constraint Structure                       R   N=          45
  1.92799425E-01 -1.12185599E+00  4.59730779E-01  4.26762420E+00 -1.37316748E+00
  9.04343844E-01  2.68158213E+00  1.86521818E+00 -1.45278262E+00 -2.06837720E+00
  1.27152791E-01 -5.14711389E-01 -4.07866444E+00 -1.90854417E+00 -5.56955583E-01
 -2.71695918E+00  2.34903890E+00  1.17490022E+00  2.38053259E+00 -1.71049461E-02
 -1.60185768E-01 -1.64037660E+00  7.84638906E-01 -2.42651829E+00 -5.84401598E+00
 -1.13751589E+00 -1.30525282E+00 -3.48832347E+00 -3.48896056E+00 -1.74604941E+00
 -4.42142758E+00 -2.61147959E+00  1.35486787E+00 -4.45169604E+00  3.25928809E+00
  5.13866230E-01 -1.19789642E+00  3.74428273E+00  1.14698428E+00 -3.01057770E+00
  1.69548863E+00  3.11305267E+00  5.81907713E+00 -5.10555431E-01  4.00428528E-01
Num ILSW                                   I              100
ILSW                                       I   N=         100
           0           1           0           0           2           0
           0           0           0           0           0          -1
           0           0           0           0           0           0
           0           0           0           0           1           0
           1           0           0           0           0           0
           0           0      100000           0          -1           0
           0           0           0           0           0           0
           0           0           0           1           1           0
           0           0           1           0           0           0
           0           0           4          40           0           0
           0           0           0           0           0           0
           0           0           0           0           0           0
           0           0           0           0           0           0
           0           0           0           0           0           0
           0           0           0           0           0           0
           0           0           0           0           0           0
           0           0           0           0
Num RLSW                                   I               40
RLSW                                       R   N=          40
  1.00000000E+00  1.00000000E+00  1.00000000E+00  1.00000000E+00  1.00000000E+00
  0.00000000E+00  0.00000000E+00  1.00000000E+00  0.00000000E+00  0.00000000E+00
  0.00000000E+00  0.00000000E+00  1.00000000E+00  0.00000000E+00  0.00000000E+00
  0.00000000E+00  0.00000000E+00  1.00000000E+00  0.00000000E+00  0.00000000E+00
  0.00000000E+00  0.00000000E+00  1.00000000E+00  0.00000000E+00  0.00000000E+00
  0.00000000E+00  0.00000000E+00  1.00000000E+00  0.00000000E+00  0.00000000E+00
  0.00000000E+00  0.00000000E+00  0.00000000E+00  0.00000000E+00  0.00000000E+00
  0.00000000E+00  0.00000000E+00  0.00000000E+00  1.00000000E+00  1.00000000E+00
MxBond                                     I                4
NBond                                      I   N=          15
           2           2           1           4           4           4
           3           1           1           1           1           1
           1           1           1
IBond                                      I   N=          60
           4           7           0           0           7          15
           0           0           7           0           0           0
           1           5           6           8           4           9
          10          11           4          12          13          14
           1           2           3           0           4           0
           0           0           5           0           0           0
           5           0           0           0           5           0
           0           0           6           0           0           0
           6           0           0           0           6           0
           0           0           2           0           0           0
RBond                                      R   N=          60
  1.00000000E+00  1.50000000E+00  0.00000000E+00  0.00000000E+00  1.50000000E+00
  1.00000000E+00  0.00000000E+00  0.00000000E+00  2.00000000E+00  0.00000000E+00
  0.00000000E+00  0.00000000E+00  1.00000000E+00  1.00000000E+00  1.00000000E+00
  1.00000000E+00  1.00000000E+00  1.00000000E+00  1.00000000E+00  1.00000000E+00
  1.00000000E+00  1.00000000E+00  1.00000000E+00  1.00000000E+00  1.50000000E+00
  1.50000000E+00  2.00000000E+00  0.00000000E+00  1.00000000E+00  0.00000000E+00
  0.00000000E+00  0.00000000E+00  1.00000000E+00  0.00000000E+00  0.00000000E+00
  0.00000000E+00  1.00000000E+00  0.00000000E+00  0.00000000E+00  0.00000000E+00
  1.00000000E+00  0.00000000E+00  0.00000000E+00  0.00000000E+00  1.00000000E+00
  0.00000000E+00  0.00000000E+00  0.00000000E+00  1.00000000E+00  0.00000000E+00
  0.00000000E+00  0.00000000E+00  1.00000000E+00  0.00000000E+00  0.00000000E+00
  0.00000000E+00  1.00000000E+00  0.00000000E+00  0.00000000E+00  0.00000000E+00
Virial Ratio                               R      2.002873551943837E+00
SCF Energy                                 R     -3.807473708480004E+02
MP2 Energy                                 R     -3.817976172080496E+02
Total Energy                               R     -3.817976172080496E+02
Post-SCF wavefunction norm                 R      1.621597543559422E+00
RMS Force                                  R      1.647804236045263E-07
RMS Density                                R      2.269521455454443E-09
External E-field                           R   N=          35
  0.00000000E+00  0.00000000E+00  0.00000000E+00  0.00000000E+00  0.00000000E+00
  0.00000000E+00  0.00000000E+00  0.00000000E+00  0.00000000E+00  0.00000000E+00
  0.00000000E+00  0.00000000E+00  0.00000000E+00  0.00000000E+00  0.00000000E+00
  0.00000000E+00  0.00000000E+00  0.00000000E+00  0.00000000E+00  0.00000000E+00
  0.00000000E+00  0.00000000E+00  0.00000000E+00  0.00000000E+00  0.00000000E+00
  0.00000000E+00  0.00000000E+00  0.00000000E+00  0.00000000E+00  0.00000000E+00
  0.00000000E+00  0.00000000E+00  0.00000000E+00  0.00000000E+00  0.00000000E+00
IOpCl                                      I                0
IROHF                                      I                0
Alpha Orbital Energies                     R   N=         121
 -2.06276653E+01 -2.06175418E+01 -2.05587467E+01 -1.14449595E+01 -1.13011593E+01
 -1.12269065E+01 -1.12238428E+01 -1.50333202E+00 -1.39804477E+00 -1.36127226E+00
 -1.07592599E+00 -9.51347286E-01 -8.83599655E-01 -7.86659685E-01 -7.43193782E-01
 -7.10221744E-01 -6.82288211E-01 -6.32991079E-01 -6.24956876E-01 -5.99493627E-01
 -5.68160762E-01 -5.52399583E-01 -5.42091368E-01 -5.25213631E-01 -5.00406799E-01
 -4.85562447E-01 -4.71719341E-01 -4.59222417E-01  2.16720160E-01  2.19542439E-01
  2.34444089E-01  2.78674939E-01  2.85187656E-01  2.97915910E-01  3.19355527E-01
  3.39312467E-01  3.43296846E-01  3.58688661E-01  3.92234707E-01  4.14813894E-01
  4.41341543E-01  5.44135421E-01  5.73616427E-01  6.81402727E-01  7.01424255E-01
  7.21412019E-01  7.47260580E-01  7.86509238E-01  7.96825941E-01  8.29190449E-01
  8.98155889E-01  9.03940928E-01  9.20655635E-01  9.68037452E-01  9.79657142E-01
  1.03092860E+00  1.04688411E+00  1.08973177E+00  1.14257966E+00  1.14921370E+00
  1.15823344E+00  1.17055882E+00  1.17897032E+00  1.19859255E+00  1.20723875E+00
  1.22411990E+00  1.23245854E+00  1.25028332E+00  1.28280964E+00  1.30661771E+00
  1.37912194E+00  1.40385022E+00  1.41380388E+00  1.55167035E+00  1.59400537E+00
  1.61574930E+00  1.67636311E+00  1.70865661E+00  1.76482652E+00  1.81770907E+00
  1.85023040E+00  1.92644825E+00  2.01177403E+00  2.01863140E+00  2.05541020E+00
  2.06946203E+00  2.09824891E+00  2.11675863E+00  2.12472544E+00  2.19923616E+00
  2.24326352E+00  2.27241648E+00  2.31067962E+00  2.32633832E+00  2.38683493E+00
  2.42389402E+00  2.46371353E+00  2.48247908E+00  2.54234679E+00  2.57056934E+00
  2.58738269E+00  2.74377959E+00  2.79356310E+00  2.81074482E+00  2.83284223E+00
  2.87836343E+00  3.01860229E+00  3.05150105E+00  3.06958035E+00  3.08965962E+00
  3.14180963E+00  3.30382833E+00  3.47445801E+00  3.52931676E+00  4.26645324E+00
  4.45652209E+00  4.57654513E+00  4.66141899E+00  4.71983865E+00  4.72368742E+00
  4.97061070E+00
Alpha MO coefficients                      R   N=       14641
 -1.31304469E-03 -1.76158370E-04 -3.99440107E-05 -2.72063368E-05  1.55465506E-05
  8.97719554E-04  8.96508581E-05  1.73221788E-04 -1.06573964E-04 -1.51210130E-04
 -7.84496708E-05 -9.25510049E-05  8.46069345E-06 -1.15996130E-05 -1.79652594E-05
  9.94637435E-01  2.11839358E-02  5.40099377E-05  1.11212866E-03 -7.72733553E-04
  4.10184448E-03 -2.13606616E-04 -5.53204012E-04  3.72706164E-04 -4.14474829E-03
 -4.03679997E-03 -3.98212656E-03 -1.70612033E-05 -3.71694460E-06  8.47108708E-05
 -2.30877496E-04  7.81626628E-05 -1.98743985E-05  2.21392051E-05 -1.74696995E-05
 -6.36899583E-04 -1.17861763E-04  1.35381427E-04 -9.88559638E-05  6.70472098E-05
  7.56267548E-06  1.20654254E-05  6.83251632E-05 -4.51065877E-05  1.87483412E-05
 -1.56798791E-07  1.23365272E-05 -1.91645910E-05  1.01153289E-05 -3.68015981E-06
 -1.52144539E-04 -8.23622747E-05 -2.38194655E-05 -3.40961119E-05 -2.00403043E-05
  3.87594137E-06 -2.75135109E-06 -2.38534420E-06  8.88520202E-07 -9.23833158E-06
 -6.32655590E-08 -6.87334181E-07 -1.52665137E-06  1.03027558E-06 -1.70407821E-06
 -1.47978462E-05  1.12039620E-05 -3.60738846E-06  1.39899783E-05 -1.78534723E-06
  1.45882316E-06  1.20436003E-06  3.47459226E-06 -9.61136272E-07  9.24308147E-07
 -9.31024413E-07 -7.33448884E-06  4.38903379E-07 -7.30547839E-06 -4.32404967E-06
  7.62921314E-05  4.09068765E-05 -4.43395661E-07 -1.29197912E-05  9.89005244E-07
  1.40854784E-06  8.12415240E-07 -2.45389522E-07 -4.43404788E-06  1.53379586E-06
 -3.31874490E-06  4.28584124E-04  2.53686277E-04 -1.68660462E-04  1.33589471E-04
 -1.99095997E-04  4.49698168E-04  6.22740111E-04 -4.06555437E-04 -1.06015200E-04
 -4.48743718E-05 -5.40203027E-05  7.02626421E-05 -5.32300037E-05 -1.35790677E-06
  1.67695167E-05 -1.63446951E-06  2.71320076E-06  5.17307469E-06 -2.37260252E-06
  9.15126659E-06 -3.18853575E-06  7.65174992E-07 -1.80510906E-07  2.18395876E-06
 -1.89336287E-07 -4.02402574E-05 -5.01155774E-06  1.00128753E-05  4.35752606E-04
 -2.74374639E-04  9.94648052E-01  2.12746833E-02  3.05806757E-04  1.05645147E-03
 -6.86838726E-04  3.70641561E-03  2.44822975E-05 -7.09966400E-04  4.58826842E-04
 -4.16008923E-03 -4.01349087E-03 -3.95974625E-03  4.10670262E-05 -3.92791765E-05
  9.96374664E-05  1.26054990E-03 -7.72719000E-05  3.36132360E-05 -2.49408918E-05
  2.20153338E-05  6.53127675E-04 -2.17674520E-06  1.31070050E-04 -1.04281139E-04
 -1.41900001E-04 -6.32598665E-05 -7.24106690E-05  1.47873749E-05 -1.32082523E-05
 -1.67422516E-05 -2.49024284E-04  9.49494114E-05  2.08245021E-05  1.45338508E-05
 -7.46785008E-06 -6.51337783E-04  1.84289100E-04  1.25708492E-04 -8.84061229E-05
  3.34500746E-05  4.06890832E-05  4.83803600E-05 -8.76862613E-05  5.97251356E-05
  2.43572229E-06 -2.47246433E-05  8.14905699E-05  2.94033451E-04 -1.72598117E-04
  1.38625723E-04  5.05949542E-04  3.75415068E-05  2.74454842E-05 -1.15092956E-05
  1.18240828E-04  1.17552598E-05 -1.46521685E-05 -8.60319004E-05  7.71700988E-05
 -2.40916744E-05  1.16346556E-05  9.85093165E-05  1.70069121E-05 -1.87921713E-05
  1.37193922E-05 -2.19279391E-04 -3.31725915E-04  3.61840144E-05 -1.07915590E-04
 -4.74770814E-05  1.18161062E-05 -3.63249015E-06 -2.37308298E-05 -8.57759873E-06
 -6.74814522E-06  2.36020445E-06  5.38837827E-05 -9.12277044E-06  1.96508264E-05
  7.14790005E-06 -1.21647122E-04 -1.10167197E-04  9.39901010E-05  6.06399327E-05
 -2.75330437E-05 -3.27325085E-05 -1.37505341E-05  2.83474845E-05  1.46836610E-05
 -8.52352632E-06  9.21345561E-06  4.67903545E-04 -3.10681202E-04 -1.44944632E-04
  7.24951446E-05 -5.88593666E-05 -2.80342273E-04  5.71439960E-04 -3.76447931E-04
 -1.15179881E-04 -1.50636833E-05 -2.24190407E-05 -6.98726577E-05  4.16881919E-05
 -2.33243794E-05 -5.32350194E-05 -1.29441139E-04 -1.15397081E-05 -1.56882347E-04
  4.59010275E-05  1.47471473E-05  5.78082029E-05 -7.57775937E-06 -2.93262562E-07
 -3.53068297E-05  1.51495643E-05 -1.61122837E-05  2.28143336E-05 -5.34565799E-05
 -4.52853504E-05 -5.09496993E-05  2.64717972E-04 -4.97370203E-05 -5.03627527E-06
 -1.98698877E-05  1.14036757E-05  2.66393142E-04  1.79709410E-04  2.01611720E-05
  1.47651508E-05  1.26225285E-04 -9.26079880E-05 -7.38244620E-05 -2.45588220E-05
  2.70047460E-05  2.99165014E-05  2.30470388E-04 -1.01447217E-04  6.83470776E-07
 -2.90223311E-05  2.10842754E-05  5.50292460E-04 -1.81721119E-04  7.71760051E-05
 -6.90217758E-05  6.39024327E-05 -1.32140883E-04 -1.11423954E-04 -1.57308330E-05
  2.34806463E-05  2.70343924E-05  9.94703647E-01  2.10978433E-02 -2.02944367E-04
 -1.34997561E-03  9.23645536E-04  3.97046357E-03  2.63636694E-05  1.33036765E-04
 -8.25598093E-05 -3.87669933E-03 -3.70971873E-03 -3.88875044E-03  3.76352877E-05
 -1.65724931E-05 -2.73197309E-04 -7.82207458E-07  2.12125947E-05  1.30857606E-05
  2.29001129E-05  1.05749772E-06  1.42367298E-04 -2.00956111E-04 -1.22530120E-04
 -3.90889921E-05 -2.81015665E-05 -1.20758550E-05 -1.27124508E-05  1.66398877E-05
 -1.02806067E-05  1.40352966E-05  1.05645493E-06  7.66442239E-06 -1.08548779E-05
 -8.53884451E-06 -4.27632006E-09 -1.85647226E-04 -2.23699996E-05 -7.00041522E-05
  1.40048804E-05  2.39018971E-06 -7.71051543E-06  1.97461854E-06 -2.74321060E-06
  2.05890897E-06  3.34386540E-06 -2.79559409E-06 -1.78559153E-05  5.38027405E-06
 -1.09206817E-05 -5.44590002E-06  1.42213057E-04  7.33438541E-05  7.53176039E-05
  1.87961943E-06  3.49832879E-06 -8.30663198E-06 -5.28286567E-07 -5.64024404E-06
 -5.52180946E-06 -7.02975774E-06 -6.06332871E-06  5.42805882E-04  1.44236061E-05
 -3.21909171E-05  1.95505547E-05 -5.72333263E-04 -1.74814025E-04  1.05193368E-04
 -7.76272529E-05 -9.79415202E-05 -6.20212857E-04 -3.08527886E-04 -1.05501543E-04
  6.91242064E-05  4.66347870E-04  2.68312928E-05 -1.10142685E-04  7.42443557E-06
  2.26774645E-05  9.19734609E-07  3.78684846E-06  2.90584061E-07  5.39093785E-06
 -8.01114812E-06 -2.69566975E-06  2.11683848E-05 -1.74423216E-04 -8.43245002E-06
  9.49795831E-06 -2.18892405E-05 -1.95442832E-05 -1.11789578E-04  6.12597310E-04
  1.17016215E-04  1.66500959E-04 -9.29429347E-05 -1.78303571E-03 -1.11081676E-03
 -1.07173413E-03  6.59455767E-04 -5.05849071E-04  1.38228433E-04  2.87894163E-04
 -2.41710766E-04  1.05654124E-04  1.96872005E-04 -5.05297852E-05  7.94918244E-04
 -4.04999191E-05  1.20329219E-04 -9.22137899E-05 -2.97275346E-03  1.03854933E-03
 -1.21644293E-03  9.38617783E-04 -2.42234569E-04  2.12889767E-04  3.54011615E-04
  3.68054755E-04 -3.18873988E-04  3.02032782E-04 -3.49227046E-04  2.50401826E-04