
    -----------------------------------------------------------------------
          Psi4: An Open-Source Ab Initio Electronic Structure Package
                               Psi4 1.4a3.dev225 

                         Git: Rev {master} 7105e37 


    D. G. A. Smith, L. A. Burns, A. C. Simmonett, R. M. Parrish,
    M. C. Schieber, R. Galvelis, P. Kraus, H. Kruse, R. Di Remigio,
    A. Alenaizan, A. M. James, S. Lehtola, J. P. Misiewicz, M. Scheurer,
    R. A. Shaw, J. B. Schriber, Y. Xie, Z. L. Glick, D. A. Sirianni,
    J. S. O'Brien, J. M. Waldrop, A. Kumar, E. G. Hohenstein,
    B. P. Pritchard, B. R. Brooks, H. F. Schaefer III, A. Yu. Sokolov,
    K. Patkowski, A. E. DePrince III, U. Bozkaya, R. A. King,
    F. A. Evangelista, J. M. Turney, T. D. Crawford, C. D. Sherrill,
    J. Chem. Phys. 152(18) 184108 (2020). https://doi.org/10.1063/5.0006002

                            Additional Code Authors
    E. T. Seidl, C. L. Janssen, E. F. Valeev, M. L. Leininger,
    J. F. Gonthier, R. M. Richard, H. R. McAlexander, M. Saitow, X. Wang,
    P. Verma, and M. H. Lechner

             Previous Authors, Complete List of Code Contributors,
                       and Citations for Specific Modules
    https://github.com/psi4/psi4/blob/master/codemeta.json
    https://github.com/psi4/psi4/graphs/contributors
    http://psicode.org/psi4manual/master/introduction.html#citing-psifour

    -----------------------------------------------------------------------


    Psi4 started on: Sunday, 28 February 2021 05:46AM

    Process ID: 253724
    Host:       c402-053.stampede2.tacc.utexas.edu
    PSIDATADIR: /home1/07844/xy3866/miniconda3/envs/p4env/share/psi4
    Memory:     500.0 MiB
    Threads:    32
    
  ==> Input File <==

--------------------------------------------------------------------------
#psi4
#
memory 32 gb

molecule  {
0 1
  S        2.3127110    -1.0235480     0.0053950
  N       -0.6038690    -1.4671430     0.0025680
  N        1.5465020     1.4501510    -0.0053670
  C       -2.6591070     0.4777660    -0.0131840
  C       -0.3303560    -0.1463500    -0.0014890
  C       -1.3149260     0.8499960    -0.0079370
  C        1.0885480     0.2076610    -0.0012920
  C       -2.9473560    -0.8932820    -0.0075970
  C       -3.7562130     1.5070280     0.0143710
  C       -1.9011700    -1.8146870    -0.0009620
  C        3.5068880     0.2049870     0.0025490
  C        2.9141540     1.4483870    -0.0033310
  H       -1.0097250     1.8934330    -0.0150530
  H       -4.0723150    -1.2749519    -0.0157208
  H       -4.0970980     1.6828510     1.0402330
  H       -3.4086480     2.4606730    -0.3912090
  H       -4.6191930     1.1768790    -0.5707550
  H       -2.1040920    -2.8844300    -0.0003970
  H        4.5630320    -0.0321470     0.0049780
  H        3.4487670     2.3922440    -0.0062430
units angstrom
no_reorient  #important for SAPT in psi4, default
symmetry c1  #important for SAPT in psi4, default
}

set PROPERTIES_ORIGIN ["COM"]
properties('MP2/aug-cc-pvtz', properties = ['dipole'])
--------------------------------------------------------------------------

  Memory set to  29.802 GiB by Python driver.
    SCF Algorithm Type (re)set to DF.

*** tstart() called on c402-053.stampede2.tacc.utexas.edu
*** at Sun Feb 28 05:46:36 2021

   => Loading Basis Set <=

    Name: AUG-CC-PVTZ
    Role: ORBITAL
    Keyword: BASIS
    atoms 1     entry S          line   906 file /home1/07844/xy3866/miniconda3/envs/p4env/share/psi4/basis/aug-cc-pvtz.gbs 
    atoms 2-3   entry N          line   285 file /home1/07844/xy3866/miniconda3/envs/p4env/share/psi4/basis/aug-cc-pvtz.gbs 
    atoms 4-12  entry C          line   239 file /home1/07844/xy3866/miniconda3/envs/p4env/share/psi4/basis/aug-cc-pvtz.gbs 
    atoms 13-20 entry H          line    40 file /home1/07844/xy3866/miniconda3/envs/p4env/share/psi4/basis/aug-cc-pvtz.gbs 


         ---------------------------------------------------------
                                   SCF
               by Justin Turney, Rob Parrish, Andy Simmonett
                          and Daniel G. A. Smith
                              RHF Reference
                       32 Threads,  30517 MiB Core
         ---------------------------------------------------------

  ==> Geometry <==

    Molecular point group: c1
    Full point group: C1

    Geometry (in Angstrom), charge = 0, multiplicity = 1:

       Center              X                  Y                   Z               Mass       
    ------------   -----------------  -----------------  -----------------  -----------------
         S            2.250453989251    -0.992828433821     0.005661855347    31.972071174400
         N           -0.666126010749    -1.436423433821     0.002834855347    14.003074004430
         N            1.484244989251     1.480870566179    -0.005100144653    14.003074004430
         C           -2.721364010749     0.508485566179    -0.012917144653    12.000000000000
         C           -0.392613010749    -0.115630433821    -0.001222144653    12.000000000000
         C           -1.377183010749     0.880715566179    -0.007670144653    12.000000000000
         C            1.026290989251     0.238380566179    -0.001025144653    12.000000000000
         C           -3.009613010749    -0.862562433821    -0.007330144653    12.000000000000
         C           -3.818470010749     1.537747566179     0.014637855347    12.000000000000
         C           -1.963427010749    -1.783967433821    -0.000695144653    12.000000000000
         C            3.444630989251     0.235706566179     0.002815855347    12.000000000000
         C            2.851896989251     1.479106566179    -0.003064144653    12.000000000000
         H           -1.071982010749     1.924152566179    -0.014786144653     1.007825032230
         H           -4.134572010749    -1.244232333821    -0.015453944653     1.007825032230
         H           -4.159355010749     1.713570566179     1.040499855347     1.007825032230
         H           -3.470905010749     2.491392566179    -0.390942144653     1.007825032230
         H           -4.681450010749     1.207598566179    -0.570488144653     1.007825032230
         H           -2.166349010749    -2.853710433821    -0.000130144653     1.007825032230
         H            4.500774989251    -0.001427433821     0.005244855347     1.007825032230
         H            3.386509989251     2.422963566179    -0.005976144653     1.007825032230

  Running in c1 symmetry.

  Rotational constants: A =      0.07070  B =      0.01680  C =      0.01361 [cm^-1]
  Rotational constants: A =   2119.49880  B =    503.68120  C =    408.00760 [MHz]
  Nuclear repulsion =  719.847400826833564

  Charge       = 0
  Multiplicity = 1
  Electrons    = 92
  Nalpha       = 46
  Nbeta        = 46

  ==> Algorithm <==

  SCF Algorithm Type is DF.
  DIIS enabled.
  MOM disabled.
  Fractional occupation disabled.
  Guess Type is SAD.
  Energy threshold   = 1.00e-10
  Density threshold  = 1.00e-10
  Integral threshold = 1.00e-12

  ==> Primary Basis <==

  Basis Set: AUG-CC-PVTZ
    Blend: AUG-CC-PVTZ
    Number of shells: 242
    Number of basis functions: 740
    Number of Cartesian functions: 864
    Spherical Harmonics?: true
    Max angular momentum: 3

   => Loading Basis Set <=

    Name: (AUG-CC-PVTZ AUX)
    Role: JKFIT
    Keyword: DF_BASIS_SCF
    atoms 1     entry S          line   730 file /home1/07844/xy3866/miniconda3/envs/p4env/share/psi4/basis/aug-cc-pvtz-jkfit.gbs 
    atoms 2-3   entry N          line   224 file /home1/07844/xy3866/miniconda3/envs/p4env/share/psi4/basis/aug-cc-pvtz-jkfit.gbs 
    atoms 4-12  entry C          line   162 file /home1/07844/xy3866/miniconda3/envs/p4env/share/psi4/basis/aug-cc-pvtz-jkfit.gbs 
    atoms 13-20 entry H          line    70 file /home1/07844/xy3866/miniconda3/envs/p4env/share/psi4/basis/aug-cc-pvtz-jkfit.gbs 

  ==> Integral Setup <==

  DFHelper Memory: AOs need 6.032 GiB; user supplied 22.352 GiB. Using in-core AOs.

  ==> MemDFJK: Density-Fitted J/K Matrices <==

    J tasked:                   Yes
    K tasked:                   Yes
    wK tasked:                   No
    OpenMP threads:              32
    Memory [MiB]:             22888
    Algorithm:                 Core
    Schwarz Cutoff:           1E-12
    Mask sparsity (%):      14.6969
    Fitting Condition:        1E-10

   => Auxiliary Basis Set <=

  Basis Set: (AUG-CC-PVTZ AUX)
    Blend: AUG-CC-PVTZ-JKFIT
    Number of shells: 484
    Number of basis functions: 1658
    Number of Cartesian functions: 2061
    Spherical Harmonics?: true
    Max angular momentum: 4

  Minimum eigenvalue in the overlap matrix is 1.0034802851E-06.
  Reciprocal condition number of the overlap matrix is 5.4954753147E-08.
    Using symmetric orthogonalization.

  ==> Pre-Iterations <==

  SCF Guess: Superposition of Atomic Densities via on-the-fly atomic UHF (no occupation information).

   -------------------------
    Irrep   Nso     Nmo    
   -------------------------
     A        740     740 
   -------------------------
    Total     740     740
   -------------------------

  ==> Iterations <==

                           Total Energy        Delta E     RMS |[F,P]|

   @DF-RHF iter SAD:  -851.63316720585976   -8.51633e+02   0.00000e+00 
   @DF-RHF iter   1:  -851.72747455865374   -9.43074e-02   9.69511e-04 DIIS
   @DF-RHF iter   2:  -851.96508672027142   -2.37612e-01   5.53705e-04 DIIS
   @DF-RHF iter   3:  -852.04542591968016   -8.03392e-02   1.38373e-04 DIIS
   @DF-RHF iter   4:  -852.05241828587646   -6.99237e-03   6.03116e-05 DIIS
   @DF-RHF iter   5:  -852.05383552820172   -1.41724e-03   1.54573e-05 DIIS
   @DF-RHF iter   6:  -852.05402545131528   -1.89923e-04   7.31276e-06 DIIS
   @DF-RHF iter   7:  -852.05409810532262   -7.26540e-05   3.63975e-06 DIIS
   @DF-RHF iter   8:  -852.05411404817892   -1.59429e-05   1.37303e-06 DIIS
   @DF-RHF iter   9:  -852.05411637746238   -2.32928e-06   4.98637e-07 DIIS
   @DF-RHF iter  10:  -852.05411664485462   -2.67392e-07   2.21939e-07 DIIS
   @DF-RHF iter  11:  -852.05411669453486   -4.96802e-08   1.28313e-07 DIIS
   @DF-RHF iter  12:  -852.05411671004833   -1.55135e-08   6.24357e-08 DIIS
   @DF-RHF iter  13:  -852.05411671588740   -5.83907e-09   2.56283e-08 DIIS
   @DF-RHF iter  14:  -852.05411671668821   -8.00810e-10   1.14578e-08 DIIS
   @DF-RHF iter  15:  -852.05411671684169   -1.53477e-10   4.52707e-09 DIIS
   @DF-RHF iter  16:  -852.05411671685738   -1.56888e-11   2.11681e-09 DIIS
   @DF-RHF iter  17:  -852.05411671686034   -2.95586e-12   8.26494e-10 DIIS
   @DF-RHF iter  18:  -852.05411671686068   -3.41061e-13   2.94871e-10 DIIS
   @DF-RHF iter  19:  -852.05411671686102   -3.41061e-13   1.24743e-10 DIIS
   @DF-RHF iter  20:  -852.05411671686147   -4.54747e-13   6.29933e-11 DIIS
  Energy and wave function converged.


  ==> Post-Iterations <==

    Orbital Energies [Eh]
    ---------------------

    Doubly Occupied:                                                      

       1A    -91.994050     2A    -15.572743     3A    -15.572739  
       4A    -11.312058     5A    -11.294487     6A    -11.282908  
       7A    -11.272736     8A    -11.268731     9A    -11.263615  
      10A    -11.254540    11A    -11.242811    12A    -11.239768  
      13A     -8.994039    14A     -6.674805    15A     -6.674254  
      16A     -6.673593    17A     -1.285192    18A     -1.257197  
      19A     -1.113582    20A     -1.065168    21A     -1.060377  
      22A     -0.982865    23A     -0.972461    24A     -0.868832  
      25A     -0.844439    26A     -0.784234    27A     -0.749480  
      28A     -0.696503    29A     -0.679197    30A     -0.660480  
      31A     -0.633311    32A     -0.596035    33A     -0.584512  
      34A     -0.572909    35A     -0.571486    36A     -0.557270  
      37A     -0.547019    38A     -0.526970    39A     -0.511758  
      40A     -0.500710    41A     -0.441481    42A     -0.421567  
      43A     -0.393913    44A     -0.382208    45A     -0.366919  
      46A     -0.305361  

    Virtual:                                                              

      47A      0.025538    48A      0.030342    49A      0.032864  
      50A      0.041396    51A      0.042881    52A      0.045200  
      53A      0.054153    54A      0.057852    55A      0.066407  
      56A      0.078867    57A      0.080279    58A      0.087600  
      59A      0.094009    60A      0.094887    61A      0.100181  
      62A      0.107189    63A      0.109316    64A      0.110246  
      65A      0.110305    66A      0.115843    67A      0.120540  
      68A      0.126080    69A      0.126781    70A      0.130625  
      71A      0.133535    72A      0.135890    73A      0.137350  
      74A      0.140067    75A      0.142877    76A      0.150054  
      77A      0.151656    78A      0.154394    79A      0.158040  
      80A      0.165909    81A      0.176836    82A      0.181014  
      83A      0.185432    84A      0.188846    85A      0.188993  
      86A      0.197684    87A      0.201810    88A      0.209244  
      89A      0.209670    90A      0.212628    91A      0.219779  
      92A      0.221014    93A      0.225373    94A      0.236193  
      95A      0.243259    96A      0.246973    97A      0.249729  
      98A      0.252959    99A      0.259262   100A      0.263979  
     101A      0.268133   102A      0.274495   103A      0.274608  
     104A      0.277195   105A      0.282486   106A      0.295936  
     107A      0.298705   108A      0.303211   109A      0.307026  
     110A      0.310631   111A      0.316103   112A      0.320443  
     113A      0.326860   114A      0.333607   115A      0.336514  
     116A      0.337267   117A      0.341459   118A      0.347012  
     119A      0.350780   120A      0.355641   121A      0.357931  
     122A      0.360885   123A      0.364274   124A      0.368752  
     125A      0.371744   126A      0.379047   127A      0.388289  
     128A      0.391568   129A      0.394394   130A      0.399359  
     131A      0.407561   132A      0.411870   133A      0.414018  
     134A      0.416128   135A      0.422901   136A      0.428432  
     137A      0.430935   138A      0.440491   139A      0.444301  
     140A      0.446942   141A      0.450369   142A      0.451252  
     143A      0.458042   144A      0.463256   145A      0.469262  
     146A      0.470240   147A      0.472458   148A      0.473252  
     149A      0.478657   150A      0.482356   151A      0.484429  
     152A      0.487157   153A      0.491570   154A      0.495038  
     155A      0.498459   156A      0.502929   157A      0.508655  
     158A      0.510571   159A      0.519284   160A      0.524279  
     161A      0.527661   162A      0.531726   163A      0.534180  
     164A      0.536333   165A      0.539712   166A      0.542572  
     167A      0.547190   168A      0.548304   169A      0.550494  
     170A      0.557337   171A      0.560942   172A      0.563232  
     173A      0.575076   174A      0.578144   175A      0.580716  
     176A      0.584117   177A      0.589997   178A      0.602564  
     179A      0.606164   180A      0.613826   181A      0.615122  
     182A      0.619467   183A      0.627243   184A      0.636530  
     185A      0.642102   186A      0.656414   187A      0.664224  
     188A      0.675420   189A      0.677562   190A      0.681513  
     191A      0.688732   192A      0.693506   193A      0.701554  
     194A      0.711229   195A      0.714179   196A      0.720401  
     197A      0.727476   198A      0.731336   199A      0.737427  
     200A      0.744457   201A      0.747134   202A      0.751710  
     203A      0.761060   204A      0.765932   205A      0.773766  
     206A      0.782349   207A      0.787443   208A      0.799497  
     209A      0.803130   210A      0.804355   211A      0.816472  
     212A      0.820544   213A      0.826547   214A      0.829216  
     215A      0.835680   216A      0.836520   217A      0.850134  
     218A      0.852575   219A      0.856588   220A      0.859898  
     221A      0.867394   222A      0.870857   223A      0.877975  
     224A      0.879174   225A      0.894569   226A      0.898356  
     227A      0.901077   228A      0.902507   229A      0.911890  
     230A      0.916901   231A      0.918037   232A      0.926906  
     233A      0.932033   234A      0.937205   235A      0.940468  
     236A      0.948701   237A      0.949125   238A      0.954544  
     239A      0.958839   240A      0.963170   241A      0.969406  
     242A      0.973626   243A      0.974886   244A      0.982288  
     245A      0.987682   246A      0.989199   247A      0.997032  
     248A      1.003717   249A      1.006597   250A      1.012640  
     251A      1.019994   252A      1.022715   253A      1.025731  
     254A      1.032659   255A      1.035015   256A      1.038168  
     257A      1.042053   258A      1.047958   259A      1.051511  
     260A      1.063280   261A      1.069962   262A      1.073738  
     263A      1.079044   264A      1.084384   265A      1.085002  
     266A      1.089188   267A      1.090178   268A      1.100766  
     269A      1.108817   270A      1.115984   271A      1.117557  
     272A      1.119251   273A      1.125955   274A      1.129666  
     275A      1.133110   276A      1.143037   277A      1.151732  
     278A      1.154575   279A      1.159620   280A      1.160796  
     281A      1.170542   282A      1.173130   283A      1.177011  
     284A      1.184373   285A      1.186846   286A      1.192222  
     287A      1.195830   288A      1.202168   289A      1.207441  
     290A      1.211293   291A      1.211842   292A      1.217396  
     293A      1.223833   294A      1.225649   295A      1.231701  
     296A      1.236714   297A      1.245530   298A      1.251280  
     299A      1.255000   300A      1.260751   301A      1.264657  
     302A      1.273060   303A      1.279973   304A      1.287734  
     305A      1.300806   306A      1.309933   307A      1.317213  
     308A      1.321601   309A      1.334819   310A      1.343717  
     311A      1.354986   312A      1.358888   313A      1.365696  
     314A      1.368338   315A      1.381547   316A      1.388552  
     317A      1.397580   318A      1.407471   319A      1.412844  
     320A      1.427051   321A      1.435316   322A      1.446032  
     323A      1.453798   324A      1.461082   325A      1.462347  
     326A      1.470085   327A      1.476886   328A      1.491911  
     329A      1.502271   330A      1.506341   331A      1.509941  
     332A      1.511489   333A      1.529947   334A      1.543611  
     335A      1.549255   336A      1.555630   337A      1.560518  
     338A      1.574775   339A      1.576664   340A      1.577554  
     341A      1.585481   342A      1.589092   343A      1.603129  
     344A      1.608708   345A      1.621166   346A      1.629483  
     347A      1.634911   348A      1.646189   349A      1.652996  
     350A      1.663019   351A      1.668117   352A      1.686006  
     353A      1.689642   354A      1.700636   355A      1.704097  
     356A      1.706797   357A      1.709849   358A      1.726958  
     359A      1.729284   360A      1.734256   361A      1.748958  
     362A      1.750443   363A      1.763963   364A      1.767716  
     365A      1.772473   366A      1.775009   367A      1.787065  
     368A      1.804530   369A      1.817182   370A      1.827328  
     371A      1.832104   372A      1.833466   373A      1.836540  
     374A      1.841821   375A      1.870737   376A      1.871541  
     377A      1.875677   378A      1.880990   379A      1.895539  
     380A      1.897679   381A      1.902212   382A      1.912878  
     383A      1.920254   384A      1.929201   385A      1.942336  
     386A      1.950264   387A      1.954492   388A      1.958217  
     389A      1.966847   390A      1.979143   391A      1.984301  
     392A      1.987365   393A      1.997495   394A      2.012107  
     395A      2.025559   396A      2.034232   397A      2.051119  
     398A      2.061602   399A      2.066745   400A      2.074916  
     401A      2.079075   402A      2.083847   403A      2.093463  
     404A      2.097388   405A      2.107178   406A      2.124844  
     407A      2.127524   408A      2.137635   409A      2.148891  
     410A      2.157514   411A      2.172534   412A      2.175886  
     413A      2.178636   414A      2.185582   415A      2.197679  
     416A      2.204551   417A      2.220749   418A      2.221900  
     419A      2.227344   420A      2.234355   421A      2.243658  
     422A      2.251774   423A      2.254814   424A      2.258264  
     425A      2.265494   426A      2.281897   427A      2.288026  
     428A      2.294465   429A      2.308397   430A      2.325873  
     431A      2.339314   432A      2.349197   433A      2.357440  
     434A      2.365941   435A      2.374189   436A      2.386302  
     437A      2.397575   438A      2.411915   439A      2.413594  
     440A      2.426080   441A      2.432914   442A      2.444750  
     443A      2.450979   444A      2.457755   445A      2.476012  
     446A      2.487870   447A      2.489205   448A      2.512167  
     449A      2.521291   450A      2.528657   451A      2.538538  
     452A      2.542229   453A      2.559636   454A      2.597868  
     455A      2.602837   456A      2.608390   457A      2.617794  
     458A      2.630857   459A      2.663078   460A      2.683400  
     461A      2.686328   462A      2.700988   463A      2.703113  
     464A      2.722102   465A      2.739999   466A      2.760134  
     467A      2.776727   468A      2.800838   469A      2.834867  
     470A      2.842529   471A      2.845560   472A      2.882767  
     473A      2.886173   474A      2.906887   475A      2.944303  
     476A      2.983467   477A      3.021879   478A      3.023844  
     479A      3.049588   480A      3.060291   481A      3.088124  
     482A      3.104972   483A      3.117900   484A      3.140766  
     485A      3.156432   486A      3.180084   487A      3.197837  
     488A      3.206401   489A      3.233641   490A      3.245389  
     491A      3.262290   492A      3.265597   493A      3.281627  
     494A      3.301899   495A      3.311189   496A      3.321922  
     497A      3.348002   498A      3.359275   499A      3.369074  
     500A      3.396661   501A      3.409225   502A      3.412876  
     503A      3.419252   504A      3.437398   505A      3.443237  
     506A      3.463303   507A      3.469484   508A      3.475237  
     509A      3.489063   510A      3.496762   511A      3.507941  
     512A      3.513294   513A      3.528820   514A      3.535420  
     515A      3.541105   516A      3.553434   517A      3.569793  
     518A      3.575647   519A      3.585185   520A      3.600871  
     521A      3.618688   522A      3.627492   523A      3.635199  
     524A      3.650960   525A      3.659357   526A      3.662000  
     527A      3.674955   528A      3.680001   529A      3.684710  
     530A      3.708384   531A      3.728554   532A      3.736489  
     533A      3.749371   534A      3.761766   535A      3.762423  
     536A      3.769445   537A      3.777016   538A      3.779353  
     539A      3.784860   540A      3.808789   541A      3.811021  
     542A      3.813727   543A      3.830722   544A      3.837011  
     545A      3.840644   546A      3.848286   547A      3.857440  
     548A      3.875124   549A      3.884284   550A      3.888985  
     551A      3.906743   552A      3.912279   553A      3.923121  
     554A      3.926071   555A      3.932669   556A      3.946859  
     557A      3.951959   558A      3.957146   559A      3.961835  
     560A      3.978223   561A      3.983683   562A      4.006967  
     563A      4.007455   564A      4.018827   565A      4.028913  
     566A      4.036546   567A      4.050114   568A      4.054251  
     569A      4.072758   570A      4.077332   571A      4.086202  
     572A      4.094273   573A      4.100211   574A      4.112229  
     575A      4.128358   576A      4.141297   577A      4.153105  
     578A      4.161470   579A      4.165601   580A      4.176073  
     581A      4.192733   582A      4.196618   583A      4.203618  
     584A      4.214043   585A      4.226413   586A      4.240250  
     587A      4.252063   588A      4.257741   589A      4.268325  
     590A      4.274441   591A      4.292613   592A      4.299857  
     593A      4.309491   594A      4.317845   595A      4.322916  
     596A      4.352792   597A      4.359239   598A      4.367691  
     599A      4.374009   600A      4.380549   601A      4.387163  
     602A      4.409044   603A      4.421225   604A      4.428942  
     605A      4.436152   606A      4.447124   607A      4.469958  
     608A      4.478858   609A      4.487208   610A      4.500151  
     611A      4.512093   612A      4.534855   613A      4.554024  
     614A      4.571158   615A      4.580771   616A      4.591207  
     617A      4.614963   618A      4.620486   619A      4.651412  
     620A      4.654728   621A      4.676151   622A      4.682663  
     623A      4.704816   624A      4.715581   625A      4.733013  
     626A      4.736040   627A      4.741802   628A      4.756970  
     629A      4.769904   630A      4.803692   631A      4.818599  
     632A      4.836408   633A      4.846831   634A      4.860795  
     635A      4.868339   636A      4.870136   637A      4.890971  
     638A      4.896021   639A      4.926205   640A      4.935282  
     641A      4.941134   642A      4.957227   643A      4.978402  
     644A      4.981629   645A      4.994270   646A      5.013006  
     647A      5.040813   648A      5.057589   649A      5.064359  
     650A      5.066610   651A      5.087811   652A      5.093715  
     653A      5.128161   654A      5.138956   655A      5.144678  
     656A      5.154905   657A      5.173062   658A      5.189524  
     659A      5.193325   660A      5.215408   661A      5.231120  
     662A      5.259979   663A      5.270183   664A      5.291091  
     665A      5.315970   666A      5.337350   667A      5.344242  
     668A      5.373531   669A      5.410425   670A      5.419774  
     671A      5.438235   672A      5.469558   673A      5.485321  
     674A      5.514380   675A      5.531075   676A      5.546289  
     677A      5.557320   678A      5.562882   679A      5.600273  
     680A      5.619271   681A      5.638679   682A      5.661955  
     683A      5.701416   684A      5.724512   685A      5.728849  
     686A      5.739698   687A      5.749242   688A      5.768413  
     689A      5.777201   690A      5.801279   691A      5.823923  
     692A      5.832944   693A      5.866214   694A      5.891205  
     695A      5.907665   696A      5.911390   697A      5.925941  
     698A      6.014772   699A      6.020763   700A      6.056501  
     701A      6.086232   702A      6.107083   703A      6.149783  
     704A      6.165176   705A      6.184009   706A      6.191198  
     707A      6.212910   708A      6.231823   709A      6.295098  
     710A      6.374897   711A      6.466669   712A      6.505144  
     713A      6.548824   714A      6.609197   715A      6.652500  
     716A      6.676881   717A      6.730460   718A      6.764994  
     719A      6.771687   720A      6.804511   721A      6.834629  
     722A      6.875859   723A      6.954577   724A      6.999742  
     725A      7.043475   726A      7.064160   727A      7.141191  
     728A      7.358296   729A      9.345250   730A     15.821431  
     731A     16.022901   732A     16.402363   733A     16.509888  
     734A     16.965273   735A     17.729245   736A     18.523462  
     737A     19.262575   738A     19.510471   739A     19.990616  
     740A     21.310783  

    Final Occupation by Irrep:
              A 
    DOCC [    46 ]

  @DF-RHF Final Energy:  -852.05411671686147

   => Energetics <=

    Nuclear Repulsion Energy =            719.8474008268335638
    One-Electron Energy =               -2594.7604121568565461
    Two-Electron Energy =                1022.8588946131615103
    Total Energy =                       -852.0541167168614720

Computation Completed

*** tstop() called on c402-053.stampede2.tacc.utexas.edu at Sun Feb 28 05:47:29 2021
Module time:
	user time   =     999.08 seconds =      16.65 minutes
	system time =      66.43 seconds =       1.11 minutes
	total time  =         53 seconds =       0.88 minutes
Total time:
	user time   =     999.08 seconds =      16.65 minutes
	system time =      66.43 seconds =       1.11 minutes
	total time  =         53 seconds =       0.88 minutes
   => Loading Basis Set <=

    Name: (AUG-CC-PVTZ AUX)
    Role: RIFIT
    Keyword: DF_BASIS_MP2
    atoms 1     entry S          line   666 file /home1/07844/xy3866/miniconda3/envs/p4env/share/psi4/basis/aug-cc-pvtz-ri.gbs 
    atoms 2-3   entry N          line   206 file /home1/07844/xy3866/miniconda3/envs/p4env/share/psi4/basis/aug-cc-pvtz-ri.gbs 
    atoms 4-12  entry C          line   148 file /home1/07844/xy3866/miniconda3/envs/p4env/share/psi4/basis/aug-cc-pvtz-ri.gbs 
    atoms 13-20 entry H          line    30 file /home1/07844/xy3866/miniconda3/envs/p4env/share/psi4/basis/aug-cc-pvtz-ri.gbs 


*** tstart() called on c402-053.stampede2.tacc.utexas.edu
*** at Sun Feb 28 05:47:30 2021


  //>>>>>>>>>>>>>>>>>>>>>>>>>>>>>>>>>>>//
  //               DFMP2               //
  //<<<<<<<<<<<<<<<<<<<<<<<<<<<<<<<<<<<//

	 --------------------------------------------------------
	                          DF-MP2                         
	      2nd-Order Density-Fitted Moller-Plesset Theory     
	              RMP2 Wavefunction,  32 Threads             
	                                                         
	        Rob Parrish, Justin Turney, Andy Simmonett,      
	           Ed Hohenstein, and C. David Sherrill          
	 --------------------------------------------------------

   => Auxiliary Basis Set <=

  Basis Set: (AUG-CC-PVTZ AUX)
    Blend: AUG-CC-PVTZ-RI
    Number of shells: 457
    Number of basis functions: 1681
    Number of Cartesian functions: 2127
    Spherical Harmonics?: true
    Max angular momentum: 4

	 --------------------------------------------------------
	                 NBF =   740, NAUX =  1681
	 --------------------------------------------------------
	   CLASS    FOCC     OCC    AOCC    AVIR     VIR    FVIR
	   PAIRS       0      46      46     694     694       0
	 --------------------------------------------------------

  DFHelper Memory: AOs need 6.363 GiB; user supplied 22.352 GiB. Using in-core AOs.


         ------------------------------------------------------------
                                     CPHF                           
                                  Rob Parrish                       
         ------------------------------------------------------------

  ==> Geometry <==

    Molecular point group: c1
    Full point group: C1

    Geometry (in Angstrom), charge = 0, multiplicity = 1:

       Center              X                  Y                   Z               Mass       
    ------------   -----------------  -----------------  -----------------  -----------------
         S            2.250453989251    -0.992828433821     0.005661855347    31.972071174400
         N           -0.666126010749    -1.436423433821     0.002834855347    14.003074004430
         N            1.484244989251     1.480870566179    -0.005100144653    14.003074004430
         C           -2.721364010749     0.508485566179    -0.012917144653    12.000000000000
         C           -0.392613010749    -0.115630433821    -0.001222144653    12.000000000000
         C           -1.377183010749     0.880715566179    -0.007670144653    12.000000000000
         C            1.026290989251     0.238380566179    -0.001025144653    12.000000000000
         C           -3.009613010749    -0.862562433821    -0.007330144653    12.000000000000
         C           -3.818470010749     1.537747566179     0.014637855347    12.000000000000
         C           -1.963427010749    -1.783967433821    -0.000695144653    12.000000000000
         C            3.444630989251     0.235706566179     0.002815855347    12.000000000000
         C            2.851896989251     1.479106566179    -0.003064144653    12.000000000000
         H           -1.071982010749     1.924152566179    -0.014786144653     1.007825032230
         H           -4.134572010749    -1.244232333821    -0.015453944653     1.007825032230
         H           -4.159355010749     1.713570566179     1.040499855347     1.007825032230
         H           -3.470905010749     2.491392566179    -0.390942144653     1.007825032230
         H           -4.681450010749     1.207598566179    -0.570488144653     1.007825032230
         H           -2.166349010749    -2.853710433821    -0.000130144653     1.007825032230
         H            4.500774989251    -0.001427433821     0.005244855347     1.007825032230
         H            3.386509989251     2.422963566179    -0.005976144653     1.007825032230

  Nuclear repulsion =  719.847400826833564
  Reference energy  = -852.054116716861472

  ==> Basis Set <==

  Basis Set: AUG-CC-PVTZ
    Blend: AUG-CC-PVTZ
    Number of shells: 242
    Number of basis functions: 740
    Number of Cartesian functions: 864
    Spherical Harmonics?: true
    Max angular momentum: 3

  ==> CGRSolver (by Rob Parrish) <==

   Number of roots    =         1
   Preconditioning    =    JACOBI
   Convergence cutoff =     1E-06
   Maximum iterations =       100

  ==> CPHFRHamiltonian (by Rob Parrish) <== 

  ==> MemDFJK: Density-Fitted J/K Matrices <==

    J tasked:                   Yes
    K tasked:                   Yes
    wK tasked:                   No
    OpenMP threads:              32
    Memory [MiB]:             22888
    Algorithm:                 Core
    Schwarz Cutoff:           1E-12
    Mask sparsity (%):       9.7955
    Fitting Condition:        1E-10

   => Auxiliary Basis Set <=

  Basis Set: (AUG-CC-PVTZ AUX)
    Blend: AUG-CC-PVTZ-JKFIT
    Number of shells: 484
    Number of basis functions: 1658
    Number of Cartesian functions: 2061
    Spherical Harmonics?: true
    Max angular momentum: 4

  ==> CPHF Iterations <==

  => Iterations <=

             Iter  Converged  Remaining    Residual
  CGR           1          0          1   1.129E-01
  CGR           2          0          1   4.411E-02
  CGR           3          0          1   2.517E-02
  CGR           4          0          1   8.688E-03
  CGR           5          0          1   3.014E-03
  CGR           6          0          1   1.213E-03
  CGR           7          0          1   5.195E-04
  CGR           8          0          1   2.540E-04
  CGR           9          0          1   1.214E-04
  CGR          10          0          1   5.123E-05
  CGR          11          0          1   2.276E-05
  CGR          12          0          1   9.169E-06
  CGR          13          0          1   4.101E-06
  CGR          14          0          1   1.562E-06
  CGR          15          1          0   7.511E-07

    CGRSolver converged.

	-----------------------------------------------------------
	 ==================> DF-MP2 Energies <==================== 
	-----------------------------------------------------------
	 Reference Energy          =    -852.0541167168614720 [Eh]
	 Singles Energy            =      -0.0000000000000000 [Eh]
	 Same-Spin Energy          =      -0.5694119672441997 [Eh]
	 Opposite-Spin Energy      =      -1.7102433031226687 [Eh]
	 Correlation Energy        =      -2.2796552703668684 [Eh]
	 Total Energy              =    -854.3337719872283742 [Eh]
	-----------------------------------------------------------
	 ================> DF-SCS-MP2 Energies <================== 
	-----------------------------------------------------------
	 SCS Same-Spin Scale       =       0.3333333333333333 [-]
	 SCS Opposite-Spin Scale   =       1.2000000000000000 [-]
	 SCS Same-Spin Energy      =      -0.1898039890813999 [Eh]
	 SCS Opposite-Spin Energy  =      -2.0522919637472024 [Eh]
	 SCS Correlation Energy    =      -2.2420959528286022 [Eh]
	 SCS Total Energy          =    -854.2962126696900214 [Eh]
	-----------------------------------------------------------



Properties will be evaluated at  -0.000000,   0.000000,  -0.000000 [a0]

Properties computed using the MP2 density matrix

  Nuclear Dipole Moment: [e a0]
     X:   -11.0026      Y:     5.2800      Z:     0.0451

  Electronic Dipole Moment: [e a0]
     X:    10.5165      Y:    -5.1189      Z:    -0.0284

  Dipole Moment: [e a0]
     X:    -0.4861      Y:     0.1611      Z:     0.0167     Total:     0.5124

  Dipole Moment: [D]
     X:    -1.2356      Y:     0.4095      Z:     0.0425     Total:     1.3024


*** tstop() called on c402-053.stampede2.tacc.utexas.edu at Sun Feb 28 05:53:42 2021
Module time:
	user time   =    3075.09 seconds =      51.25 minutes
	system time =      92.57 seconds =       1.54 minutes
	total time  =        372 seconds =       6.20 minutes
Total time:
	user time   =    4075.18 seconds =      67.92 minutes
	system time =     159.02 seconds =       2.65 minutes
	total time  =        426 seconds =       7.10 minutes

    Psi4 stopped on: Sunday, 28 February 2021 05:53AM
    Psi4 wall time for execution: 0:07:08.08

*** Psi4 exiting successfully. Buy a developer a beer!
