
    -----------------------------------------------------------------------
          Psi4: An Open-Source Ab Initio Electronic Structure Package
                               Psi4 1.4a3.dev225 

                         Git: Rev {master} 7105e37 


    D. G. A. Smith, L. A. Burns, A. C. Simmonett, R. M. Parrish,
    M. C. Schieber, R. Galvelis, P. Kraus, H. Kruse, R. Di Remigio,
    A. Alenaizan, A. M. James, S. Lehtola, J. P. Misiewicz, M. Scheurer,
    R. A. Shaw, J. B. Schriber, Y. Xie, Z. L. Glick, D. A. Sirianni,
    J. S. O'Brien, J. M. Waldrop, A. Kumar, E. G. Hohenstein,
    B. P. Pritchard, B. R. Brooks, H. F. Schaefer III, A. Yu. Sokolov,
    K. Patkowski, A. E. DePrince III, U. Bozkaya, R. A. King,
    F. A. Evangelista, J. M. Turney, T. D. Crawford, C. D. Sherrill,
    J. Chem. Phys. 152(18) 184108 (2020). https://doi.org/10.1063/5.0006002

                            Additional Code Authors
    E. T. Seidl, C. L. Janssen, E. F. Valeev, M. L. Leininger,
    J. F. Gonthier, R. M. Richard, H. R. McAlexander, M. Saitow, X. Wang,
    P. Verma, and M. H. Lechner

             Previous Authors, Complete List of Code Contributors,
                       and Citations for Specific Modules
    https://github.com/psi4/psi4/blob/master/codemeta.json
    https://github.com/psi4/psi4/graphs/contributors
    http://psicode.org/psi4manual/master/introduction.html#citing-psifour

    -----------------------------------------------------------------------


    Psi4 started on: Thursday, 01 April 2021 10:45AM

    Process ID: 148446
    Host:       c431-073.stampede2.tacc.utexas.edu
    PSIDATADIR: /home1/07844/xy3866/miniconda3/envs/p4env/share/psi4
    Memory:     500.0 MiB
    Threads:    8
    
  ==> Input File <==

--------------------------------------------------------------------------
#psi4
#
memory 32 gb

molecule  {
0 1
  S        2.3127110    -1.0235480     0.0053950
  N       -0.6038690    -1.4671430     0.0025680
  N        1.5465020     1.4501510    -0.0053670
  C       -2.6591070     0.4777660    -0.0131840
  C       -0.3303560    -0.1463500    -0.0014890
  C       -1.3631122     0.8366523    -0.0081251
  C        1.0885480     0.2076610    -0.0012920
  C       -2.9473560    -0.8932820    -0.0075970
  C       -3.7562130     1.5070280     0.0143710
  C       -1.9011700    -1.8146870    -0.0009620
  C        3.5068880     0.2049870     0.0025490
  C        2.9141540     1.4483870    -0.0033310
  H       -1.0097250     1.8934330    -0.0150530
  H       -3.9776190    -1.2428240    -0.0150370
  H       -4.0970980     1.6828510     1.0402330
  H       -3.4086480     2.4606730    -0.3912090
  H       -4.6191930     1.1768790    -0.5707550
  H       -2.1040920    -2.8844300    -0.0003970
  H        4.5630320    -0.0321470     0.0049780
  H        3.4487670     2.3922440    -0.0062430
units angstrom
no_reorient  #important for SAPT in psi4, default
symmetry c1  #important for SAPT in psi4, default
}

set PROPERTIES_ORIGIN ["COM"]
properties('MP2/aug-cc-pvtz', properties = ['dipole'])
--------------------------------------------------------------------------

  Memory set to  29.802 GiB by Python driver.
    SCF Algorithm Type (re)set to DF.

*** tstart() called on c431-073.stampede2.tacc.utexas.edu
*** at Thu Apr  1 10:45:41 2021

   => Loading Basis Set <=

    Name: AUG-CC-PVTZ
    Role: ORBITAL
    Keyword: BASIS
    atoms 1     entry S          line   906 file /home1/07844/xy3866/miniconda3/envs/p4env/share/psi4/basis/aug-cc-pvtz.gbs 
    atoms 2-3   entry N          line   285 file /home1/07844/xy3866/miniconda3/envs/p4env/share/psi4/basis/aug-cc-pvtz.gbs 
    atoms 4-12  entry C          line   239 file /home1/07844/xy3866/miniconda3/envs/p4env/share/psi4/basis/aug-cc-pvtz.gbs 
    atoms 13-20 entry H          line    40 file /home1/07844/xy3866/miniconda3/envs/p4env/share/psi4/basis/aug-cc-pvtz.gbs 


         ---------------------------------------------------------
                                   SCF
               by Justin Turney, Rob Parrish, Andy Simmonett
                          and Daniel G. A. Smith
                              RHF Reference
                        8 Threads,  30517 MiB Core
         ---------------------------------------------------------

  ==> Geometry <==

    Molecular point group: c1
    Full point group: C1

    Geometry (in Angstrom), charge = 0, multiplicity = 1:

       Center              X                  Y                   Z               Mass       
    ------------   -----------------  -----------------  -----------------  -----------------
         S            2.253196520229    -0.992102777700     0.005670762651    31.972071174400
         N           -0.663383479771    -1.435697777700     0.002843762651    14.003074004430
         N            1.486987520229     1.481596222300    -0.005091237349    14.003074004430
         C           -2.718621479771     0.509211222300    -0.012908237349    12.000000000000
         C           -0.389870479771    -0.114904777700    -0.001213237349    12.000000000000
         C           -1.422626679771     0.868097522300    -0.007849337349    12.000000000000
         C            1.029033520229     0.239106222300    -0.001016237349    12.000000000000
         C           -3.006870479771    -0.861836777700    -0.007321237349    12.000000000000
         C           -3.815727479771     1.538473222300     0.014646762651    12.000000000000
         C           -1.960684479771    -1.783241777700    -0.000686237349    12.000000000000
         C            3.447373520229     0.236432222300     0.002824762651    12.000000000000
         C            2.854639520229     1.479832222300    -0.003055237349    12.000000000000
         H           -1.069239479771     1.924878222300    -0.014777237349     1.007825032230
         H           -4.037133479771    -1.211378777700    -0.014761237349     1.007825032230
         H           -4.156612479771     1.714296222300     1.040508762651     1.007825032230
         H           -3.468162479771     2.492118222300    -0.390933237349     1.007825032230
         H           -4.678707479771     1.208324222300    -0.570479237349     1.007825032230
         H           -2.163606479771    -2.852984777700    -0.000121237349     1.007825032230
         H            4.503517520229    -0.000701777700     0.005253762651     1.007825032230
         H            3.389252520229     2.423689222300    -0.005967237349     1.007825032230

  Running in c1 symmetry.

  Rotational constants: A =      0.07080  B =      0.01679  C =      0.01360 [cm^-1]
  Rotational constants: A =   2122.65111  B =    503.26306  C =    407.84970 [MHz]
  Nuclear repulsion =  720.474178647463873

  Charge       = 0
  Multiplicity = 1
  Electrons    = 92
  Nalpha       = 46
  Nbeta        = 46

  ==> Algorithm <==

  SCF Algorithm Type is DF.
  DIIS enabled.
  MOM disabled.
  Fractional occupation disabled.
  Guess Type is SAD.
  Energy threshold   = 1.00e-10
  Density threshold  = 1.00e-10
  Integral threshold = 1.00e-12

  ==> Primary Basis <==

  Basis Set: AUG-CC-PVTZ
    Blend: AUG-CC-PVTZ
    Number of shells: 242
    Number of basis functions: 740
    Number of Cartesian functions: 864
    Spherical Harmonics?: true
    Max angular momentum: 3

   => Loading Basis Set <=

    Name: (AUG-CC-PVTZ AUX)
    Role: JKFIT
    Keyword: DF_BASIS_SCF
    atoms 1     entry S          line   730 file /home1/07844/xy3866/miniconda3/envs/p4env/share/psi4/basis/aug-cc-pvtz-jkfit.gbs 
    atoms 2-3   entry N          line   224 file /home1/07844/xy3866/miniconda3/envs/p4env/share/psi4/basis/aug-cc-pvtz-jkfit.gbs 
    atoms 4-12  entry C          line   162 file /home1/07844/xy3866/miniconda3/envs/p4env/share/psi4/basis/aug-cc-pvtz-jkfit.gbs 
    atoms 13-20 entry H          line    70 file /home1/07844/xy3866/miniconda3/envs/p4env/share/psi4/basis/aug-cc-pvtz-jkfit.gbs 

  ==> Integral Setup <==

  DFHelper Memory: AOs need 5.936 GiB; user supplied 22.352 GiB. Using in-core AOs.

  ==> MemDFJK: Density-Fitted J/K Matrices <==

    J tasked:                   Yes
    K tasked:                   Yes
    wK tasked:                   No
    OpenMP threads:               8
    Memory [MiB]:             22888
    Algorithm:                 Core
    Schwarz Cutoff:           1E-12
    Mask sparsity (%):      14.6596
    Fitting Condition:        1E-10

   => Auxiliary Basis Set <=

  Basis Set: (AUG-CC-PVTZ AUX)
    Blend: AUG-CC-PVTZ-JKFIT
    Number of shells: 484
    Number of basis functions: 1658
    Number of Cartesian functions: 2061
    Spherical Harmonics?: true
    Max angular momentum: 4

  Minimum eigenvalue in the overlap matrix is 9.9122198302E-07.
  Reciprocal condition number of the overlap matrix is 5.4082884977E-08.
    Using symmetric orthogonalization.

  ==> Pre-Iterations <==

  SCF Guess: Superposition of Atomic Densities via on-the-fly atomic UHF (no occupation information).

   -------------------------
    Irrep   Nso     Nmo    
   -------------------------
     A        740     740 
   -------------------------
    Total     740     740
   -------------------------

  ==> Iterations <==

                           Total Energy        Delta E     RMS |[F,P]|

   @DF-RHF iter SAD:  -851.70966312176142   -8.51710e+02   0.00000e+00 
   @DF-RHF iter   1:  -851.72777128977316   -1.81082e-02   9.78478e-04 DIIS
   @DF-RHF iter   2:  -851.96704928074791   -2.39278e-01   5.60990e-04 DIIS
   @DF-RHF iter   3:  -852.04933399883623   -8.22847e-02   1.39598e-04 DIIS
   @DF-RHF iter   4:  -852.05641905343737   -7.08505e-03   6.09965e-05 DIIS
   @DF-RHF iter   5:  -852.05788085965651   -1.46181e-03   1.59087e-05 DIIS
   @DF-RHF iter   6:  -852.05808380203723   -2.02942e-04   7.46760e-06 DIIS
   @DF-RHF iter   7:  -852.05816316027301   -7.93582e-05   3.80336e-06 DIIS
   @DF-RHF iter   8:  -852.05818072262866   -1.75624e-05   1.43613e-06 DIIS
   @DF-RHF iter   9:  -852.05818328546411   -2.56284e-06   5.40166e-07 DIIS
   @DF-RHF iter  10:  -852.05818361284673   -3.27383e-07   2.52270e-07 DIIS
   @DF-RHF iter  11:  -852.05818367903544   -6.61887e-08   1.39852e-07 DIIS
   @DF-RHF iter  12:  -852.05818369973349   -2.06981e-08   7.10304e-08 DIIS
   @DF-RHF iter  13:  -852.05818370682357   -7.09008e-09   2.74504e-08 DIIS
   @DF-RHF iter  14:  -852.05818370771601   -8.92442e-10   1.17664e-08 DIIS
   @DF-RHF iter  15:  -852.05818370787165   -1.55637e-10   4.64206e-09 DIIS
   @DF-RHF iter  16:  -852.05818370788529   -1.36424e-11   2.26361e-09 DIIS
   @DF-RHF iter  17:  -852.05818370788768   -2.38742e-12   9.09459e-10 DIIS
   @DF-RHF iter  18:  -852.05818370789063   -2.95586e-12   3.57155e-10 DIIS
   @DF-RHF iter  19:  -852.05818370789177   -1.13687e-12   1.66361e-10 DIIS
   @DF-RHF iter  20:  -852.05818370789166    1.13687e-13   8.59047e-11 DIIS
  Energy and wave function converged.


  ==> Post-Iterations <==

    Orbital Energies [Eh]
    ---------------------

    Doubly Occupied:                                                      

       1A    -91.995336     2A    -15.574327     3A    -15.572576  
       4A    -11.313695     5A    -11.297630     6A    -11.279682  
       7A    -11.269658     8A    -11.265020     9A    -11.263765  
      10A    -11.243201    11A    -11.240989    12A    -11.238247  
      13A     -8.995289    14A     -6.676049    15A     -6.675503  
      16A     -6.674835    17A     -1.285757    18A     -1.257527  
      19A     -1.120193    20A     -1.064766    21A     -1.059656  
      22A     -0.985120    23A     -0.970861    24A     -0.875155  
      25A     -0.842019    26A     -0.784683    27A     -0.751971  
      28A     -0.697834    29A     -0.679202    30A     -0.671028  
      31A     -0.629931    32A     -0.596203    33A     -0.585940  
      34A     -0.572954    35A     -0.572368    36A     -0.558715  
      37A     -0.546862    38A     -0.526731    39A     -0.519422  
      40A     -0.500918    41A     -0.441783    42A     -0.419416  
      43A     -0.393773    44A     -0.385736    45A     -0.368013  
      46A     -0.304359  

    Virtual:                                                              

      47A      0.025755    48A      0.030035    49A      0.033075  
      50A      0.041315    51A      0.042990    52A      0.045354  
      53A      0.051939    54A      0.057889    55A      0.066723  
      56A      0.079054    57A      0.080472    58A      0.087316  
      59A      0.094183    60A      0.095144    61A      0.101987  
      62A      0.107350    63A      0.109294    64A      0.110216  
      65A      0.110561    66A      0.117321    67A      0.120962  
      68A      0.126169    69A      0.127126    70A      0.130511  
      71A      0.134153    72A      0.135716    73A      0.137056  
      74A      0.139817    75A      0.143287    76A      0.150648  
      77A      0.151937    78A      0.154525    79A      0.158052  
      80A      0.166355    81A      0.176617    82A      0.180976  
      83A      0.184968    84A      0.188441    85A      0.188945  
      86A      0.196950    87A      0.201124    88A      0.209002  
      89A      0.209801    90A      0.212364    91A      0.219908  
      92A      0.221118    93A      0.225460    94A      0.236197  
      95A      0.244073    96A      0.247143    97A      0.249824  
      98A      0.253076    99A      0.259188   100A      0.263906  
     101A      0.268346   102A      0.274343   103A      0.276852  
     104A      0.277921   105A      0.283125   106A      0.295778  
     107A      0.300120   108A      0.306566   109A      0.307744  
     110A      0.310695   111A      0.316277   112A      0.320850  
     113A      0.326152   114A      0.334024   115A      0.336299  
     116A      0.338032   117A      0.342835   118A      0.347297  
     119A      0.351141   120A      0.355589   121A      0.358675  
     122A      0.360888   123A      0.365703   124A      0.369979  
     125A      0.370592   126A      0.379359   127A      0.388139  
     128A      0.390633   129A      0.394547   130A      0.400052  
     131A      0.406701   132A      0.411901   133A      0.413533  
     134A      0.416664   135A      0.422985   136A      0.430121  
     137A      0.431680   138A      0.441738   139A      0.444312  
     140A      0.448995   141A      0.450636   142A      0.453249  
     143A      0.457843   144A      0.462612   145A      0.469442  
     146A      0.471841   147A      0.473330   148A      0.475347  
     149A      0.478945   150A      0.482405   151A      0.484185  
     152A      0.488712   153A      0.491739   154A      0.494937  
     155A      0.498810   156A      0.503284   157A      0.510125  
     158A      0.512341   159A      0.518363   160A      0.526588  
     161A      0.527964   162A      0.532559   163A      0.534863  
     164A      0.537037   165A      0.541762   166A      0.542625  
     167A      0.547130   168A      0.547559   169A      0.550606  
     170A      0.556673   171A      0.562073   172A      0.563245  
     173A      0.574994   174A      0.578911   175A      0.581951  
     176A      0.583611   177A      0.589847   178A      0.601903  
     179A      0.606455   180A      0.613994   181A      0.615853  
     182A      0.619812   183A      0.626514   184A      0.638749  
     185A      0.642584   186A      0.655902   187A      0.664628  
     188A      0.676459   189A      0.677775   190A      0.682078  
     191A      0.690431   192A      0.695845   193A      0.700893  
     194A      0.714390   195A      0.715738   196A      0.723601  
     197A      0.729443   198A      0.731248   199A      0.737616  
     200A      0.745181   201A      0.746234   202A      0.750436  
     203A      0.759744   204A      0.766418   205A      0.773899  
     206A      0.780931   207A      0.789754   208A      0.799107  
     209A      0.802061   210A      0.804149   211A      0.814965  
     212A      0.821177   213A      0.827978   214A      0.831349  
     215A      0.836825   216A      0.838106   217A      0.850011  
     218A      0.853316   219A      0.857173   220A      0.863208  
     221A      0.868510   222A      0.874072   223A      0.878452  
     224A      0.879124   225A      0.893238   226A      0.896253  
     227A      0.900754   228A      0.902160   229A      0.911944  
     230A      0.916144   231A      0.921559   232A      0.928153  
     233A      0.935455   234A      0.938691   235A      0.940815  
     236A      0.948964   237A      0.949513   238A      0.953997  
     239A      0.958800   240A      0.962530   241A      0.970499  
     242A      0.974047   243A      0.975782   244A      0.983032  
     245A      0.986606   246A      0.990109   247A      0.997443  
     248A      1.003691   249A      1.008468   250A      1.009861  
     251A      1.019648   252A      1.024179   253A      1.026349  
     254A      1.034396   255A      1.035685   256A      1.037158  
     257A      1.042417   258A      1.050470   259A      1.053961  
     260A      1.063736   261A      1.071839   262A      1.073840  
     263A      1.077999   264A      1.084297   265A      1.084927  
     266A      1.087822   267A      1.090822   268A      1.099621  
     269A      1.106849   270A      1.116487   271A      1.117702  
     272A      1.119859   273A      1.126517   274A      1.131218  
     275A      1.134766   276A      1.141530   277A      1.154213  
     278A      1.156128   279A      1.160541   280A      1.163820  
     281A      1.170504   282A      1.174218   283A      1.179103  
     284A      1.187327   285A      1.190874   286A      1.197181  
     287A      1.199268   288A      1.202525   289A      1.210188  
     290A      1.214017   291A      1.214861   292A      1.222308  
     293A      1.222936   294A      1.227705   295A      1.235171  
     296A      1.238548   297A      1.247729   298A      1.251411  
     299A      1.259249   300A      1.260867   301A      1.268639  
     302A      1.272378   303A      1.284049   304A      1.291733  
     305A      1.302483   306A      1.310152   307A      1.318865  
     308A      1.322154   309A      1.337279   310A      1.347384  
     311A      1.356276   312A      1.361336   313A      1.365266  
     314A      1.372011   315A      1.383857   316A      1.390919  
     317A      1.398526   318A      1.410813   319A      1.412400  
     320A      1.426617   321A      1.436869   322A      1.446808  
     323A      1.454269   324A      1.464903   325A      1.465539  
     326A      1.472057   327A      1.482594   328A      1.494989  
     329A      1.503700   330A      1.507110   331A      1.509647  
     332A      1.511654   333A      1.530108   334A      1.545133  
     335A      1.551640   336A      1.560313   337A      1.566538  
     338A      1.576809   339A      1.577649   340A      1.579251  
     341A      1.586245   342A      1.591343   343A      1.607893  
     344A      1.608899   345A      1.621363   346A      1.628917  
     347A      1.634795   348A      1.648684   349A      1.653671  
     350A      1.665913   351A      1.668895   352A      1.688673  
     353A      1.693098   354A      1.701021   355A      1.705516  
     356A      1.709181   357A      1.714834   358A      1.725998  
     359A      1.733909   360A      1.734729   361A      1.750946  
     362A      1.757042   363A      1.761428   364A      1.773640  
     365A      1.775209   366A      1.780649   367A      1.786702  
     368A      1.809949   369A      1.823889   370A      1.827284  
     371A      1.834681   372A      1.838324   373A      1.841032  
     374A      1.849824   375A      1.868416   376A      1.872276  
     377A      1.880674   378A      1.883745   379A      1.896256  
     380A      1.904640   381A      1.912827   382A      1.918166  
     383A      1.930793   384A      1.932777   385A      1.941720  
     386A      1.951894   387A      1.954755   388A      1.962041  
     389A      1.969175   390A      1.981397   391A      1.986650  
     392A      1.989808   393A      1.999408   394A      2.014701  
     395A      2.024448   396A      2.031743   397A      2.050870  
     398A      2.062806   399A      2.071445   400A      2.077787  
     401A      2.084314   402A      2.086060   403A      2.091654  
     404A      2.099388   405A      2.103555   406A      2.124962  
     407A      2.128472   408A      2.143363   409A      2.153769  
     410A      2.164687   411A      2.175947   412A      2.179313  
     413A      2.182757   414A      2.188667   415A      2.200760  
     416A      2.203020   417A      2.221083   418A      2.225973  
     419A      2.234099   420A      2.238411   421A      2.242873  
     422A      2.255042   423A      2.258547   424A      2.265314  
     425A      2.272209   426A      2.278907   427A      2.284974  
     428A      2.296312   429A      2.313276   430A      2.328538  
     431A      2.336274   432A      2.350832   433A      2.353747  
     434A      2.366399   435A      2.375048   436A      2.389152  
     437A      2.399069   438A      2.408489   439A      2.414399  
     440A      2.420664   441A      2.432131   442A      2.446686  
     443A      2.457420   444A      2.457630   445A      2.463976  
     446A      2.486033   447A      2.487003   448A      2.510468  
     449A      2.522774   450A      2.536010   451A      2.539882  
     452A      2.545925   453A      2.565919   454A      2.600590  
     455A      2.608485   456A      2.615817   457A      2.622134  
     458A      2.628665   459A      2.662757   460A      2.685213  
     461A      2.689743   462A      2.707479   463A      2.713270  
     464A      2.725134   465A      2.746281   466A      2.763802  
     467A      2.775690   468A      2.807122   469A      2.824144  
     470A      2.837783   471A      2.852860   472A      2.879933  
     473A      2.889172   474A      2.902986   475A      2.948195  
     476A      2.992400   477A      3.009099   478A      3.025903  
     479A      3.048897   480A      3.054741   481A      3.086371  
     482A      3.092616   483A      3.109187   484A      3.143695  
     485A      3.161454   486A      3.185827   487A      3.198980  
     488A      3.210134   489A      3.226144   490A      3.243887  
     491A      3.260143   492A      3.267838   493A      3.290302  
     494A      3.303948   495A      3.312146   496A      3.323911  
     497A      3.360748   498A      3.368097   499A      3.383118  
     500A      3.394811   501A      3.413989   502A      3.415709  
     503A      3.420499   504A      3.430095   505A      3.451748  
     506A      3.461776   507A      3.466452   508A      3.478384  
     509A      3.491173   510A      3.499659   511A      3.511814  
     512A      3.517049   513A      3.530266   514A      3.536006  
     515A      3.547447   516A      3.558156   517A      3.575465  
     518A      3.583198   519A      3.596107   520A      3.598670  
     521A      3.617221   522A      3.630538   523A      3.637525  
     524A      3.653319   525A      3.660444   526A      3.665202  
     527A      3.678145   528A      3.679585   529A      3.693099  
     530A      3.711471   531A      3.727795   532A      3.742804  
     533A      3.745054   534A      3.762697   535A      3.765602  
     536A      3.773316   537A      3.777243   538A      3.783040  
     539A      3.787918   540A      3.809909   541A      3.814210  
     542A      3.822920   543A      3.832429   544A      3.835706  
     545A      3.840842   546A      3.853905   547A      3.861786  
     548A      3.873001   549A      3.885481   550A      3.891686  
     551A      3.912173   552A      3.914194   553A      3.925412  
     554A      3.938573   555A      3.944520   556A      3.947156  
     557A      3.950795   558A      3.961800   559A      3.966912  
     560A      3.980858   561A      3.989375   562A      4.001972  
     563A      4.010059   564A      4.022802   565A      4.028158  
     566A      4.044340   567A      4.048702   568A      4.055055  
     569A      4.079588   570A      4.083994   571A      4.087980  
     572A      4.094661   573A      4.102669   574A      4.112906  
     575A      4.129772   576A      4.143612   577A      4.155612  
     578A      4.161388   579A      4.167414   580A      4.182211  
     581A      4.193620   582A      4.197815   583A      4.209783  
     584A      4.219379   585A      4.231813   586A      4.243430  
     587A      4.263130   588A      4.266589   589A      4.273755  
     590A      4.288208   591A      4.295457   592A      4.307631  
     593A      4.323004   594A      4.325082   595A      4.329508  
     596A      4.354350   597A      4.368435   598A      4.374498  
     599A      4.383227   600A      4.391667   601A      4.408098  
     602A      4.417101   603A      4.422137   604A      4.434514  
     605A      4.441286   606A      4.457553   607A      4.478927  
     608A      4.488661   609A      4.492156   610A      4.503446  
     611A      4.510110   612A      4.537912   613A      4.556245  
     614A      4.576340   615A      4.582033   616A      4.593137  
     617A      4.626985   618A      4.635840   619A      4.657907  
     620A      4.670365   621A      4.679432   622A      4.691923  
     623A      4.713070   624A      4.715521   625A      4.737161  
     626A      4.740460   627A      4.757708   628A      4.771221  
     629A      4.793311   630A      4.812992   631A      4.845428  
     632A      4.857061   633A      4.862303   634A      4.866714  
     635A      4.877090   636A      4.894954   637A      4.903888  
     638A      4.923139   639A      4.933529   640A      4.934476  
     641A      4.953299   642A      4.967806   643A      4.979300  
     644A      4.987563   645A      5.016038   646A      5.055811  
     647A      5.059591   648A      5.064688   649A      5.071914  
     650A      5.094137   651A      5.109462   652A      5.119538  
     653A      5.143143   654A      5.145783   655A      5.147747  
     656A      5.177356   657A      5.189038   658A      5.196545  
     659A      5.218011   660A      5.235933   661A      5.262290  
     662A      5.269822   663A      5.290158   664A      5.317798  
     665A      5.322294   666A      5.337085   667A      5.355497  
     668A      5.382918   669A      5.423082   670A      5.430237  
     671A      5.470492   672A      5.483144   673A      5.494923  
     674A      5.517239   675A      5.543269   676A      5.560146  
     677A      5.584970   678A      5.600722   679A      5.618633  
     680A      5.638010   681A      5.659653   682A      5.666977  
     683A      5.713119   684A      5.729407   685A      5.740027  
     686A      5.741452   687A      5.772635   688A      5.793297  
     689A      5.797106   690A      5.817808   691A      5.829708  
     692A      5.846314   693A      5.869626   694A      5.906039  
     695A      5.909686   696A      5.912748   697A      5.940638  
     698A      6.015720   699A      6.020390   700A      6.061033  
     701A      6.100160   702A      6.129187   703A      6.164149  
     704A      6.165591   705A      6.194189   706A      6.210148  
     707A      6.215104   708A      6.248124   709A      6.331695  
     710A      6.392564   711A      6.481651   712A      6.518365  
     713A      6.551537   714A      6.620083   715A      6.673345  
     716A      6.711597   717A      6.736421   718A      6.773558  
     719A      6.796172   720A      6.815336   721A      6.837696  
     722A      6.859431   723A      6.997765   724A      7.009783  
     725A      7.044305   726A      7.071801   727A      7.139593  
     728A      7.360101   729A      9.319521   730A     15.928253  
     731A     16.186853   732A     16.408981   733A     16.510214  
     734A     17.226117   735A     17.834959   736A     18.546278  
     737A     19.390193   738A     19.793121   739A     20.232694  
     740A     21.290079  

    Final Occupation by Irrep:
              A 
    DOCC [    46 ]

  @DF-RHF Final Energy:  -852.05818370789166

   => Energetics <=

    Nuclear Repulsion Energy =            720.4741786474638729
    One-Electron Energy =               -2595.9753296647754723
    Two-Electron Energy =                1023.4429673094200552
    Total Energy =                       -852.0581837078916578

Computation Completed

*** tstop() called on c431-073.stampede2.tacc.utexas.edu at Thu Apr  1 10:47:20 2021
Module time:
	user time   =     613.66 seconds =      10.23 minutes
	system time =      14.79 seconds =       0.25 minutes
	total time  =         99 seconds =       1.65 minutes
Total time:
	user time   =     613.66 seconds =      10.23 minutes
	system time =      14.79 seconds =       0.25 minutes
	total time  =         99 seconds =       1.65 minutes
   => Loading Basis Set <=

    Name: (AUG-CC-PVTZ AUX)
    Role: RIFIT
    Keyword: DF_BASIS_MP2
    atoms 1     entry S          line   666 file /home1/07844/xy3866/miniconda3/envs/p4env/share/psi4/basis/aug-cc-pvtz-ri.gbs 
    atoms 2-3   entry N          line   206 file /home1/07844/xy3866/miniconda3/envs/p4env/share/psi4/basis/aug-cc-pvtz-ri.gbs 
    atoms 4-12  entry C          line   148 file /home1/07844/xy3866/miniconda3/envs/p4env/share/psi4/basis/aug-cc-pvtz-ri.gbs 
    atoms 13-20 entry H          line    30 file /home1/07844/xy3866/miniconda3/envs/p4env/share/psi4/basis/aug-cc-pvtz-ri.gbs 


*** tstart() called on c431-073.stampede2.tacc.utexas.edu
*** at Thu Apr  1 10:47:21 2021


  //>>>>>>>>>>>>>>>>>>>>>>>>>>>>>>>>>>>//
  //               DFMP2               //
  //<<<<<<<<<<<<<<<<<<<<<<<<<<<<<<<<<<<//

	 --------------------------------------------------------
	                          DF-MP2                         
	      2nd-Order Density-Fitted Moller-Plesset Theory     
	              RMP2 Wavefunction,   8 Threads             
	                                                         
	        Rob Parrish, Justin Turney, Andy Simmonett,      
	           Ed Hohenstein, and C. David Sherrill          
	 --------------------------------------------------------

   => Auxiliary Basis Set <=

  Basis Set: (AUG-CC-PVTZ AUX)
    Blend: AUG-CC-PVTZ-RI
    Number of shells: 457
    Number of basis functions: 1681
    Number of Cartesian functions: 2127
    Spherical Harmonics?: true
    Max angular momentum: 4

	 --------------------------------------------------------
	                 NBF =   740, NAUX =  1681
	 --------------------------------------------------------
	   CLASS    FOCC     OCC    AOCC    AVIR     VIR    FVIR
	   PAIRS       0      46      46     694     694       0
	 --------------------------------------------------------

  DFHelper Memory: AOs need 6.267 GiB; user supplied 22.352 GiB. Using in-core AOs.


         ------------------------------------------------------------
                                     CPHF                           
                                  Rob Parrish                       
         ------------------------------------------------------------

  ==> Geometry <==

    Molecular point group: c1
    Full point group: C1

    Geometry (in Angstrom), charge = 0, multiplicity = 1:

       Center              X                  Y                   Z               Mass       
    ------------   -----------------  -----------------  -----------------  -----------------
         S            2.253196520229    -0.992102777700     0.005670762651    31.972071174400
         N           -0.663383479771    -1.435697777700     0.002843762651    14.003074004430
         N            1.486987520229     1.481596222300    -0.005091237349    14.003074004430
         C           -2.718621479771     0.509211222300    -0.012908237349    12.000000000000
         C           -0.389870479771    -0.114904777700    -0.001213237349    12.000000000000
         C           -1.422626679771     0.868097522300    -0.007849337349    12.000000000000
         C            1.029033520229     0.239106222300    -0.001016237349    12.000000000000
         C           -3.006870479771    -0.861836777700    -0.007321237349    12.000000000000
         C           -3.815727479771     1.538473222300     0.014646762651    12.000000000000
         C           -1.960684479771    -1.783241777700    -0.000686237349    12.000000000000
         C            3.447373520229     0.236432222300     0.002824762651    12.000000000000
         C            2.854639520229     1.479832222300    -0.003055237349    12.000000000000
         H           -1.069239479771     1.924878222300    -0.014777237349     1.007825032230
         H           -4.037133479771    -1.211378777700    -0.014761237349     1.007825032230
         H           -4.156612479771     1.714296222300     1.040508762651     1.007825032230
         H           -3.468162479771     2.492118222300    -0.390933237349     1.007825032230
         H           -4.678707479771     1.208324222300    -0.570479237349     1.007825032230
         H           -2.163606479771    -2.852984777700    -0.000121237349     1.007825032230
         H            4.503517520229    -0.000701777700     0.005253762651     1.007825032230
         H            3.389252520229     2.423689222300    -0.005967237349     1.007825032230

  Nuclear repulsion =  720.474178647463873
  Reference energy  = -852.058183707891658

  ==> Basis Set <==

  Basis Set: AUG-CC-PVTZ
    Blend: AUG-CC-PVTZ
    Number of shells: 242
    Number of basis functions: 740
    Number of Cartesian functions: 864
    Spherical Harmonics?: true
    Max angular momentum: 3

  ==> CGRSolver (by Rob Parrish) <==

   Number of roots    =         1
   Preconditioning    =    JACOBI
   Convergence cutoff =     1E-06
   Maximum iterations =       100

  ==> CPHFRHamiltonian (by Rob Parrish) <== 

  ==> MemDFJK: Density-Fitted J/K Matrices <==

    J tasked:                   Yes
    K tasked:                   Yes
    wK tasked:                   No
    OpenMP threads:               8
    Memory [MiB]:             22888
    Algorithm:                 Core
    Schwarz Cutoff:           1E-12
    Mask sparsity (%):       9.7677
    Fitting Condition:        1E-10

   => Auxiliary Basis Set <=

  Basis Set: (AUG-CC-PVTZ AUX)
    Blend: AUG-CC-PVTZ-JKFIT
    Number of shells: 484
    Number of basis functions: 1658
    Number of Cartesian functions: 2061
    Spherical Harmonics?: true
    Max angular momentum: 4

  ==> CPHF Iterations <==

  => Iterations <=

             Iter  Converged  Remaining    Residual
  CGR           1          0          1   1.121E-01
  CGR           2          0          1   4.391E-02
  CGR           3          0          1   2.489E-02
  CGR           4          0          1   8.540E-03
  CGR           5          0          1   2.891E-03
  CGR           6          0          1   1.133E-03
  CGR           7          0          1   4.521E-04
  CGR           8          0          1   2.012E-04
  CGR           9          0          1   9.697E-05
  CGR          10          0          1   4.373E-05
  CGR          11          0          1   2.016E-05
  CGR          12          0          1   8.195E-06
  CGR          13          0          1   3.638E-06
  CGR          14          0          1   1.296E-06
  CGR          15          1          0   6.127E-07

    CGRSolver converged.

	-----------------------------------------------------------
	 ==================> DF-MP2 Energies <==================== 
	-----------------------------------------------------------
	 Reference Energy          =    -852.0581837078916578 [Eh]
	 Singles Energy            =      -0.0000000000000000 [Eh]
	 Same-Spin Energy          =      -0.5692535516789948 [Eh]
	 Opposite-Spin Energy      =      -1.7094561948953289 [Eh]
	 Correlation Energy        =      -2.2787097465743238 [Eh]
	 Total Energy              =    -854.3368934544660078 [Eh]
	-----------------------------------------------------------
	 ================> DF-SCS-MP2 Energies <================== 
	-----------------------------------------------------------
	 SCS Same-Spin Scale       =       0.3333333333333333 [-]
	 SCS Opposite-Spin Scale   =       1.2000000000000000 [-]
	 SCS Same-Spin Energy      =      -0.1897511838929983 [Eh]
	 SCS Opposite-Spin Energy  =      -2.0513474338743944 [Eh]
	 SCS Correlation Energy    =      -2.2410986177673928 [Eh]
	 SCS Total Energy          =    -854.2992823256590782 [Eh]
	-----------------------------------------------------------



Properties will be evaluated at   0.000000,  -0.000000,   0.000000 [a0]

Properties computed using the MP2 density matrix

  Nuclear Dipole Moment: [e a0]
     X:   -10.8932      Y:     5.3156      Z:     0.0458

  Electronic Dipole Moment: [e a0]
     X:    10.4356      Y:    -5.1646      Z:    -0.0298

  Dipole Moment: [e a0]
     X:    -0.4576      Y:     0.1511      Z:     0.0160     Total:     0.4822

  Dipole Moment: [D]
     X:    -1.1632      Y:     0.3839      Z:     0.0407     Total:     1.2256


*** tstop() called on c431-073.stampede2.tacc.utexas.edu at Thu Apr  1 10:54:12 2021
Module time:
	user time   =    2467.95 seconds =      41.13 minutes
	system time =      35.32 seconds =       0.59 minutes
	total time  =        411 seconds =       6.85 minutes
Total time:
	user time   =    3082.61 seconds =      51.38 minutes
	system time =      50.13 seconds =       0.84 minutes
	total time  =        511 seconds =       8.52 minutes

    Psi4 stopped on: Thursday, 01 April 2021 10:54AM
    Psi4 wall time for execution: 0:08:32.31

*** Psi4 exiting successfully. Buy a developer a beer!
