
    -----------------------------------------------------------------------
          Psi4: An Open-Source Ab Initio Electronic Structure Package
                               Psi4 1.4a3.dev225 

                         Git: Rev {master} 7105e37 


    D. G. A. Smith, L. A. Burns, A. C. Simmonett, R. M. Parrish,
    M. C. Schieber, R. Galvelis, P. Kraus, H. Kruse, R. Di Remigio,
    A. Alenaizan, A. M. James, S. Lehtola, J. P. Misiewicz, M. Scheurer,
    R. A. Shaw, J. B. Schriber, Y. Xie, Z. L. Glick, D. A. Sirianni,
    J. S. O'Brien, J. M. Waldrop, A. Kumar, E. G. Hohenstein,
    B. P. Pritchard, B. R. Brooks, H. F. Schaefer III, A. Yu. Sokolov,
    K. Patkowski, A. E. DePrince III, U. Bozkaya, R. A. King,
    F. A. Evangelista, J. M. Turney, T. D. Crawford, C. D. Sherrill,
    J. Chem. Phys. 152(18) 184108 (2020). https://doi.org/10.1063/5.0006002

                            Additional Code Authors
    E. T. Seidl, C. L. Janssen, E. F. Valeev, M. L. Leininger,
    J. F. Gonthier, R. M. Richard, H. R. McAlexander, M. Saitow, X. Wang,
    P. Verma, and M. H. Lechner

             Previous Authors, Complete List of Code Contributors,
                       and Citations for Specific Modules
    https://github.com/psi4/psi4/blob/master/codemeta.json
    https://github.com/psi4/psi4/graphs/contributors
    http://psicode.org/psi4manual/master/introduction.html#citing-psifour

    -----------------------------------------------------------------------


    Psi4 started on: Sunday, 28 February 2021 12:17AM

    Process ID: 210998
    Host:       c402-053.stampede2.tacc.utexas.edu
    PSIDATADIR: /home1/07844/xy3866/miniconda3/envs/p4env/share/psi4
    Memory:     500.0 MiB
    Threads:    32
    
  ==> Input File <==

--------------------------------------------------------------------------
#psi4
#
memory 32 gb

molecule  {
0 1
  S        2.3127110    -1.0235480     0.0053950
  N       -0.6038690    -1.4671430     0.0025680
  N        1.5465020     1.4501510    -0.0053670
  C       -2.6591070     0.4777660    -0.0131840
  C       -0.3303560    -0.1463500    -0.0014890
  C       -1.3149260     0.8499960    -0.0079370
  C        1.0885480     0.2076610    -0.0012920
  C       -2.9473560    -0.8932820    -0.0075970
  C       -3.7562130     1.5070280     0.0143710
  C       -1.9011700    -1.8146870    -0.0009620
  C        3.5068880     0.2049870     0.0025490
  C        2.9141540     1.4483870    -0.0033310
  H       -1.0097250     1.8934330    -0.0150530
  H       -3.9776190    -1.2428240    -0.0150370
  H       -4.0970980     1.6828510     1.0402330
  H       -3.4086480     2.4606730    -0.3912090
  H       -4.6191930     1.1768790    -0.5707550
  H       -2.1040920    -2.8844300    -0.0003970
  H        4.5630320    -0.0321470     0.0049780
  H        3.4980514     2.4792554    -0.0065114
units angstrom
no_reorient  #important for SAPT in psi4, default
symmetry c1  #important for SAPT in psi4, default
}

set PROPERTIES_ORIGIN ["COM"]
properties('MP2/aug-cc-pvtz', properties = ['dipole'])
--------------------------------------------------------------------------

  Memory set to  29.802 GiB by Python driver.
    SCF Algorithm Type (re)set to DF.

*** tstart() called on c402-053.stampede2.tacc.utexas.edu
*** at Sun Feb 28 00:18:01 2021

   => Loading Basis Set <=

    Name: AUG-CC-PVTZ
    Role: ORBITAL
    Keyword: BASIS
    atoms 1     entry S          line   906 file /home1/07844/xy3866/miniconda3/envs/p4env/share/psi4/basis/aug-cc-pvtz.gbs 
    atoms 2-3   entry N          line   285 file /home1/07844/xy3866/miniconda3/envs/p4env/share/psi4/basis/aug-cc-pvtz.gbs 
    atoms 4-12  entry C          line   239 file /home1/07844/xy3866/miniconda3/envs/p4env/share/psi4/basis/aug-cc-pvtz.gbs 
    atoms 13-20 entry H          line    40 file /home1/07844/xy3866/miniconda3/envs/p4env/share/psi4/basis/aug-cc-pvtz.gbs 


         ---------------------------------------------------------
                                   SCF
               by Justin Turney, Rob Parrish, Andy Simmonett
                          and Daniel G. A. Smith
                              RHF Reference
                       32 Threads,  30517 MiB Core
         ---------------------------------------------------------

  ==> Geometry <==

    Molecular point group: c1
    Full point group: C1

    Geometry (in Angstrom), charge = 0, multiplicity = 1:

       Center              X                  Y                   Z               Mass       
    ------------   -----------------  -----------------  -----------------  -----------------
         S            2.249629708543    -0.993510500453     0.005659477202    31.972071174400
         N           -0.666950291457    -1.437105500453     0.002832477202    14.003074004430
         N            1.483420708543     1.480188499547    -0.005102522798    14.003074004430
         C           -2.722188291457     0.507803499547    -0.012919522798    12.000000000000
         C           -0.393437291457    -0.116312500453    -0.001224522798    12.000000000000
         C           -1.378007291457     0.880033499547    -0.007672522798    12.000000000000
         C            1.025466708543     0.237698499547    -0.001027522798    12.000000000000
         C           -3.010437291457    -0.863244500453    -0.007332522798    12.000000000000
         C           -3.819294291457     1.537065499547     0.014635477202    12.000000000000
         C           -1.964251291457    -1.784649500453    -0.000697522798    12.000000000000
         C            3.443806708543     0.235024499547     0.002813477202    12.000000000000
         C            2.851072708543     1.478424499547    -0.003066522798    12.000000000000
         H           -1.072806291457     1.923470499547    -0.014788522798     1.007825032230
         H           -4.040700291457    -1.212786500453    -0.014772522798     1.007825032230
         H           -4.160179291457     1.712888499547     1.040497477202     1.007825032230
         H           -3.471729291457     2.490710499547    -0.390944522798     1.007825032230
         H           -4.682274291457     1.206916499547    -0.570490522798     1.007825032230
         H           -2.167173291457    -2.854392500453    -0.000132522798     1.007825032230
         H            4.499950708543    -0.002109500453     0.005242477202     1.007825032230
         H            3.434970108543     2.509292899547    -0.006246922798     1.007825032230

  Running in c1 symmetry.

  Rotational constants: A =      0.07059  B =      0.01681  C =      0.01361 [cm^-1]
  Rotational constants: A =   2116.38320  B =    503.90192  C =    408.03673 [MHz]
  Nuclear repulsion =  719.837257830832527

  Charge       = 0
  Multiplicity = 1
  Electrons    = 92
  Nalpha       = 46
  Nbeta        = 46

  ==> Algorithm <==

  SCF Algorithm Type is DF.
  DIIS enabled.
  MOM disabled.
  Fractional occupation disabled.
  Guess Type is SAD.
  Energy threshold   = 1.00e-10
  Density threshold  = 1.00e-10
  Integral threshold = 1.00e-12

  ==> Primary Basis <==

  Basis Set: AUG-CC-PVTZ
    Blend: AUG-CC-PVTZ
    Number of shells: 242
    Number of basis functions: 740
    Number of Cartesian functions: 864
    Spherical Harmonics?: true
    Max angular momentum: 3

   => Loading Basis Set <=

    Name: (AUG-CC-PVTZ AUX)
    Role: JKFIT
    Keyword: DF_BASIS_SCF
    atoms 1     entry S          line   730 file /home1/07844/xy3866/miniconda3/envs/p4env/share/psi4/basis/aug-cc-pvtz-jkfit.gbs 
    atoms 2-3   entry N          line   224 file /home1/07844/xy3866/miniconda3/envs/p4env/share/psi4/basis/aug-cc-pvtz-jkfit.gbs 
    atoms 4-12  entry C          line   162 file /home1/07844/xy3866/miniconda3/envs/p4env/share/psi4/basis/aug-cc-pvtz-jkfit.gbs 
    atoms 13-20 entry H          line    70 file /home1/07844/xy3866/miniconda3/envs/p4env/share/psi4/basis/aug-cc-pvtz-jkfit.gbs 

  ==> Integral Setup <==

  DFHelper Memory: AOs need 6.034 GiB; user supplied 22.352 GiB. Using in-core AOs.

  ==> MemDFJK: Density-Fitted J/K Matrices <==

    J tasked:                   Yes
    K tasked:                   Yes
    wK tasked:                   No
    OpenMP threads:              32
    Memory [MiB]:             22888
    Algorithm:                 Core
    Schwarz Cutoff:           1E-12
    Mask sparsity (%):      14.6545
    Fitting Condition:        1E-10

   => Auxiliary Basis Set <=

  Basis Set: (AUG-CC-PVTZ AUX)
    Blend: AUG-CC-PVTZ-JKFIT
    Number of shells: 484
    Number of basis functions: 1658
    Number of Cartesian functions: 2061
    Spherical Harmonics?: true
    Max angular momentum: 4

  Minimum eigenvalue in the overlap matrix is 1.0151855123E-06.
  Reciprocal condition number of the overlap matrix is 5.5437024240E-08.
    Using symmetric orthogonalization.

  ==> Pre-Iterations <==

  SCF Guess: Superposition of Atomic Densities via on-the-fly atomic UHF (no occupation information).

   -------------------------
    Irrep   Nso     Nmo    
   -------------------------
     A        740     740 
   -------------------------
    Total     740     740
   -------------------------

  ==> Iterations <==

                           Total Energy        Delta E     RMS |[F,P]|

   @DF-RHF iter SAD:  -851.63529076224563   -8.51635e+02   0.00000e+00 
   @DF-RHF iter   1:  -851.72961116408248   -9.43204e-02   9.67370e-04 DIIS
   @DF-RHF iter   2:  -851.96731844005171   -2.37707e-01   5.46462e-04 DIIS
   @DF-RHF iter   3:  -852.04519112904188   -7.78727e-02   1.39048e-04 DIIS
   @DF-RHF iter   4:  -852.05224522024139   -7.05409e-03   6.03654e-05 DIIS
   @DF-RHF iter   5:  -852.05369225038328   -1.44703e-03   1.55922e-05 DIIS
   @DF-RHF iter   6:  -852.05389086115360   -1.98611e-04   7.46882e-06 DIIS
   @DF-RHF iter   7:  -852.05396854580135   -7.76846e-05   3.72461e-06 DIIS
   @DF-RHF iter   8:  -852.05398556247496   -1.70167e-05   1.39546e-06 DIIS
   @DF-RHF iter   9:  -852.05398798965086   -2.42718e-06   5.12774e-07 DIIS
   @DF-RHF iter  10:  -852.05398826951978   -2.79869e-07   2.31996e-07 DIIS
   @DF-RHF iter  11:  -852.05398832690696   -5.73872e-08   1.34666e-07 DIIS
   @DF-RHF iter  12:  -852.05398834466735   -1.77604e-08   6.65998e-08 DIIS
   @DF-RHF iter  13:  -852.05398835116864   -6.50130e-09   2.64026e-08 DIIS
   @DF-RHF iter  14:  -852.05398835199333   -8.24684e-10   1.15174e-08 DIIS
   @DF-RHF iter  15:  -852.05398835213532   -1.41995e-10   4.43266e-09 DIIS
   @DF-RHF iter  16:  -852.05398835215146   -1.61435e-11   2.12280e-09 DIIS
   @DF-RHF iter  17:  -852.05398835215340   -1.93268e-12   8.51215e-10 DIIS
   @DF-RHF iter  18:  -852.05398835215510   -1.70530e-12   3.10726e-10 DIIS
   @DF-RHF iter  19:  -852.05398835215510    0.00000e+00   1.40986e-10 DIIS
   @DF-RHF iter  20:  -852.05398835215522   -1.13687e-13   7.18414e-11 DIIS
  Energy and wave function converged.


  ==> Post-Iterations <==

    Orbital Energies [Eh]
    ---------------------

    Doubly Occupied:                                                      

       1A    -91.994349     2A    -15.573453     3A    -15.572210  
       4A    -11.312541     5A    -11.294334     6A    -11.282156  
       7A    -11.279193     8A    -11.271842     9A    -11.264055  
      10A    -11.243673    11A    -11.242259    12A    -11.239945  
      13A     -8.994320    14A     -6.675083    15A     -6.674531  
      16A     -6.673865    17A     -1.285317    18A     -1.256947  
      19A     -1.114124    20A     -1.065438    21A     -1.060503  
      22A     -0.982169    23A     -0.972266    24A     -0.870806  
      25A     -0.844182    26A     -0.779474    27A     -0.747409  
      28A     -0.696371    29A     -0.677737    30A     -0.668789  
      31A     -0.629523    32A     -0.596085    33A     -0.582185  
      34A     -0.573148    35A     -0.570265    36A     -0.561559  
      37A     -0.547305    38A     -0.526816    39A     -0.515360  
      40A     -0.495952    41A     -0.441222    42A     -0.421666  
      43A     -0.394019    44A     -0.381980    45A     -0.366677  
      46A     -0.305314  

    Virtual:                                                              

      47A      0.025311    48A      0.030512    49A      0.032803  
      50A      0.041455    51A      0.042741    52A      0.045166  
      53A      0.054075    54A      0.057560    55A      0.066563  
      56A      0.079056    57A      0.080446    58A      0.087314  
      59A      0.094017    60A      0.094709    61A      0.100290  
      62A      0.107311    63A      0.109467    64A      0.110214  
      65A      0.110437    66A      0.115859    67A      0.120967  
      68A      0.126091    69A      0.126558    70A      0.130399  
      71A      0.133473    72A      0.135882    73A      0.137379  
      74A      0.139789    75A      0.142802    76A      0.149991  
      77A      0.151712    78A      0.154243    79A      0.158206  
      80A      0.165892    81A      0.176853    82A      0.181191  
      83A      0.185510    84A      0.188568    85A      0.189032  
      86A      0.198005    87A      0.201916    88A      0.209240  
      89A      0.209684    90A      0.212151    91A      0.219433  
      92A      0.221182    93A      0.225324    94A      0.236397  
      95A      0.243595    96A      0.246990    97A      0.249609  
      98A      0.253031    99A      0.259235   100A      0.264253  
     101A      0.268009   102A      0.273649   103A      0.275477  
     104A      0.278386   105A      0.281804   106A      0.295901  
     107A      0.298941   108A      0.304664   109A      0.307162  
     110A      0.310477   111A      0.316179   112A      0.321066  
     113A      0.326960   114A      0.333064   115A      0.335295  
     116A      0.337717   117A      0.342610   118A      0.345267  
     119A      0.351036   120A      0.354942   121A      0.358637  
     122A      0.361149   123A      0.364777   124A      0.369884  
     125A      0.371677   126A      0.378685   127A      0.387950  
     128A      0.391691   129A      0.394865   130A      0.400590  
     131A      0.407804   132A      0.411493   133A      0.414239  
     134A      0.416059   135A      0.422752   136A      0.429475  
     137A      0.432102   138A      0.440696   139A      0.444348  
     140A      0.447605   141A      0.449325   142A      0.450908  
     143A      0.456596   144A      0.461629   145A      0.469460  
     146A      0.470955   147A      0.471531   148A      0.473420  
     149A      0.478643   150A      0.481714   151A      0.484380  
     152A      0.487117   153A      0.492091   154A      0.493720  
     155A      0.496941   156A      0.502986   157A      0.509652  
     158A      0.513673   159A      0.519304   160A      0.526264  
     161A      0.527332   162A      0.530562   163A      0.533688  
     164A      0.536638   165A      0.539430   166A      0.541886  
     167A      0.547674   168A      0.547951   169A      0.550766  
     170A      0.555964   171A      0.560673   172A      0.563493  
     173A      0.572382   174A      0.575252   175A      0.580077  
     176A      0.584226   177A      0.590092   178A      0.602030  
     179A      0.606073   180A      0.609734   181A      0.613733  
     182A      0.620861   183A      0.627762   184A      0.637867  
     185A      0.641451   186A      0.656170   187A      0.665495  
     188A      0.676914   189A      0.678298   190A      0.681779  
     191A      0.689127   192A      0.695340   193A      0.701132  
     194A      0.712615   195A      0.715306   196A      0.720776  
     197A      0.729268   198A      0.731828   199A      0.738327  
     200A      0.744979   201A      0.746916   202A      0.751678  
     203A      0.761915   204A      0.764200   205A      0.773463  
     206A      0.780199   207A      0.790421   208A      0.799393  
     209A      0.801659   210A      0.804056   211A      0.814491  
     212A      0.821659   213A      0.825115   214A      0.829687  
     215A      0.836421   216A      0.836875   217A      0.849203  
     218A      0.852678   219A      0.857122   220A      0.860655  
     221A      0.867286   222A      0.871470   223A      0.877784  
     224A      0.879081   225A      0.894227   226A      0.896820  
     227A      0.901729   228A      0.903134   229A      0.910937  
     230A      0.916379   231A      0.921091   232A      0.927387  
     233A      0.933125   234A      0.937947   235A      0.941094  
     236A      0.949109   237A      0.950340   238A      0.957745  
     239A      0.958750   240A      0.961552   241A      0.970004  
     242A      0.973314   243A      0.976448   244A      0.983218  
     245A      0.987668   246A      0.990167   247A      0.997829  
     248A      1.004237   249A      1.006082   250A      1.010827  
     251A      1.018279   252A      1.019791   253A      1.025690  
     254A      1.033207   255A      1.036016   256A      1.037467  
     257A      1.041262   258A      1.048825   259A      1.053763  
     260A      1.061052   261A      1.071743   262A      1.073347  
     263A      1.077936   264A      1.082872   265A      1.085915  
     266A      1.088621   267A      1.090415   268A      1.098057  
     269A      1.104978   270A      1.115107   271A      1.117269  
     272A      1.120356   273A      1.126251   274A      1.128293  
     275A      1.131561   276A      1.141697   277A      1.151982  
     278A      1.153529   279A      1.160591   280A      1.161419  
     281A      1.167168   282A      1.174406   283A      1.177855  
     284A      1.186311   285A      1.190510   286A      1.196850  
     287A      1.200675   288A      1.201052   289A      1.209085  
     290A      1.210675   291A      1.212681   292A      1.216485  
     293A      1.222020   294A      1.225609   295A      1.230492  
     296A      1.235101   297A      1.245582   298A      1.249083  
     299A      1.255511   300A      1.259233   301A      1.266874  
     302A      1.271779   303A      1.281228   304A      1.289314  
     305A      1.300881   306A      1.305339   307A      1.320029  
     308A      1.321750   309A      1.336375   310A      1.347076  
     311A      1.356804   312A      1.360633   313A      1.363168  
     314A      1.372186   315A      1.380885   316A      1.389173  
     317A      1.399931   318A      1.408274   319A      1.411097  
     320A      1.424772   321A      1.434767   322A      1.443781  
     323A      1.449632   324A      1.457517   325A      1.461614  
     326A      1.468535   327A      1.478179   328A      1.492148  
     329A      1.504119   330A      1.506762   331A      1.507370  
     332A      1.508867   333A      1.530211   334A      1.539693  
     335A      1.552462   336A      1.558703   337A      1.565644  
     338A      1.571578   339A      1.576287   340A      1.576547  
     341A      1.584989   342A      1.591617   343A      1.601567  
     344A      1.606648   345A      1.619767   346A      1.627330  
     347A      1.634106   348A      1.648660   349A      1.653000  
     350A      1.663515   351A      1.667875   352A      1.687461  
     353A      1.690638   354A      1.701143   355A      1.703054  
     356A      1.708162   357A      1.712240   358A      1.726494  
     359A      1.732321   360A      1.733394   361A      1.745238  
     362A      1.756575   363A      1.764136   364A      1.769806  
     365A      1.773079   366A      1.773603   367A      1.787692  
     368A      1.808182   369A      1.822039   370A      1.824467  
     371A      1.833313   372A      1.836016   373A      1.837566  
     374A      1.845439   375A      1.868053   376A      1.869404  
     377A      1.875436   378A      1.882133   379A      1.891067  
     380A      1.898663   381A      1.905533   382A      1.913241  
     383A      1.926796   384A      1.932435   385A      1.940556  
     386A      1.947456   387A      1.950535   388A      1.958642  
     389A      1.963995   390A      1.978070   391A      1.982155  
     392A      1.986495   393A      1.989929   394A      2.009836  
     395A      2.024297   396A      2.031365   397A      2.052313  
     398A      2.061341   399A      2.067982   400A      2.073784  
     401A      2.083578   402A      2.085904   403A      2.094888  
     404A      2.097219   405A      2.099832   406A      2.121783  
     407A      2.128273   408A      2.139623   409A      2.143949  
     410A      2.157995   411A      2.159037   412A      2.173769  
     413A      2.183716   414A      2.191197   415A      2.193070  
     416A      2.203797   417A      2.205223   418A      2.223203  
     419A      2.230565   420A      2.235172   421A      2.244661  
     422A      2.248816   423A      2.256255   424A      2.264283  
     425A      2.271911   426A      2.277639   427A      2.282758  
     428A      2.300573   429A      2.315633   430A      2.323509  
     431A      2.338703   432A      2.351673   433A      2.354928  
     434A      2.362459   435A      2.375086   436A      2.394292  
     437A      2.398514   438A      2.412297   439A      2.414924  
     440A      2.421855   441A      2.427493   442A      2.443461  
     443A      2.453059   444A      2.456874   445A      2.472448  
     446A      2.486088   447A      2.486607   448A      2.507640  
     449A      2.519935   450A      2.533404   451A      2.536334  
     452A      2.548467   453A      2.564348   454A      2.597790  
     455A      2.602592   456A      2.614881   457A      2.621231  
     458A      2.631014   459A      2.662230   460A      2.684871  
     461A      2.690010   462A      2.702029   463A      2.708935  
     464A      2.729523   465A      2.754794   466A      2.766417  
     467A      2.770221   468A      2.799693   469A      2.827423  
     470A      2.842985   471A      2.878265   472A      2.883449  
     473A      2.886536   474A      2.914030   475A      2.937633  
     476A      2.986954   477A      3.006019   478A      3.020574  
     479A      3.045820   480A      3.064085   481A      3.094746  
     482A      3.099015   483A      3.109502   484A      3.145280  
     485A      3.176384   486A      3.189273   487A      3.195889  
     488A      3.213981   489A      3.227202   490A      3.239170  
     491A      3.261374   492A      3.264743   493A      3.281617  
     494A      3.305878   495A      3.316129   496A      3.330677  
     497A      3.357845   498A      3.361201   499A      3.367184  
     500A      3.392168   501A      3.409214   502A      3.410140  
     503A      3.417580   504A      3.432669   505A      3.444744  
     506A      3.463140   507A      3.466589   508A      3.473311  
     509A      3.490926   510A      3.494320   511A      3.503317  
     512A      3.509678   513A      3.517077   514A      3.521436  
     515A      3.543687   516A      3.552664   517A      3.570713  
     518A      3.580718   519A      3.597169   520A      3.600986  
     521A      3.619679   522A      3.624351   523A      3.637252  
     524A      3.651202   525A      3.656048   526A      3.660935  
     527A      3.675237   528A      3.682064   529A      3.685848  
     530A      3.708081   531A      3.729819   532A      3.736586  
     533A      3.743690   534A      3.760302   535A      3.763322  
     536A      3.769768   537A      3.777186   538A      3.780582  
     539A      3.783869   540A      3.811592   541A      3.813581  
     542A      3.818628   543A      3.830159   544A      3.834919  
     545A      3.841547   546A      3.853721   547A      3.862209  
     548A      3.876005   549A      3.886559   550A      3.892160  
     551A      3.904276   552A      3.914779   553A      3.923525  
     554A      3.930045   555A      3.934969   556A      3.945632  
     557A      3.951750   558A      3.957772   559A      3.963866  
     560A      3.979565   561A      3.987429   562A      4.000240  
     563A      4.005846   564A      4.017341   565A      4.023775  
     566A      4.028833   567A      4.047727   568A      4.048709  
     569A      4.072458   570A      4.076248   571A      4.082592  
     572A      4.086971   573A      4.092588   574A      4.106823  
     575A      4.126316   576A      4.138337   577A      4.142574  
     578A      4.157991   579A      4.163739   580A      4.181897  
     581A      4.182949   582A      4.197328   583A      4.204781  
     584A      4.214509   585A      4.232092   586A      4.238870  
     587A      4.253552   588A      4.258976   589A      4.268473  
     590A      4.280890   591A      4.284113   592A      4.301627  
     593A      4.318372   594A      4.319566   595A      4.324172  
     596A      4.339607   597A      4.348296   598A      4.370393  
     599A      4.384319   600A      4.390946   601A      4.395864  
     602A      4.402546   603A      4.420713   604A      4.431234  
     605A      4.439491   606A      4.452083   607A      4.470854  
     608A      4.475847   609A      4.493423   610A      4.500797  
     611A      4.510380   612A      4.535751   613A      4.549855  
     614A      4.569047   615A      4.582484   616A      4.584687  
     617A      4.613349   618A      4.618338   619A      4.639938  
     620A      4.653219   621A      4.668633   622A      4.678826  
     623A      4.690322   624A      4.709273   625A      4.734758  
     626A      4.742267   627A      4.755576   628A      4.762824  
     629A      4.780551   630A      4.789391   631A      4.824274  
     632A      4.831512   633A      4.841281   634A      4.856405  
     635A      4.866429   636A      4.889627   637A      4.894597  
     638A      4.906334   639A      4.919809   640A      4.929304  
     641A      4.945195   642A      4.963991   643A      4.970071  
     644A      4.983224   645A      4.988676   646A      5.009560  
     647A      5.028005   648A      5.043001   649A      5.045613  
     650A      5.053111   651A      5.093128   652A      5.109126  
     653A      5.112444   654A      5.126297   655A      5.151396  
     656A      5.166601   657A      5.176741   658A      5.187759  
     659A      5.211511   660A      5.218348   661A      5.249643  
     662A      5.253725   663A      5.263204   664A      5.287689  
     665A      5.300145   666A      5.340516   667A      5.357431  
     668A      5.372567   669A      5.395944   670A      5.425055  
     671A      5.461586   672A      5.465246   673A      5.493753  
     674A      5.511890   675A      5.516411   676A      5.535433  
     677A      5.547083   678A      5.583641   679A      5.600727  
     680A      5.623023   681A      5.635336   682A      5.657484  
     683A      5.678756   684A      5.699664   685A      5.711773  
     686A      5.737560   687A      5.768307   688A      5.788475  
     689A      5.797223   690A      5.815232   691A      5.824864  
     692A      5.835659   693A      5.876064   694A      5.897232  
     695A      5.907633   696A      5.912558   697A      5.931849  
     698A      6.004920   699A      6.019664   700A      6.045836  
     701A      6.087376   702A      6.113869   703A      6.144350  
     704A      6.166970   705A      6.167903   706A      6.181982  
     707A      6.207843   708A      6.243388   709A      6.330262  
     710A      6.375970   711A      6.472377   712A      6.495948  
     713A      6.545371   714A      6.583389   715A      6.636277  
     716A      6.680241   717A      6.722330   718A      6.767524  
     719A      6.784094   720A      6.804992   721A      6.834818  
     722A      6.874707   723A      6.958704   724A      6.992612  
     725A      7.033793   726A      7.069204   727A      7.137616  
     728A      7.372104   729A      9.335542   730A     15.762730  
     731A     16.045908   732A     16.306393   733A     16.516724  
     734A     16.841841   735A     17.564931   736A     18.441959  
     737A     19.321111   738A     19.556556   739A     20.211392  
     740A     21.307386  

    Final Occupation by Irrep:
              A 
    DOCC [    46 ]

  @DF-RHF Final Energy:  -852.05398835215522

   => Energetics <=

    Nuclear Repulsion Energy =            719.8372578308325274
    One-Electron Energy =               -2594.7456582853892542
    Two-Electron Energy =                1022.8544121024013975
    Total Energy =                       -852.0539883521552156

Computation Completed

*** tstop() called on c402-053.stampede2.tacc.utexas.edu at Sun Feb 28 00:18:54 2021
Module time:
	user time   =     999.81 seconds =      16.66 minutes
	system time =      65.86 seconds =       1.10 minutes
	total time  =         53 seconds =       0.88 minutes
Total time:
	user time   =     999.81 seconds =      16.66 minutes
	system time =      65.86 seconds =       1.10 minutes
	total time  =         53 seconds =       0.88 minutes
   => Loading Basis Set <=

    Name: (AUG-CC-PVTZ AUX)
    Role: RIFIT
    Keyword: DF_BASIS_MP2
    atoms 1     entry S          line   666 file /home1/07844/xy3866/miniconda3/envs/p4env/share/psi4/basis/aug-cc-pvtz-ri.gbs 
    atoms 2-3   entry N          line   206 file /home1/07844/xy3866/miniconda3/envs/p4env/share/psi4/basis/aug-cc-pvtz-ri.gbs 
    atoms 4-12  entry C          line   148 file /home1/07844/xy3866/miniconda3/envs/p4env/share/psi4/basis/aug-cc-pvtz-ri.gbs 
    atoms 13-20 entry H          line    30 file /home1/07844/xy3866/miniconda3/envs/p4env/share/psi4/basis/aug-cc-pvtz-ri.gbs 


*** tstart() called on c402-053.stampede2.tacc.utexas.edu
*** at Sun Feb 28 00:18:55 2021


  //>>>>>>>>>>>>>>>>>>>>>>>>>>>>>>>>>>>//
  //               DFMP2               //
  //<<<<<<<<<<<<<<<<<<<<<<<<<<<<<<<<<<<//

	 --------------------------------------------------------
	                          DF-MP2                         
	      2nd-Order Density-Fitted Moller-Plesset Theory     
	              RMP2 Wavefunction,  32 Threads             
	                                                         
	        Rob Parrish, Justin Turney, Andy Simmonett,      
	           Ed Hohenstein, and C. David Sherrill          
	 --------------------------------------------------------

   => Auxiliary Basis Set <=

  Basis Set: (AUG-CC-PVTZ AUX)
    Blend: AUG-CC-PVTZ-RI
    Number of shells: 457
    Number of basis functions: 1681
    Number of Cartesian functions: 2127
    Spherical Harmonics?: true
    Max angular momentum: 4

	 --------------------------------------------------------
	                 NBF =   740, NAUX =  1681
	 --------------------------------------------------------
	   CLASS    FOCC     OCC    AOCC    AVIR     VIR    FVIR
	   PAIRS       0      46      46     694     694       0
	 --------------------------------------------------------

  DFHelper Memory: AOs need 6.363 GiB; user supplied 22.352 GiB. Using in-core AOs.


         ------------------------------------------------------------
                                     CPHF                           
                                  Rob Parrish                       
         ------------------------------------------------------------

  ==> Geometry <==

    Molecular point group: c1
    Full point group: C1

    Geometry (in Angstrom), charge = 0, multiplicity = 1:

       Center              X                  Y                   Z               Mass       
    ------------   -----------------  -----------------  -----------------  -----------------
         S            2.249629708543    -0.993510500453     0.005659477202    31.972071174400
         N           -0.666950291457    -1.437105500453     0.002832477202    14.003074004430
         N            1.483420708543     1.480188499547    -0.005102522798    14.003074004430
         C           -2.722188291457     0.507803499547    -0.012919522798    12.000000000000
         C           -0.393437291457    -0.116312500453    -0.001224522798    12.000000000000
         C           -1.378007291457     0.880033499547    -0.007672522798    12.000000000000
         C            1.025466708543     0.237698499547    -0.001027522798    12.000000000000
         C           -3.010437291457    -0.863244500453    -0.007332522798    12.000000000000
         C           -3.819294291457     1.537065499547     0.014635477202    12.000000000000
         C           -1.964251291457    -1.784649500453    -0.000697522798    12.000000000000
         C            3.443806708543     0.235024499547     0.002813477202    12.000000000000
         C            2.851072708543     1.478424499547    -0.003066522798    12.000000000000
         H           -1.072806291457     1.923470499547    -0.014788522798     1.007825032230
         H           -4.040700291457    -1.212786500453    -0.014772522798     1.007825032230
         H           -4.160179291457     1.712888499547     1.040497477202     1.007825032230
         H           -3.471729291457     2.490710499547    -0.390944522798     1.007825032230
         H           -4.682274291457     1.206916499547    -0.570490522798     1.007825032230
         H           -2.167173291457    -2.854392500453    -0.000132522798     1.007825032230
         H            4.499950708543    -0.002109500453     0.005242477202     1.007825032230
         H            3.434970108543     2.509292899547    -0.006246922798     1.007825032230

  Nuclear repulsion =  719.837257830832414
  Reference energy  = -852.053988352155216

  ==> Basis Set <==

  Basis Set: AUG-CC-PVTZ
    Blend: AUG-CC-PVTZ
    Number of shells: 242
    Number of basis functions: 740
    Number of Cartesian functions: 864
    Spherical Harmonics?: true
    Max angular momentum: 3

  ==> CGRSolver (by Rob Parrish) <==

   Number of roots    =         1
   Preconditioning    =    JACOBI
   Convergence cutoff =     1E-06
   Maximum iterations =       100

  ==> CPHFRHamiltonian (by Rob Parrish) <== 

  ==> MemDFJK: Density-Fitted J/K Matrices <==

    J tasked:                   Yes
    K tasked:                   Yes
    wK tasked:                   No
    OpenMP threads:              32
    Memory [MiB]:             22888
    Algorithm:                 Core
    Schwarz Cutoff:           1E-12
    Mask sparsity (%):       9.7936
    Fitting Condition:        1E-10

   => Auxiliary Basis Set <=

  Basis Set: (AUG-CC-PVTZ AUX)
    Blend: AUG-CC-PVTZ-JKFIT
    Number of shells: 484
    Number of basis functions: 1658
    Number of Cartesian functions: 2061
    Spherical Harmonics?: true
    Max angular momentum: 4

  ==> CPHF Iterations <==

  => Iterations <=

             Iter  Converged  Remaining    Residual
  CGR           1          0          1   1.128E-01
  CGR           2          0          1   4.420E-02
  CGR           3          0          1   2.519E-02
  CGR           4          0          1   8.723E-03
  CGR           5          0          1   2.997E-03
  CGR           6          0          1   1.193E-03
  CGR           7          0          1   5.048E-04
  CGR           8          0          1   2.457E-04
  CGR           9          0          1   1.169E-04
  CGR          10          0          1   4.868E-05
  CGR          11          0          1   2.178E-05
  CGR          12          0          1   8.810E-06
  CGR          13          0          1   3.935E-06
  CGR          14          0          1   1.476E-06
  CGR          15          1          0   7.075E-07

    CGRSolver converged.

	-----------------------------------------------------------
	 ==================> DF-MP2 Energies <==================== 
	-----------------------------------------------------------
	 Reference Energy          =    -852.0539883521552156 [Eh]
	 Singles Energy            =      -0.0000000000000000 [Eh]
	 Same-Spin Energy          =      -0.5694208871942210 [Eh]
	 Opposite-Spin Energy      =      -1.7101524149188849 [Eh]
	 Correlation Energy        =      -2.2795733021131062 [Eh]
	 Total Energy              =    -854.3335616542683510 [Eh]
	-----------------------------------------------------------
	 ================> DF-SCS-MP2 Energies <================== 
	-----------------------------------------------------------
	 SCS Same-Spin Scale       =       0.3333333333333333 [-]
	 SCS Opposite-Spin Scale   =       1.2000000000000000 [-]
	 SCS Same-Spin Energy      =      -0.1898069623980737 [Eh]
	 SCS Opposite-Spin Energy  =      -2.0521828979026617 [Eh]
	 SCS Correlation Energy    =      -2.2419898603007353 [Eh]
	 SCS Total Energy          =    -854.2959782124559069 [Eh]
	-----------------------------------------------------------



Properties will be evaluated at  -0.000000,   0.000000,  -0.000000 [a0]

Properties computed using the MP2 density matrix

  Nuclear Dipole Moment: [e a0]
     X:   -10.8738      Y:     5.3866      Z:     0.0455

  Electronic Dipole Moment: [e a0]
     X:    10.3565      Y:    -5.2380      Z:    -0.0289

  Dipole Moment: [e a0]
     X:    -0.5173      Y:     0.1486      Z:     0.0166     Total:     0.5385

  Dipole Moment: [D]
     X:    -1.3149      Y:     0.3776      Z:     0.0421     Total:     1.3687


*** tstop() called on c402-053.stampede2.tacc.utexas.edu at Sun Feb 28 00:25:06 2021
Module time:
	user time   =    3075.36 seconds =      51.26 minutes
	system time =      89.41 seconds =       1.49 minutes
	total time  =        371 seconds =       6.18 minutes
Total time:
	user time   =    4076.17 seconds =      67.94 minutes
	system time =     155.30 seconds =       2.59 minutes
	total time  =        425 seconds =       7.08 minutes

    Psi4 stopped on: Sunday, 28 February 2021 12:25AM
    Psi4 wall time for execution: 0:07:06.85

*** Psi4 exiting successfully. Buy a developer a beer!
