
    -----------------------------------------------------------------------
          Psi4: An Open-Source Ab Initio Electronic Structure Package
                               Psi4 1.3.2 release

                         Git: Rev {HEAD} ecbda83 


    R. M. Parrish, L. A. Burns, D. G. A. Smith, A. C. Simmonett,
    A. E. DePrince III, E. G. Hohenstein, U. Bozkaya, A. Yu. Sokolov,
    R. Di Remigio, R. M. Richard, J. F. Gonthier, A. M. James,
    H. R. McAlexander, A. Kumar, M. Saitow, X. Wang, B. P. Pritchard,
    P. Verma, H. F. Schaefer III, K. Patkowski, R. A. King, E. F. Valeev,
    F. A. Evangelista, J. M. Turney, T. D. Crawford, and C. D. Sherrill,
    J. Chem. Theory Comput. 13(7) pp 3185--3197 (2017).
    (doi: 10.1021/acs.jctc.7b00174)


                         Additional Contributions by
    P. Kraus, H. Kruse, M. H. Lechner, M. C. Schieber, R. A. Shaw,
    A. Alenaizan, R. Galvelis, Z. L. Glick, S. Lehtola, and J. P. Misiewicz

    -----------------------------------------------------------------------


    Psi4 started on: Thursday, 04 February 2021 09:56PM

    Process ID: 30168
    Host:       node35.bme.utexas.edu
    PSIDATADIR: /home/xy3866/psi4conda/share/psi4
    Memory:     500.0 MiB
    Threads:    8
    
  ==> Input File <==

--------------------------------------------------------------------------
#psi4
#
memory 32 gb

molecule  {
0 1
  C        0.0115380     0.2135990     0.3546250
  C        1.2643294     1.0240215    -0.0520194
  C        0.7065190    -1.0643830    -0.1744580
  C        2.0598330    -0.3481190     0.0263490
  C       -1.3210890     0.6311990    -0.2384860
  C       -2.4410400    -0.3538850     0.0887730
  H       -0.0679110     0.1527640     1.4490850
  H        1.6199900     1.8060400     0.6343450
  H        1.2250320     1.3706910    -1.0467180
  H        0.4892460    -1.2032850    -1.2402580
  H        0.5335860    -2.0108350     0.3468040
  H        2.8518490    -0.5196980    -0.7084510
  H        2.4619040    -0.5379660     1.0262650
  H       -1.5851000     1.6330430     0.1250760
  H       -1.2082630     0.7153210    -1.3275710
  H       -2.5819740    -0.4371880     1.1710350
  H       -2.2056380    -1.3508490    -0.2961240
  H       -3.3922610    -0.0400190    -0.3512830
units angstrom
no_reorient  #important for SAPT in psi4, default
symmetry c1  #important for SAPT in psi4, default
}

set PROPERTIES_ORIGIN ["COM"]
properties('MP2/aug-cc-pvtz', properties = ['dipole'])
--------------------------------------------------------------------------

  Memory set to  29.802 GiB by Python driver.
    SCF Algorithm Type (re)set to DF.

*** tstart() called on node35.bme.utexas.edu
*** at Thu Feb  4 21:56:25 2021

   => Loading Basis Set <=

    Name: AUG-CC-PVTZ
    Role: ORBITAL
    Keyword: BASIS
    atoms 1-6  entry C          line   235 file /home/xy3866/psi4conda/share/psi4/basis/aug-cc-pvtz.gbs 
    atoms 7-18 entry H          line    36 file /home/xy3866/psi4conda/share/psi4/basis/aug-cc-pvtz.gbs 


         ---------------------------------------------------------
                                   SCF
               by Justin Turney, Rob Parrish, Andy Simmonett
                          and Daniel G. A. Smith
                              RHF Reference
                        8 Threads,  30517 MiB Core
         ---------------------------------------------------------

  ==> Geometry <==

    Molecular point group: c1
    Full point group: C1

    Geometry (in Angstrom), charge = 0, multiplicity = 1:

       Center              X                  Y                   Z               Mass       
    ------------   -----------------  -----------------  -----------------  -----------------
         C           -0.006144540978     0.204039365099     0.356552560170    12.000000000000
         C            1.246646859022     1.014461865099    -0.050091839830    12.000000000000
         C            0.688836459022    -1.073942634901    -0.172530439830    12.000000000000
         C            2.042150459022    -0.357678634901     0.028276560170    12.000000000000
         C           -1.338771540978     0.621639365099    -0.236558439830    12.000000000000
         C           -2.458722540978    -0.363444634901     0.090700560170    12.000000000000
         H           -0.085593540978     0.143204365099     1.451012560170     1.007825032230
         H            1.602307459022     1.796480365099     0.636272560170     1.007825032230
         H            1.207349459022     1.361131365099    -1.044790439830     1.007825032230
         H            0.471563459022    -1.212844634901    -1.238330439830     1.007825032230
         H            0.515903459022    -2.020394634901     0.348731560170     1.007825032230
         H            2.834166459022    -0.529257634901    -0.706523439830     1.007825032230
         H            2.444221459022    -0.547525634901     1.028192560170     1.007825032230
         H           -1.602782540978     1.623483365099     0.127003560170     1.007825032230
         H           -1.225945540978     0.705761365099    -1.325643439830     1.007825032230
         H           -2.599656540978    -0.446747634901     1.172962560170     1.007825032230
         H           -2.223320540978    -1.360408634901    -0.294196439830     1.007825032230
         H           -3.409943540978    -0.049578634901    -0.349355439830     1.007825032230

  Running in c1 symmetry.

  Rotational constants: A =      0.26367  B =      0.07404  C =      0.06344 [cm^-1]
  Rotational constants: A =   7904.67961  B =   2219.73818  C =   1901.89067 [MHz]
  Nuclear repulsion =  247.015257610112855

  Charge       = 0
  Multiplicity = 1
  Electrons    = 48
  Nalpha       = 24
  Nbeta        = 24

  ==> Algorithm <==

  SCF Algorithm Type is DF.
  DIIS enabled.
  MOM disabled.
  Fractional occupation disabled.
  Guess Type is SAD.
  Energy threshold   = 1.00e-10
  Density threshold  = 1.00e-10
  Integral threshold = 0.00e+00

  ==> Primary Basis <==

  Basis Set: AUG-CC-PVTZ
    Blend: AUG-CC-PVTZ
    Number of shells: 192
    Number of basis function: 552
    Number of Cartesian functions: 630
    Spherical Harmonics?: true
    Max angular momentum: 3

   => Loading Basis Set <=

    Name: (AUG-CC-PVTZ AUX)
    Role: JKFIT
    Keyword: DF_BASIS_SCF
    atoms 1-6  entry C          line   162 file /home/xy3866/psi4conda/share/psi4/basis/aug-cc-pvtz-jkfit.gbs 
    atoms 7-18 entry H          line    70 file /home/xy3866/psi4conda/share/psi4/basis/aug-cc-pvtz-jkfit.gbs 

  ==> Pre-Iterations <==

   -------------------------------------------------------
    Irrep   Nso     Nmo     Nalpha   Nbeta   Ndocc  Nsocc
   -------------------------------------------------------
     A        552     552       0       0       0       0
   -------------------------------------------------------
    Total     552     552      24      24      24       0
   -------------------------------------------------------

  ==> Integral Setup <==

  DFHelper Memory: AOs need 2.693 GiB; user supplied 22.352 GiB. Using in-core AOs.

  ==> MemDFJK: Density-Fitted J/K Matrices <==

    J tasked:                   Yes
    K tasked:                   Yes
    wK tasked:                   No
    OpenMP threads:               8
    Memory [MiB]:             22888
    Algorithm:                 Disk
    Schwarz Cutoff:           1E-12
    Mask sparsity (%):       2.4785
    Fitting Condition:        1E-10

   => Auxiliary Basis Set <=

  Basis Set: (AUG-CC-PVTZ AUX)
    Blend: AUG-CC-PVTZ-JKFIT
    Number of shells: 348
    Number of basis function: 1176
    Number of Cartesian functions: 1446
    Spherical Harmonics?: true
    Max angular momentum: 4

  Minimum eigenvalue in the overlap matrix is 1.7251540534E-06.
  Using Symmetric Orthogonalization.

  SCF Guess: Superposition of Atomic Densities via on-the-fly atomic UHF.

  ==> Iterations <==

                           Total Energy        Delta E     RMS |[F,P]|

   @DF-RHF iter SAD:  -234.03399243984421   -2.34034e+02   0.00000e+00 
   @DF-RHF iter   1:  -233.95908798379529    7.49045e-02   1.23137e-03 DIIS
   @DF-RHF iter   2:  -234.17928384873042   -2.20196e-01   6.36815e-04 DIIS
   @DF-RHF iter   3:  -234.24252938321160   -6.32455e-02   1.13105e-04 DIIS
   @DF-RHF iter   4:  -234.24601285118646   -3.48347e-03   3.15678e-05 DIIS
   @DF-RHF iter   5:  -234.24623161700276   -2.18766e-04   7.22737e-06 DIIS
   @DF-RHF iter   6:  -234.24624629101129   -1.46740e-05   1.26188e-06 DIIS
   @DF-RHF iter   7:  -234.24624684392319   -5.52912e-07   3.09428e-07 DIIS
   @DF-RHF iter   8:  -234.24624686971683   -2.57936e-08   8.99862e-08 DIIS
   @DF-RHF iter   9:  -234.24624687176146   -2.04463e-09   2.04215e-08 DIIS
   @DF-RHF iter  10:  -234.24624687190584   -1.44382e-10   6.04878e-09 DIIS
   @DF-RHF iter  11:  -234.24624687191920   -1.33582e-11   1.79597e-09 DIIS
   @DF-RHF iter  12:  -234.24624687192090   -1.70530e-12   5.87452e-10 DIIS
   @DF-RHF iter  13:  -234.24624687192107   -1.70530e-13   2.05311e-10 DIIS
   @DF-RHF iter  14:  -234.24624687192085    2.27374e-13   5.53212e-11 DIIS
  Energy and wave function converged.


  ==> Post-Iterations <==

    Orbital Energies [Eh]
    ---------------------

    Doubly Occupied:                                                      

       1A    -11.219995     2A    -11.217467     3A    -11.213757  
       4A    -11.213207     5A    -11.212465     6A    -11.209192  
       7A     -1.130044     8A     -1.025137     9A     -0.900488  
      10A     -0.886457    11A     -0.807806    12A     -0.747118  
      13A     -0.646357    14A     -0.624268    15A     -0.600438  
      16A     -0.551120    17A     -0.540380    18A     -0.533599  
      19A     -0.506005    20A     -0.479049    21A     -0.456020  
      22A     -0.450088    23A     -0.426419    24A     -0.412080  

    Virtual:                                                              

      25A      0.031492    26A      0.035230    27A      0.036784  
      28A      0.037346    29A      0.053090    30A      0.054637  
      31A      0.055106    32A      0.056750    33A      0.060356  
      34A      0.077605    35A      0.078142    36A      0.080055  
      37A      0.107892    38A      0.114196    39A      0.116972  
      40A      0.120570    41A      0.123199    42A      0.128571  
      43A      0.133430    44A      0.137451    45A      0.138294  
      46A      0.143951    47A      0.146313    48A      0.153362  
      49A      0.157969    50A      0.160868    51A      0.163073  
      52A      0.164384    53A      0.175066    54A      0.185055  
      55A      0.190365    56A      0.201330    57A      0.212348  
      58A      0.221034    59A      0.236066    60A      0.241786  
      61A      0.251997    62A      0.256949    63A      0.276252  
      64A      0.279135    65A      0.285378    66A      0.290488  
      67A      0.291836    68A      0.297473    69A      0.302149  
      70A      0.304002    71A      0.320645    72A      0.322843  
      73A      0.327924    74A      0.333918    75A      0.343444  
      76A      0.348085    77A      0.351575    78A      0.358424  
      79A      0.362388    80A      0.364330    81A      0.371728  
      82A      0.372630    83A      0.374343    84A      0.382546  
      85A      0.387790    86A      0.391385    87A      0.398710  
      88A      0.410192    89A      0.414405    90A      0.416810  
      91A      0.422070    92A      0.427588    93A      0.432775  
      94A      0.439844    95A      0.442009    96A      0.446690  
      97A      0.453032    98A      0.455457    99A      0.456326  
     100A      0.464391   101A      0.467014   102A      0.472184  
     103A      0.475758   104A      0.477717   105A      0.486355  
     106A      0.495793   107A      0.500240   108A      0.503178  
     109A      0.510398   110A      0.524173   111A      0.531954  
     112A      0.536310   113A      0.539563   114A      0.541504  
     115A      0.543328   116A      0.554248   117A      0.558278  
     118A      0.559203   119A      0.566370   120A      0.577547  
     121A      0.581359   122A      0.588905   123A      0.594000  
     124A      0.596473   125A      0.603373   126A      0.606608  
     127A      0.616982   128A      0.620561   129A      0.625197  
     130A      0.631432   131A      0.634598   132A      0.642099  
     133A      0.657615   134A      0.660603   135A      0.669389  
     136A      0.678981   137A      0.688781   138A      0.698952  
     139A      0.709196   140A      0.721273   141A      0.728806  
     142A      0.733692   143A      0.751459   144A      0.767310  
     145A      0.785588   146A      0.792643   147A      0.801649  
     148A      0.822768   149A      0.829589   150A      0.839103  
     151A      0.845889   152A      0.851923   153A      0.860935  
     154A      0.867093   155A      0.873749   156A      0.891521  
     157A      0.891802   158A      0.899156   159A      0.900813  
     160A      0.906019   161A      0.915049   162A      0.918340  
     163A      0.924384   164A      0.931483   165A      0.938052  
     166A      0.941733   167A      0.948944   168A      0.953739  
     169A      0.958977   170A      0.962370   171A      0.968167  
     172A      0.976873   173A      0.983392   174A      0.994002  
     175A      1.000913   176A      1.008128   177A      1.015678  
     178A      1.021785   179A      1.030064   180A      1.036326  
     181A      1.051777   182A      1.055980   183A      1.061148  
     184A      1.067809   185A      1.073460   186A      1.079412  
     187A      1.084165   188A      1.086823   189A      1.099827  
     190A      1.111180   191A      1.112924   192A      1.118753  
     193A      1.131286   194A      1.142854   195A      1.151282  
     196A      1.159455   197A      1.164028   198A      1.177621  
     199A      1.179868   200A      1.194843   201A      1.198087  
     202A      1.209605   203A      1.212795   204A      1.225153  
     205A      1.230251   206A      1.235207   207A      1.240008  
     208A      1.259837   209A      1.265903   210A      1.277270  
     211A      1.284414   212A      1.290697   213A      1.304450  
     214A      1.304838   215A      1.311881   216A      1.316739  
     217A      1.323890   218A      1.330920   219A      1.346566  
     220A      1.350137   221A      1.364462   222A      1.365225  
     223A      1.376264   224A      1.386982   225A      1.404189  
     226A      1.414551   227A      1.422746   228A      1.425096  
     229A      1.432596   230A      1.436730   231A      1.456420  
     232A      1.459550   233A      1.472894   234A      1.478619  
     235A      1.498755   236A      1.504733   237A      1.520096  
     238A      1.531389   239A      1.538825   240A      1.553039  
     241A      1.561436   242A      1.573772   243A      1.580803  
     244A      1.594697   245A      1.596688   246A      1.617367  
     247A      1.622400   248A      1.626650   249A      1.643647  
     250A      1.654101   251A      1.657503   252A      1.672811  
     253A      1.687655   254A      1.691084   255A      1.693668  
     256A      1.701349   257A      1.709782   258A      1.717586  
     259A      1.722464   260A      1.736216   261A      1.743973  
     262A      1.758149   263A      1.763866   264A      1.768880  
     265A      1.775742   266A      1.782792   267A      1.788239  
     268A      1.795971   269A      1.807337   270A      1.821538  
     271A      1.823807   272A      1.844541   273A      1.849018  
     274A      1.866327   275A      1.871171   276A      1.881042  
     277A      1.889834   278A      1.898649   279A      1.915426  
     280A      1.921211   281A      1.930090   282A      1.945876  
     283A      1.950016   284A      1.955960   285A      1.969427  
     286A      1.980001   287A      2.001745   288A      2.004887  
     289A      2.008252   290A      2.017177   291A      2.018375  
     292A      2.036591   293A      2.047731   294A      2.052318  
     295A      2.054247   296A      2.068440   297A      2.089947  
     298A      2.100406   299A      2.103229   300A      2.119987  
     301A      2.132904   302A      2.149110   303A      2.155229  
     304A      2.157868   305A      2.175830   306A      2.191145  
     307A      2.208138   308A      2.226457   309A      2.227473  
     310A      2.238444   311A      2.247356   312A      2.251632  
     313A      2.273249   314A      2.282557   315A      2.292595  
     316A      2.304688   317A      2.321304   318A      2.329261  
     319A      2.337942   320A      2.356153   321A      2.378026  
     322A      2.389680   323A      2.405846   324A      2.417154  
     325A      2.421795   326A      2.435246   327A      2.456821  
     328A      2.465099   329A      2.474521   330A      2.493831  
     331A      2.509956   332A      2.541289   333A      2.558979  
     334A      2.573800   335A      2.577030   336A      2.597715  
     337A      2.631359   338A      2.655543   339A      2.672041  
     340A      2.701409   341A      2.735213   342A      2.770696  
     343A      2.921808   344A      2.955813   345A      2.985878  
     346A      3.042683   347A      3.118570   348A      3.177291  
     349A      3.252465   350A      3.299647   351A      3.337416  
     352A      3.404956   353A      3.413914   354A      3.428543  
     355A      3.462836   356A      3.467606   357A      3.477630  
     358A      3.495902   359A      3.507034   360A      3.515280  
     361A      3.528501   362A      3.544617   363A      3.558294  
     364A      3.577785   365A      3.588697   366A      3.597853  
     367A      3.612126   368A      3.628676   369A      3.665497  
     370A      3.670068   371A      3.682936   372A      3.698996  
     373A      3.704751   374A      3.707343   375A      3.725709  
     376A      3.730566   377A      3.739871   378A      3.762980  
     379A      3.767863   380A      3.789163   381A      3.802045  
     382A      3.806239   383A      3.815956   384A      3.841190  
     385A      3.845068   386A      3.858510   387A      3.869088  
     388A      3.878377   389A      3.895577   390A      3.899883  
     391A      3.909961   392A      3.926599   393A      3.938244  
     394A      3.947208   395A      3.953213   396A      3.965858  
     397A      3.974068   398A      3.992650   399A      4.002192  
     400A      4.022591   401A      4.023700   402A      4.032091  
     403A      4.058034   404A      4.063515   405A      4.079661  
     406A      4.095689   407A      4.099473   408A      4.118413  
     409A      4.125288   410A      4.147145   411A      4.155646  
     412A      4.177356   413A      4.190090   414A      4.195374  
     415A      4.207971   416A      4.230777   417A      4.241371  
     418A      4.252376   419A      4.269189   420A      4.281922  
     421A      4.296404   422A      4.299911   423A      4.312372  
     424A      4.326184   425A      4.350911   426A      4.359044  
     427A      4.376518   428A      4.386722   429A      4.409118  
     430A      4.416440   431A      4.439293   432A      4.451187  
     433A      4.452456   434A      4.469986   435A      4.481447  
     436A      4.491818   437A      4.533509   438A      4.535916  
     439A      4.560494   440A      4.567992   441A      4.598659  
     442A      4.614174   443A      4.617434   444A      4.626541  
     445A      4.643646   446A      4.659893   447A      4.684197  
     448A      4.715753   449A      4.723504   450A      4.737045  
     451A      4.748219   452A      4.759406   453A      4.788442  
     454A      4.789192   455A      4.821581   456A      4.837878  
     457A      4.858111   458A      4.873646   459A      4.878440  
     460A      4.887596   461A      4.891080   462A      4.904292  
     463A      4.912701   464A      4.927960   465A      4.940311  
     466A      4.957054   467A      4.995792   468A      5.000743  
     469A      5.038794   470A      5.041269   471A      5.068833  
     472A      5.095192   473A      5.112270   474A      5.129410  
     475A      5.134955   476A      5.159418   477A      5.176506  
     478A      5.190023   479A      5.208098   480A      5.227417  
     481A      5.239758   482A      5.250646   483A      5.261510  
     484A      5.278722   485A      5.293685   486A      5.299628  
     487A      5.319867   488A      5.354831   489A      5.359475  
     490A      5.382447   491A      5.410073   492A      5.411683  
     493A      5.420511   494A      5.435841   495A      5.455134  
     496A      5.457184   497A      5.478038   498A      5.502350  
     499A      5.535602   500A      5.548583   501A      5.555580  
     502A      5.571833   503A      5.585570   504A      5.606440  
     505A      5.631446   506A      5.654537   507A      5.663965  
     508A      5.688593   509A      5.702396   510A      5.720867  
     511A      5.751005   512A      5.784648   513A      5.800451  
     514A      5.805142   515A      5.856127   516A      5.875528  
     517A      5.885275   518A      5.894663   519A      5.928191  
     520A      5.969392   521A      5.992518   522A      6.029896  
     523A      6.067223   524A      6.095197   525A      6.122392  
     526A      6.142413   527A      6.177754   528A      6.204909  
     529A      6.251745   530A      6.256544   531A      6.275988  
     532A      6.299491   533A      6.366509   534A      6.410415  
     535A      6.476455   536A      6.546463   537A      6.584129  
     538A      6.669689   539A      6.710662   540A      6.792738  
     541A      6.814412   542A      6.876901   543A      6.904051  
     544A      6.938036   545A      6.975577   546A      7.030489  
     547A     17.501648   548A     17.747736   549A     17.960785  
     550A     18.955696   551A     19.736941   552A     19.902858  

    Final Occupation by Irrep:
              A 
    DOCC [    24 ]

  @DF-RHF Final Energy:  -234.24624687192085

   => Energetics <=

    Nuclear Repulsion Energy =            247.0152576101128545
    One-Electron Energy =                -804.5050968011938721
    Two-Electron Energy =                 323.2435923191602001
    Total Energy =                       -234.2462468719208459

Computation Completed

*** tstop() called on node35.bme.utexas.edu at Thu Feb  4 21:57:35 2021
Module time:
	user time   =     239.58 seconds =       3.99 minutes
	system time =      53.83 seconds =       0.90 minutes
	total time  =         70 seconds =       1.17 minutes
Total time:
	user time   =     239.58 seconds =       3.99 minutes
	system time =      53.83 seconds =       0.90 minutes
	total time  =         70 seconds =       1.17 minutes
   => Loading Basis Set <=

    Name: (AUG-CC-PVTZ AUX)
    Role: RIFIT
    Keyword: DF_BASIS_MP2
    atoms 1-6  entry C          line   148 file /home/xy3866/psi4conda/share/psi4/basis/aug-cc-pvtz-ri.gbs 
    atoms 7-18 entry H          line    30 file /home/xy3866/psi4conda/share/psi4/basis/aug-cc-pvtz-ri.gbs 


*** tstart() called on node35.bme.utexas.edu
*** at Thu Feb  4 21:57:35 2021


  //>>>>>>>>>>>>>>>>>>>>>>>>>>>>>>>>>>>//
  //               DFMP2               //
  //<<<<<<<<<<<<<<<<<<<<<<<<<<<<<<<<<<<//

	 --------------------------------------------------------
	                          DF-MP2                         
	      2nd-Order Density-Fitted Moller-Plesset Theory     
	              RMP2 Wavefunction,   8 Threads             
	                                                         
	        Rob Parrish, Justin Turney, Andy Simmonett,      
	           Ed Hohenstein, and C. David Sherrill          
	 --------------------------------------------------------

   => Auxiliary Basis Set <=

  Basis Set: (AUG-CC-PVTZ AUX)
    Blend: AUG-CC-PVTZ-RI
    Number of shells: 336
    Number of basis function: 1188
    Number of Cartesian functions: 1476
    Spherical Harmonics?: true
    Max angular momentum: 4

	 --------------------------------------------------------
	                 NBF =   552, NAUX =  1188
	 --------------------------------------------------------
	   CLASS    FOCC     OCC    AOCC    AVIR     VIR    FVIR
	   PAIRS       0      24      24     528     528       0
	 --------------------------------------------------------

  DFHelper Memory: AOs need 2.693 GiB; user supplied 22.352 GiB. Using in-core AOs.


         ------------------------------------------------------------
                                     CPHF                           
                                  Rob Parrish                       
         ------------------------------------------------------------

  ==> Geometry <==

    Molecular point group: c1
    Full point group: C1

    Geometry (in Angstrom), charge = 0, multiplicity = 1:

       Center              X                  Y                   Z               Mass       
    ------------   -----------------  -----------------  -----------------  -----------------
         C           -0.006144540978     0.204039365099     0.356552560170    12.000000000000
         C            1.246646859022     1.014461865099    -0.050091839830    12.000000000000
         C            0.688836459022    -1.073942634901    -0.172530439830    12.000000000000
         C            2.042150459022    -0.357678634901     0.028276560170    12.000000000000
         C           -1.338771540978     0.621639365099    -0.236558439830    12.000000000000
         C           -2.458722540978    -0.363444634901     0.090700560170    12.000000000000
         H           -0.085593540978     0.143204365099     1.451012560170     1.007825032230
         H            1.602307459022     1.796480365099     0.636272560170     1.007825032230
         H            1.207349459022     1.361131365099    -1.044790439830     1.007825032230
         H            0.471563459022    -1.212844634901    -1.238330439830     1.007825032230
         H            0.515903459022    -2.020394634901     0.348731560170     1.007825032230
         H            2.834166459022    -0.529257634901    -0.706523439830     1.007825032230
         H            2.444221459022    -0.547525634901     1.028192560170     1.007825032230
         H           -1.602782540978     1.623483365099     0.127003560170     1.007825032230
         H           -1.225945540978     0.705761365099    -1.325643439830     1.007825032230
         H           -2.599656540978    -0.446747634901     1.172962560170     1.007825032230
         H           -2.223320540978    -1.360408634901    -0.294196439830     1.007825032230
         H           -3.409943540978    -0.049578634901    -0.349355439830     1.007825032230

  Nuclear repulsion =  247.015257610112855
  Reference energy  = -234.246246871920846

  ==> Basis Set <==

  Basis Set: AUG-CC-PVTZ
    Blend: AUG-CC-PVTZ
    Number of shells: 192
    Number of basis function: 552
    Number of Cartesian functions: 630
    Spherical Harmonics?: true
    Max angular momentum: 3

  ==> CGRSolver (by Rob Parrish) <==

   Number of roots    =         1
   Preconditioning    =    JACOBI
   Convergence cutoff =     1E-06
   Maximum iterations =       100

  ==> CPHFRHamiltonian (by Rob Parrish) <== 

  ==> MemDFJK: Density-Fitted J/K Matrices <==

    J tasked:                   Yes
    K tasked:                   Yes
    wK tasked:                   No
    OpenMP threads:               8
    Memory [MiB]:             22888
    Algorithm:                 Disk
    Schwarz Cutoff:           1E-12
    Mask sparsity (%):       2.4785
    Fitting Condition:        1E-10

   => Auxiliary Basis Set <=

  Basis Set: (AUG-CC-PVTZ AUX)
    Blend: AUG-CC-PVTZ-JKFIT
    Number of shells: 348
    Number of basis function: 1176
    Number of Cartesian functions: 1446
    Spherical Harmonics?: true
    Max angular momentum: 4

  ==> CPHF Iterations <==

  => Iterations <=

             Iter  Converged  Remaining    Residual
  CGR           1          0          1   8.705E-02
  CGR           2          0          1   1.450E-02
  CGR           3          0          1   4.560E-03
  CGR           4          0          1   1.043E-03
  CGR           5          0          1   2.013E-04
  CGR           6          0          1   5.058E-05
  CGR           7          0          1   1.582E-05
  CGR           8          0          1   3.830E-06
  CGR           9          0          1   1.199E-06
  CGR          10          1          0   3.016E-07

    CGRSolver converged.

	-----------------------------------------------------------
	 ==================> DF-MP2 Energies <==================== 
	-----------------------------------------------------------
	 Reference Energy          =    -234.2462468719208459 [Eh]
	 Singles Energy            =      -0.0000000000000000 [Eh]
	 Same-Spin Energy          =      -0.2524686049619911 [Eh]
	 Opposite-Spin Energy      =      -0.9216166290303615 [Eh]
	 Correlation Energy        =      -1.1740852339923524 [Eh]
	 Total Energy              =    -235.4203321059131895 [Eh]
	-----------------------------------------------------------
	 ================> DF-SCS-MP2 Energies <================== 
	-----------------------------------------------------------
	 SCS Same-Spin Scale       =       0.3333333333333333 [-]
	 SCS Opposite-Spin Scale   =       1.2000000000000000 [-]
	 SCS Same-Spin Energy      =      -0.0841562016539970 [Eh]
	 SCS Opposite-Spin Energy  =      -1.1059399548364337 [Eh]
	 SCS Correlation Energy    =      -1.1900961564904307 [Eh]
	 SCS Total Energy          =    -235.4363430284112724 [Eh]
	-----------------------------------------------------------



Properties will be evaluated at   0.000000,   0.000000,   0.000000 [a0]

Properties computed using the MP2 density matrix

  Nuclear Dipole Moment: [e a0]
     X:    -1.9422      Y:    -0.5031      Z:    -0.1825

  Electronic Dipole Moment: [e a0]
     X:     1.9223      Y:     0.5217      Z:     0.1997

  Dipole Moment: [e a0]
     X:    -0.0199      Y:     0.0185      Z:     0.0172     Total:     0.0322

  Dipole Moment: [D]
     X:    -0.0506      Y:     0.0471      Z:     0.0437     Total:     0.0818


*** tstop() called on node35.bme.utexas.edu at Thu Feb  4 21:59:53 2021
Module time:
	user time   =     649.95 seconds =      10.83 minutes
	system time =     102.41 seconds =       1.71 minutes
	total time  =        138 seconds =       2.30 minutes
Total time:
	user time   =     889.84 seconds =      14.83 minutes
	system time =     156.24 seconds =       2.60 minutes
	total time  =        208 seconds =       3.47 minutes

    Psi4 stopped on: Thursday, 04 February 2021 09:59PM
    Psi4 wall time for execution: 0:03:28.33

*** Psi4 exiting successfully. Buy a developer a beer!
