24622                                                                   
Freq      RMP2-FC                                                     6-31G(d)            
Number of atoms                            I               11
Info1-9                                    I   N=           9
          23          21        1002           0           0         100
           6           2           1
Charge                                     I                0
Multiplicity                               I                1
Number of electrons                        I               74
Number of alpha electrons                  I               37
Number of beta electrons                   I               37
Number of basis functions                  I              112
Number of independent functions            I              112
Number of point charges in /Mol/           I                0
Number of translation vectors              I                0
Atomic numbers                             I   N=          11
          17          17          17           6           6           6
           1           1           1           1           1
Nuclear charges                            R   N=          11
  1.70000000E+01  1.70000000E+01  1.70000000E+01  6.00000000E+00  6.00000000E+00
  6.00000000E+00  1.00000000E+00  1.00000000E+00  1.00000000E+00  1.00000000E+00
  1.00000000E+00
Current cartesian coordinates              R   N=          33
  3.33623870E+00 -1.35266153E-05  1.50632649E+00 -9.85868489E-02  2.74175445E+00
 -1.75524753E+00 -9.86032685E-02 -2.74174002E+00 -1.75526491E+00 -1.69319941E+00
 -1.44035799E-06  2.29317336E+00  2.46370999E-01 -1.47729584E-07  1.62727498E-01
 -4.44330407E+00 -8.68456774E-08  1.44424104E+00 -1.29346489E+00 -1.66727023E+00
  3.44960926E+00 -1.29346364E+00  1.66726434E+00  3.44961324E+00 -4.88875687E+00
 -1.67638870E+00  3.28292389E-01 -5.65858836E+00 -3.82968817E-06  3.11449545E+00
 -4.88875727E+00  1.67639307E+00  3.28299438E-01
Force Field                                I                0
Int Atom Types                             I   N=          11
           0           0           0           0           0           0
           0           0           0           0           0
MM charges                                 R   N=          11
  0.00000000E+00  0.00000000E+00  0.00000000E+00  0.00000000E+00  0.00000000E+00
  0.00000000E+00  0.00000000E+00  0.00000000E+00  0.00000000E+00  0.00000000E+00
  0.00000000E+00
Integer atomic weights                     I   N=          11
          35          35          35          12          12          12
           1           1           1           1           1
Real atomic weights                        R   N=          11
  3.49688527E+01  3.49688527E+01  3.49688527E+01  1.20000000E+01  1.20000000E+01
  1.20000000E+01  1.00782504E+00  1.00782504E+00  1.00782504E+00  1.00782504E+00
  1.00782504E+00
Atom fragment info                         I   N=          11
           0           0           0           0           0           0
           0           0           0           0           0
Atom residue num                           I   N=          11
           0           0           0           0           0           0
           0           0           0           0           0
Nuclear spins                              I   N=          11
           3           3           3           0           0           0
           1           1           1           1           1
Nuclear ZEff                               R   N=          11
 -1.42400000E+01 -1.42400000E+01 -1.42400000E+01 -3.60000000E+00 -3.60000000E+00
 -3.60000000E+00 -1.00000000E+00 -1.00000000E+00 -1.00000000E+00 -1.00000000E+00
 -1.00000000E+00
Nuclear QMom                               R   N=          11
 -8.16500000E+00 -8.16500000E+00 -8.16500000E+00  0.00000000E+00  0.00000000E+00
  0.00000000E+00  0.00000000E+00  0.00000000E+00  0.00000000E+00  0.00000000E+00
  0.00000000E+00
Nuclear GFac                               R   N=          11
  8.21874000E-01  8.21874000E-01  8.21874000E-01  0.00000000E+00  0.00000000E+00
  0.00000000E+00  2.79284600E+00  2.79284600E+00  2.79284600E+00  2.79284600E+00
  2.79284600E+00
MicOpt                                     I   N=          11
          -1          -1          -1          -1          -1          -1
          -1          -1          -1          -1          -1
Number of contracted shells                I               37
Number of primitive shells                 I              104
Pure/Cartesian d shells                    I                1
Pure/Cartesian f shells                    I                0
Highest angular momentum                   I                2
Largest degree of contraction              I                6
Shell types                                I   N=          37
           0          -1          -1          -1           2           0
          -1          -1          -1           2           0          -1
          -1          -1           2           0          -1          -1
           2           0          -1          -1           2           0
          -1          -1           2           0           0           0
           0           0           0           0           0           0
           0
Number of primitives per shell             I   N=          37
           6           6           3           1           1           6
           6           3           1           1           6           6
           3           1           1           6           3           1
           1           6           3           1           1           6
           3           1           1           3           1           3
           1           3           1           3           1           3
           1
Shell to atom map                          I   N=          37
           1           1           1           1           1           2
           2           2           2           2           3           3
           3           3           3           4           4           4
           4           5           5           5           5           6
           6           6           6           7           7           8
           8           9           9          10          10          11
          11
Primitive exponents                        R   N=         104
  2.51801000E+04  3.78035000E+03  8.60474000E+02  2.42145000E+02  7.73349000E+01
  2.62470000E+01  4.91765000E+02  1.16984000E+02  3.74153000E+01  1.37834000E+01
  5.45215000E+00  2.22588000E+00  3.18649000E+00  1.14427000E+00  4.20377000E-01
  1.42657000E-01  7.50000000E-01  2.51801000E+04  3.78035000E+03  8.60474000E+02
  2.42145000E+02  7.73349000E+01  2.62470000E+01  4.91765000E+02  1.16984000E+02
  3.74153000E+01  1.37834000E+01  5.45215000E+00  2.22588000E+00  3.18649000E+00
  1.14427000E+00  4.20377000E-01  1.42657000E-01  7.50000000E-01  2.51801000E+04
  3.78035000E+03  8.60474000E+02  2.42145000E+02  7.73349000E+01  2.62470000E+01
  4.91765000E+02  1.16984000E+02  3.74153000E+01  1.37834000E+01  5.45215000E+00
  2.22588000E+00  3.18649000E+00  1.14427000E+00  4.20377000E-01  1.42657000E-01
  7.50000000E-01  3.04752488E+03  4.57369518E+02  1.03948685E+02  2.92101553E+01
  9.28666296E+00  3.16392696E+00  7.86827235E+00  1.88128854E+00  5.44249258E-01
  1.68714478E-01  8.00000000E-01  3.04752488E+03  4.57369518E+02  1.03948685E+02
  2.92101553E+01  9.28666296E+00  3.16392696E+00  7.86827235E+00  1.88128854E+00
  5.44249258E-01  1.68714478E-01  8.00000000E-01  3.04752488E+03  4.57369518E+02
  1.03948685E+02  2.92101553E+01  9.28666296E+00  3.16392696E+00  7.86827235E+00
  1.88128854E+00  5.44249258E-01  1.68714478E-01  8.00000000E-01  1.87311370E+01
  2.82539436E+00  6.40121692E-01  1.61277759E-01  1.87311370E+01  2.82539436E+00
  6.40121692E-01  1.61277759E-01  1.87311370E+01  2.82539436E+00  6.40121692E-01
  1.61277759E-01  1.87311370E+01  2.82539436E+00  6.40121692E-01  1.61277759E-01
  1.87311370E+01  2.82539436E+00  6.40121692E-01  1.61277759E-01
Contraction coefficients                   R   N=         104
  1.83295985E-03  1.40341988E-02  6.90973943E-02  2.37451980E-01  4.83033960E-01
  3.39855972E-01 -2.29739142E-03 -3.07137189E-02 -1.12528069E-01  4.50163278E-02
  5.89353363E-01  4.65206287E-01 -2.51828028E-01  6.15892514E-02  1.06018433E+00
  1.00000000E+00  1.00000000E+00  1.83295985E-03  1.40341988E-02  6.90973943E-02
  2.37451980E-01  4.83033960E-01  3.39855972E-01 -2.29739142E-03 -3.07137189E-02
 -1.12528069E-01  4.50163278E-02  5.89353363E-01  4.65206287E-01 -2.51828028E-01
  6.15892514E-02  1.06018433E+00  1.00000000E+00  1.00000000E+00  1.83295985E-03
  1.40341988E-02  6.90973943E-02  2.37451980E-01  4.83033960E-01  3.39855972E-01
 -2.29739142E-03 -3.07137189E-02 -1.12528069E-01  4.50163278E-02  5.89353363E-01
  4.65206287E-01 -2.51828028E-01  6.15892514E-02  1.06018433E+00  1.00000000E+00
  1.00000000E+00  1.83473713E-03  1.40373228E-02  6.88426223E-02  2.32184443E-01
  4.67941348E-01  3.62311985E-01 -1.19332420E-01 -1.60854152E-01  1.14345644E+00
  1.00000000E+00  1.00000000E+00  1.83473713E-03  1.40373228E-02  6.88426223E-02
  2.32184443E-01  4.67941348E-01  3.62311985E-01 -1.19332420E-01 -1.60854152E-01
  1.14345644E+00  1.00000000E+00  1.00000000E+00  1.83473713E-03  1.40373228E-02
  6.88426223E-02  2.32184443E-01  4.67941348E-01  3.62311985E-01 -1.19332420E-01
 -1.60854152E-01  1.14345644E+00  1.00000000E+00  1.00000000E+00  3.34946043E-02
  2.34726953E-01  8.13757326E-01  1.00000000E+00  3.34946043E-02  2.34726953E-01
  8.13757326E-01  1.00000000E+00  3.34946043E-02  2.34726953E-01  8.13757326E-01
  1.00000000E+00  3.34946043E-02  2.34726953E-01  8.13757326E-01  1.00000000E+00
  3.34946043E-02  2.34726953E-01  8.13757326E-01  1.00000000E+00
P(S=P) Contraction coefficients            R   N=         104
  0.00000000E+00  0.00000000E+00  0.00000000E+00  0.00000000E+00  0.00000000E+00
  0.00000000E+00  3.98940088E-03  3.03177067E-02  1.29880029E-01  3.27951072E-01
  4.53527100E-01  2.52154056E-01 -1.42993147E-02  3.23572333E-01  7.43507765E-01
  1.00000000E+00  0.00000000E+00  0.00000000E+00  0.00000000E+00  0.00000000E+00
  0.00000000E+00  0.00000000E+00  0.00000000E+00  3.98940088E-03  3.03177067E-02
  1.29880029E-01  3.27951072E-01  4.53527100E-01  2.52154056E-01 -1.42993147E-02
  3.23572333E-01  7.43507765E-01  1.00000000E+00  0.00000000E+00  0.00000000E+00
  0.00000000E+00  0.00000000E+00  0.00000000E+00  0.00000000E+00  0.00000000E+00
  3.98940088E-03  3.03177067E-02  1.29880029E-01  3.27951072E-01  4.53527100E-01
  2.52154056E-01 -1.42993147E-02  3.23572333E-01  7.43507765E-01  1.00000000E+00
  0.00000000E+00  0.00000000E+00  0.00000000E+00  0.00000000E+00  0.00000000E+00
  0.00000000E+00  0.00000000E+00  6.89990666E-02  3.16423961E-01  7.44308291E-01
  1.00000000E+00  0.00000000E+00  0.00000000E+00  0.00000000E+00  0.00000000E+00
  0.00000000E+00  0.00000000E+00  0.00000000E+00  6.89990666E-02  3.16423961E-01
  7.44308291E-01  1.00000000E+00  0.00000000E+00  0.00000000E+00  0.00000000E+00
  0.00000000E+00  0.00000000E+00  0.00000000E+00  0.00000000E+00  6.89990666E-02
  3.16423961E-01  7.44308291E-01  1.00000000E+00  0.00000000E+00  0.00000000E+00
  0.00000000E+00  0.00000000E+00  0.00000000E+00  0.00000000E+00  0.00000000E+00
  0.00000000E+00  0.00000000E+00  0.00000000E+00  0.00000000E+00  0.00000000E+00
  0.00000000E+00  0.00000000E+00  0.00000000E+00  0.00000000E+00  0.00000000E+00
  0.00000000E+00  0.00000000E+00  0.00000000E+00  0.00000000E+00
Coordinates of each shell                  R   N=         111
  3.33623870E+00 -1.35266153E-05  1.50632649E+00  3.33623870E+00 -1.35266153E-05
  1.50632649E+00  3.33623870E+00 -1.35266153E-05  1.50632649E+00  3.33623870E+00
 -1.35266153E-05  1.50632649E+00  3.33623870E+00 -1.35266153E-05  1.50632649E+00
 -9.85868489E-02  2.74175445E+00 -1.75524753E+00 -9.85868489E-02  2.74175445E+00
 -1.75524753E+00 -9.85868489E-02  2.74175445E+00 -1.75524753E+00 -9.85868489E-02
  2.74175445E+00 -1.75524753E+00 -9.85868489E-02  2.74175445E+00 -1.75524753E+00
 -9.86032685E-02 -2.74174002E+00 -1.75526491E+00 -9.86032685E-02 -2.74174002E+00
 -1.75526491E+00 -9.86032685E-02 -2.74174002E+00 -1.75526491E+00 -9.86032685E-02
 -2.74174002E+00 -1.75526491E+00 -9.86032685E-02 -2.74174002E+00 -1.75526491E+00
 -1.69319941E+00 -1.44035799E-06  2.29317336E+00 -1.69319941E+00 -1.44035799E-06
  2.29317336E+00 -1.69319941E+00 -1.44035799E-06  2.29317336E+00 -1.69319941E+00
 -1.44035799E-06  2.29317336E+00  2.46370999E-01 -1.47729584E-07  1.62727498E-01
  2.46370999E-01 -1.47729584E-07  1.62727498E-01  2.46370999E-01 -1.47729584E-07
  1.62727498E-01  2.46370999E-01 -1.47729584E-07  1.62727498E-01 -4.44330407E+00
 -8.68456774E-08  1.44424104E+00 -4.44330407E+00 -8.68456774E-08  1.44424104E+00
 -4.44330407E+00 -8.68456774E-08  1.44424104E+00 -4.44330407E+00 -8.68456774E-08
  1.44424104E+00 -1.29346489E+00 -1.66727023E+00  3.44960926E+00 -1.29346489E+00
 -1.66727023E+00  3.44960926E+00 -1.29346364E+00  1.66726434E+00  3.44961324E+00
 -1.29346364E+00  1.66726434E+00  3.44961324E+00 -4.88875687E+00 -1.67638870E+00
  3.28292389E-01 -4.88875687E+00 -1.67638870E+00  3.28292389E-01 -5.65858836E+00
 -3.82968817E-06  3.11449545E+00 -5.65858836E+00 -3.82968817E-06  3.11449545E+00
 -4.88875727E+00  1.67639307E+00  3.28299438E-01 -4.88875727E+00  1.67639307E+00
  3.28299438E-01
Constraint Structure                       R   N=          33
  3.33623870E+00 -1.35266153E-05  1.50632649E+00 -9.85868489E-02  2.74175445E+00
 -1.75524753E+00 -9.86032685E-02 -2.74174002E+00 -1.75526491E+00 -1.69319941E+00
 -1.44035799E-06  2.29317336E+00  2.46370999E-01 -1.47729584E-07  1.62727498E-01
 -4.44330407E+00 -8.68456774E-08  1.44424104E+00 -1.29346489E+00 -1.66727023E+00
  3.44960926E+00 -1.29346364E+00  1.66726434E+00  3.44961324E+00 -4.88875687E+00
 -1.67638870E+00  3.28292389E-01 -5.65858836E+00 -3.82968817E-06  3.11449545E+00
 -4.88875727E+00  1.67639307E+00  3.28299438E-01
Num ILSW                                   I              100
ILSW                                       I   N=         100
           0           1           0           0           2           0
           0           0           0           0           0          -1
           0           0           0           0           0           0
           0           0           0           0           1           0
           1           0           0           0           0           0
           0           0      100000           0          -1           0
           0           0           0           0           0           0
           0           0           0           1           1           0
           0           0           1           0           0           0
           0           0           4          40           0           0
           0           0           0           0           0           0
           0           0           0           0           0           0
           0           0           0           0           0           0
           0           0           0           0           0           0
           0           0           0           0           0           0
           0           0           0           0           0           0
           0           0           0           0
Num RLSW                                   I               40
RLSW                                       R   N=          40
  1.00000000E+00  1.00000000E+00  1.00000000E+00  1.00000000E+00  1.00000000E+00
  0.00000000E+00  0.00000000E+00  1.00000000E+00  0.00000000E+00  0.00000000E+00
  0.00000000E+00  0.00000000E+00  1.00000000E+00  0.00000000E+00  0.00000000E+00
  0.00000000E+00  0.00000000E+00  1.00000000E+00  0.00000000E+00  0.00000000E+00
  0.00000000E+00  0.00000000E+00  1.00000000E+00  0.00000000E+00  0.00000000E+00
  0.00000000E+00  0.00000000E+00  1.00000000E+00  0.00000000E+00  0.00000000E+00
  0.00000000E+00  0.00000000E+00  0.00000000E+00  0.00000000E+00  0.00000000E+00
  0.00000000E+00  0.00000000E+00  0.00000000E+00  1.00000000E+00  1.00000000E+00
MxBond                                     I                4
NBond                                      I   N=          11
           1           1           1           4           4           4
           1           1           1           1           1
IBond                                      I   N=          44
           5           0           0           0           5           0
           0           0           5           0           0           0
           5           6           7           8           1           2
           3           4           4           9          10          11
           4           0           0           0           4           0
           0           0           6           0           0           0
           6           0           0           0           6           0
           0           0
RBond                                      R   N=          44
  1.00000000E+00  0.00000000E+00  0.00000000E+00  0.00000000E+00  1.00000000E+00
  0.00000000E+00  0.00000000E+00  0.00000000E+00  1.00000000E+00  0.00000000E+00
  0.00000000E+00  0.00000000E+00  1.00000000E+00  1.00000000E+00  1.00000000E+00
  1.00000000E+00  1.00000000E+00  1.00000000E+00  1.00000000E+00  1.00000000E+00
  1.00000000E+00  1.00000000E+00  1.00000000E+00  1.00000000E+00  1.00000000E+00
  0.00000000E+00  0.00000000E+00  0.00000000E+00  1.00000000E+00  0.00000000E+00
  0.00000000E+00  0.00000000E+00  1.00000000E+00  0.00000000E+00  0.00000000E+00
  0.00000000E+00  1.00000000E+00  0.00000000E+00  0.00000000E+00  0.00000000E+00
  1.00000000E+00  0.00000000E+00  0.00000000E+00  0.00000000E+00
Virial Ratio                               R      2.000435507295369E+00
SCF Energy                                 R     -1.494942839660133E+03
MP2 Energy                                 R     -1.495737658726144E+03
Total Energy                               R     -1.495737658726144E+03
Post-SCF wavefunction norm                 R      1.602212742742505E+00
RMS Force                                  R      1.900051012605302E-06
RMS Density                                R      5.467523206087966E-10
External E-field                           R   N=          35
  0.00000000E+00  0.00000000E+00  0.00000000E+00  0.00000000E+00  0.00000000E+00
  0.00000000E+00  0.00000000E+00  0.00000000E+00  0.00000000E+00  0.00000000E+00
  0.00000000E+00  0.00000000E+00  0.00000000E+00  0.00000000E+00  0.00000000E+00
  0.00000000E+00  0.00000000E+00  0.00000000E+00  0.00000000E+00  0.00000000E+00
  0.00000000E+00  0.00000000E+00  0.00000000E+00  0.00000000E+00  0.00000000E+00
  0.00000000E+00  0.00000000E+00  0.00000000E+00  0.00000000E+00  0.00000000E+00
  0.00000000E+00  0.00000000E+00  0.00000000E+00  0.00000000E+00  0.00000000E+00
IOpCl                                      I                0
IROHF                                      I                0
Alpha Orbital Energies                     R   N=         112
 -1.04845491E+02 -1.04845489E+02 -1.04844800E+02 -1.14346239E+01 -1.12687606E+01
 -1.12369555E+01 -1.05798192E+01 -1.05798040E+01 -1.05790806E+01 -8.04915504E+00
 -8.04914572E+00 -8.04840578E+00 -8.04546369E+00 -8.04546248E+00 -8.04544273E+00
 -8.04544233E+00 -8.04471986E+00 -8.04469982E+00 -1.25022119E+00 -1.10965485E+00
 -1.10877744E+00 -1.06339542E+00 -9.13868367E-01 -7.89625246E-01 -6.70457219E-01
 -6.58282624E-01 -6.28458488E-01 -5.99403547E-01 -5.53369563E-01 -5.36298125E-01
 -5.13778947E-01 -4.94870282E-01 -4.89947339E-01 -4.61679865E-01 -4.56991209E-01
 -4.56042105E-01 -4.43970116E-01  1.28510864E-01  1.76299032E-01  1.80760197E-01
  2.40776960E-01  2.86506086E-01  2.86654482E-01  3.06603401E-01  3.30969735E-01
  3.37221206E-01  3.83063395E-01  4.81347765E-01  5.44800330E-01  5.46291217E-01
  5.88929251E-01  5.95731366E-01  6.23144463E-01  6.32988378E-01  6.50734196E-01
  6.54621403E-01  6.91415186E-01  6.96870426E-01  7.03925366E-01  7.09420577E-01
  7.43173359E-01  7.69414837E-01  8.32043218E-01  8.69195905E-01  8.95061295E-01
  9.06133394E-01  9.17525386E-01  9.78639656E-01  1.10186217E+00  1.10758319E+00
  1.11379374E+00  1.11454438E+00  1.13109187E+00  1.13538152E+00  1.15149140E+00
  1.15340608E+00  1.17746381E+00  1.18959459E+00  1.19106593E+00  1.19471304E+00
  1.22816167E+00  1.24480223E+00  1.25546915E+00  1.33683411E+00  1.34249851E+00
  1.40773626E+00  1.43233711E+00  1.47242488E+00  1.52487278E+00  1.68376263E+00
  1.79502204E+00  1.82463478E+00  1.87539626E+00  1.98929179E+00  2.16520948E+00
  2.20365368E+00  2.24224781E+00  2.30987215E+00  2.37565356E+00  2.46891810E+00
  2.49171227E+00  2.63718059E+00  2.66967166E+00  2.69322903E+00  2.89566255E+00
  2.99436158E+00  4.41473160E+00  4.61705292E+00  4.71810483E+00  4.72198517E+00
  4.75726735E+00  4.86321894E+00
Alpha MO coefficients                      R   N=       12544
 -3.22407002E-06 -3.99812311E-08 -9.28570816E-09 -1.36165029E-07 -4.06003277E-09
  1.71883071E-07  4.58170693E-08 -2.29943205E-06  1.59949387E-08 -3.00533332E-07
  1.13049176E-07  5.26562898E-05  1.25512304E-07 -5.18220353E-08 -3.29981906E-08
 -4.46647996E-08 -1.41663228E-05 -3.96874226E-08 -1.34254608E-05 -7.02827188E-01
 -1.03275319E-02 -2.09476709E-06  3.25169662E-05 -2.35702355E-05  1.25460120E-02
 -2.50474175E-06 -3.37513492E-05  2.27922452E-05 -1.15329939E-03  7.05094212E-06
  1.05668012E-04 -3.84613504E-05 -4.40632606E-03 -4.42904233E-03 -4.40722146E-03
  1.40859080E-07  4.51541815E-07  3.15727980E-06  7.05889727E-01  1.03725563E-02
  2.10532691E-06  3.26770510E-05  2.36854180E-05 -1.26004321E-02  2.50689819E-06
 -3.39740259E-05 -2.29602783E-05  1.15757806E-03 -7.06887574E-06  1.05645921E-04
  3.86213217E-05  4.42556117E-03  4.44817932E-03  4.42645006E-03  1.42375223E-07
 -4.50178689E-07  3.15353778E-06 -9.96910023E-09  2.58456342E-08 -2.83635540E-08
  3.49601471E-06  3.21347358E-08  8.37546620E-08 -1.10388013E-07  7.04203715E-05
  1.51492385E-07 -3.53445243E-08 -4.81039979E-08 -6.75831697E-08  9.00354001E-06
  2.38457564E-08 -8.95063644E-06 -3.87963320E-08  4.42279359E-08 -1.06581695E-08
 -5.66183653E-05 -7.43324227E-08  5.81576963E-07 -2.48152432E-08  1.76809572E-05
 -7.52583273E-09 -6.69259636E-08 -1.23180075E-07 -9.20319845E-08 -1.37483850E-06
 -1.68108825E-08 -2.30099740E-05  6.41131506E-09  4.24175507E-08  2.00395411E-08
  6.21145199E-06 -1.50515701E-08 -5.29242886E-08 -1.84862544E-07 -6.44141297E-05
  5.12876013E-08 -5.54480702E-09  1.00364394E-08  4.69100540E-09  6.78452918E-06
  8.56833139E-09 -3.08269863E-06  1.38457178E-05 -6.34496793E-06 -1.38330340E-05
  6.12632092E-06  2.58210685E-06 -8.00393571E-05 -1.10739309E-08 -7.70819806E-08
 -2.53453385E-06  7.98658666E-05 -1.48597464E-03 -1.84328323E-05 -4.27021996E-06
  3.15409156E-10 -1.86619781E-06  7.91131296E-05  2.10729860E-05  4.90941563E-09
  7.35521258E-06 -1.38223565E-04  5.19205097E-05 -1.14806122E-07  5.76478848E-05
 -2.38181859E-05 -1.52613471E-05 -2.05239652E-05  3.08841193E-08 -1.82122153E-05
  2.92574576E-08  7.05890054E-01  1.03777355E-02  2.38851047E-06 -3.69289655E-05
  2.64918366E-05 -1.25435090E-02  5.36298966E-07  5.13308281E-05 -3.86459638E-05
  9.86515212E-04 -4.24071854E-06  4.80912360E-06  3.67017332E-05  4.43351832E-03
  4.41100601E-03  4.43201529E-03 -3.15580869E-07  3.12035103E-07  8.95724309E-07
  7.02827517E-01  1.03327337E-02  2.37959399E-06  3.67870555E-05  2.63893546E-05
 -1.24888410E-02  5.25178344E-07 -5.11833816E-05 -3.85468668E-05  9.81491813E-04
 -4.21028260E-06 -5.26855262E-06  3.65342994E-05  4.41431782E-03  4.39170697E-03
  4.41281090E-03  3.14797503E-07  3.13965668E-07 -9.09564118E-07 -4.58784307E-06
  1.18830814E-05 -1.30608862E-05 -7.65547923E-09  1.47580085E-05  3.86371013E-05
 -5.09053530E-05 -1.52925260E-07  6.97496712E-05 -1.62817359E-05 -2.21255967E-05
 -3.10739235E-05 -1.96147110E-08  1.09745197E-05  1.95187460E-08 -1.78533869E-05
  2.02892718E-05 -4.81360127E-06  1.23226132E-07 -3.41078613E-05  2.67684655E-04
 -1.15671557E-05 -3.83756445E-08 -3.48104119E-06 -3.07799551E-05 -5.67024992E-05
 -4.22724643E-05  2.92710089E-09 -7.70326731E-06  4.99400984E-08  2.96382324E-06
  1.94995062E-05  9.25818908E-06 -1.34630593E-08 -6.94531660E-06 -2.46282225E-05
 -8.50834341E-05  1.39817875E-07  2.36010339E-05 -2.50143816E-06  4.65583922E-06
  2.22880818E-06 -1.47247498E-08  3.89723566E-06  6.72555853E-09  2.86995469E-06
 -5.03460372E-05  2.93002646E-06 -5.03734807E-05  1.09627451E-05 -3.96279032E-05
 -5.08745246E-06 -3.54352135E-05  1.09741078E-05 -3.99754231E-05  9.96115478E-01
  1.46414912E-02 -5.56964905E-05  2.38155776E-10 -2.27512600E-05 -1.77372586E-02
  6.90303511E-05 -2.76487532E-10  2.71150329E-05  1.49495634E-03 -7.52230437E-05
  2.69301442E-10 -2.81456157E-05  6.25231042E-03  6.25185190E-03  6.25269649E-03
  5.11402364E-12 -2.16730922E-07 -2.69249471E-12  1.05224564E-03  1.86072495E-05
  4.51510272E-07 -2.85803107E-06  2.18971807E-06  2.05936157E-05  1.28572905E-07
  1.39067570E-05 -9.47289456E-06 -1.10280720E-04 -4.67215126E-05  3.50644387E-05
 -4.54096124E-05 -1.26266161E-07  1.57516220E-06 -1.25282307E-06  1.06617180E-05
 -1.21508410E-05  1.24266133E-05  1.05223655E-03  1.86071263E-05  4.51529322E-07
  2.85801254E-06  2.18973234E-06  2.05937960E-05  1.28478421E-07 -1.39066875E-05
 -9.47296058E-06 -1.10280865E-04 -4.67216971E-05 -3.50639132E-05 -4.54099198E-05
 -1.26406223E-07  1.57537817E-06 -1.25300305E-06 -1.06616283E-05 -1.21509763E-05
 -1.24265248E-05 -4.26278690E-06  6.15675362E-06 -7.77524704E-06  2.63898325E-11
  5.56016311E-06  2.81113480E-05 -1.13442617E-04 -7.84449847E-11  3.88925870E-05
 -2.74437544E-05 -1.64246405E-05 -1.42742103E-05  1.08307823E-11  7.76113394E-06
 -6.56183146E-11 -1.35397893E-05  7.92434901E-06  4.14237474E-05 -1.97324810E-10
  2.11352532E-05  2.35681181E-04 -1.02499893E-05  1.04856248E-11  1.37584047E-05
 -4.39634253E-05 -2.51337900E-05 -2.11623709E-05  9.96243634E-11 -1.33491711E-05
  3.45212598E-11  1.69061366E-07  3.20475395E-06 -4.16705673E-06  2.19932188E-11
 -2.23228897E-06 -6.56355760E-05 -2.25850715E-05 -8.20493411E-11 -1.53836739E-05
  5.08743483E-07  9.96174995E-08 -3.85638026E-06 -8.09748692E-12 -9.33857192E-08
  1.64732101E-11  8.10954204E-06 -5.53239086E-05  8.10964169E-06 -5.53235413E-05
  1.54282288E-06  1.22551096E-06  3.03813351E-06 -4.47719748E-07  1.54285066E-06
  1.22558692E-06 -2.86561817E-05  7.79330345E-05  5.43555801E-05 -2.43070727E-10
  2.30658955E-05  3.35069721E-04 -4.43029726E-04  1.97197620E-09 -1.92112185E-04
  2.31530929E-03 -1.29517173E-03  5.41981126E-09 -6.09385767E-04 -1.25561635E-04
 -1.05502016E-04 -1.15498572E-04  7.80422095E-11  1.98121038E-05  6.55864545E-12
 -2.93283212E-05  7.38153067E-05 -7.16416843E-06  4.90560902E-05 -3.34703188E-05
  3.23651687E-04  5.91209942E-05 -3.99596397E-04  2.72035338E-04  2.43820422E-03
  1.39824772E-04 -1.21951708E-03  8.44479314E-04 -1.28397083E-04 -1.14942953E-04
 -1.33483795E-04  6.32627356E-07  1.16029983E-05 -1.52176304E-06 -2.93283480E-05
  7.38154267E-05 -7.16451072E-06 -4.90558157E-05 -3.34706195E-05  3.23652051E-04
  5.91236486E-05  3.99594356E-04  2.72037931E-04  2.43820587E-03  1.39831846E-04
  1.21951118E-03  8.44487590E-04 -1.28397097E-04 -1.14943279E-04 -1.33483925E-04
 -6.32582444E-07  1.16030542E-05  1.52164102E-06  1.69663659E-03 -8.49828768E-05
  1.06287603E-04  2.57552585E-10 -1.02424788E-04  4.26459639E-03  1.31101992E-03
 -6.93849042E-10 -1.35407556E-03 -2.21329701E-04 -1.39771758E-04 -2.34169040E-04
  4.63877150E-12  8.52227438E-05  2.39665626E-11  9.96249830E-01  2.67791485E-02
  6.14731318E-04  2.04987564E-11 -6.68474689E-04 -1.64903224E-02  6.24846386E-05
  1.19709594E-09  1.33663002E-05 -1.06630651E-03 -1.17623549E-03 -1.04853472E-03
  7.35661189E-12 -1.36723571E-04  8.96059036E-11 -6.28482111E-05 -1.64873640E-04
 -9.47310370E-05 -2.12029957E-10  5.41510442E-05  3.78879774E-04  1.51256959E-05
  1.46650024E-09 -2.88960127E-04 -4.83538010E-05 -9.15436618E-05 -1.77854157E-05
  1.67973784E-10 -1.47000719E-05 -1.45243385E-10 -1.18193266E-04 -1.94536987E-04
 -1.18193036E-04 -1.94535663E-04 -9.06956488E-06 -3.30744941E-04 -2.66236108E-05
  2.85423872E-04 -9.06980726E-06 -3.30744149E-04  1.88831144E-06 -2.06454594E-05
 -9.64727501E-06  7.12461392E-11 -7.23176252E-06 -6.46757603E-06  8.27599294E-05
 -5.04156871E-10  3.32573977E-05 -5.18129910E-05  1.77412354E-05  1.13469124E-09
 -4.16586659E-05 -2.46795211E-05 -7.72768735E-05 -2.30895488E-06 -2.47653144E-10
 -5.53963489E-05 -1.08946563E-10  8.51954236E-07 -4.91871444E-05  4.48952532E-07
 -1.17421136E-05  1.52129910E-05 -6.59959011E-05  9.08434430E-06  8.81067953E-05
 -1.15833811E-04  2.90965552E-04 -2.01159188E-05 -1.26677874E-04  1.98344135E-04
 -7.96394877E-05 -1.19906518E-04 -6.16947085E-05 -1.06910406E-05 -7.34592708E-05
 -2.03150988E-05  8.51954983E-07 -4.91870076E-05  4.49156472E-07  1.17419464E-05
  1.52131320E-05 -6.59957560E-05  9.08304805E-06 -8.81057374E-05 -1.15834800E-04
  2.90962192E-04 -2.01137497E-05  1.26674083E-04  1.98344825E-04 -7.96392204E-05
 -1.19906750E-04 -6.16939232E-05  1.06913212E-05 -7.34591351E-05  2.03148470E-05
  9.95796531E-01  2.85929009E-02  2.46987766E-04  8.08128380E-11 -4.03915941E-04
 -1.71356316E-02 -3.63164835E-05  1.29926664E-09  1.25319468E-03 -1.62285836E-03
 -1.56330234E-03 -1.68183681E-03  3.95380051E-11  2.73511146E-05  1.89322771E-10
 -2.00795790E-03  1.70748050E-04 -8.23544654E-05  2.83476798E-10  5.48304747E-05
  3.88874662E-03 -1.35282455E-03 -3.59502395E-09  1.43943748E-03 -2.96477466E-04
 -1.37227504E-04 -4.18640868E-04 -1.21691559E-10  2.39122617E-04  2.85917038E-10
  9.36602648E-03  2.70445577E-04  8.58818401E-05  4.50013713E-11 -2.47658302E-05
  4.16489040E-03  1.80637415E-03 -1.38526625E-09  4.51816422E-04 -4.49672338E-04
 -1.13815236E-04 -2.03573699E-04  1.92416362E-10 -1.54237357E-04  1.57560572E-10
  2.48544889E-04  2.53422512E-03  2.48544529E-04  2.53422288E-03 -1.58669501E-04