17369                                                                   
Freq      RMP2-FC                                                     6-31G(d)            
Number of atoms                            I               22
Info1-9                                    I   N=           9
          34          32        1002           0           0         100
           6           2           1
Charge                                     I                0
Multiplicity                               I                1
Number of electrons                        I               70
Number of alpha electrons                  I               35
Number of beta electrons                   I               35
Number of basis functions                  I              161
Number of independent functions            I              161
Number of point charges in /Mol/           I                0
Number of translation vectors              I                0
Atomic numbers                             I   N=          22
           8           7           6           6           6           6
           6           6           6           1           1           1
           1           1           1           1           1           1
           1           1           1           1
Nuclear charges                            R   N=          22
  8.00000000E+00  7.00000000E+00  6.00000000E+00  6.00000000E+00  6.00000000E+00
  6.00000000E+00  6.00000000E+00  6.00000000E+00  6.00000000E+00  1.00000000E+00
  1.00000000E+00  1.00000000E+00  1.00000000E+00  1.00000000E+00  1.00000000E+00
  1.00000000E+00  1.00000000E+00  1.00000000E+00  1.00000000E+00  1.00000000E+00
  1.00000000E+00  1.00000000E+00
Current cartesian coordinates              R   N=          66
  3.35233603E+00  3.02413974E+00 -5.50140545E-01  1.87206427E+00 -9.29770152E-01
  3.88992417E-01 -4.21159475E+00 -4.74378248E-01 -3.33568924E-01 -2.40568347E+00
 -2.71197682E+00 -5.95806641E-01 -3.02152994E+00  2.12453379E+00 -7.47580254E-01
 -1.58985094E-01 -2.60017852E+00  1.22008410E+00 -8.66398245E-01  2.75971074E+00
  1.09270502E+00  1.64546662E+00  1.64987487E+00  2.65438542E-01  4.14206453E+00
 -2.11415972E+00 -6.15994327E-01 -5.04540423E+00 -5.22678374E-01  1.56801002E+00
 -5.78418787E+00 -7.16455040E-01 -1.66234568E+00 -3.46229018E+00 -4.46098109E+00
 -2.37224316E-01 -1.67942339E+00 -2.83564181E+00 -2.53407552E+00 -4.50410167E+00
  3.55794416E+00 -5.46792981E-01 -2.31417037E+00  2.28471481E+00 -2.69066654E+00
 -8.02067442E-01 -2.05988846E+00  3.11659391E+00  6.84110505E-01 -4.47889972E+00
  1.40778056E+00 -1.36414170E+00  2.15438470E+00  3.01305084E+00 -5.49991533E-01
  4.79891921E+00  1.14610498E+00  3.68235196E+00 -3.32189762E+00 -2.23469537E+00
  5.05745694E+00 -3.26698475E+00  8.38027360E-01  5.41868296E+00 -6.17819404E-01
 -1.21725495E+00
Force Field                                I                0
Int Atom Types                             I   N=          22
           0           0           0           0           0           0
           0           0           0           0           0           0
           0           0           0           0           0           0
           0           0           0           0
MM charges                                 R   N=          22
  0.00000000E+00  0.00000000E+00  0.00000000E+00  0.00000000E+00  0.00000000E+00
  0.00000000E+00  0.00000000E+00  0.00000000E+00  0.00000000E+00  0.00000000E+00
  0.00000000E+00  0.00000000E+00  0.00000000E+00  0.00000000E+00  0.00000000E+00
  0.00000000E+00  0.00000000E+00  0.00000000E+00  0.00000000E+00  0.00000000E+00
  0.00000000E+00  0.00000000E+00
Integer atomic weights                     I   N=          22
          16          14          12          12          12          12
          12          12          12           1           1           1
           1           1           1           1           1           1
           1           1           1           1
Real atomic weights                        R   N=          22
  1.59949146E+01  1.40030740E+01  1.20000000E+01  1.20000000E+01  1.20000000E+01
  1.20000000E+01  1.20000000E+01  1.20000000E+01  1.20000000E+01  1.00782504E+00
  1.00782504E+00  1.00782504E+00  1.00782504E+00  1.00782504E+00  1.00782504E+00
  1.00782504E+00  1.00782504E+00  1.00782504E+00  1.00782504E+00  1.00782504E+00
  1.00782504E+00  1.00782504E+00
Atom fragment info                         I   N=          22
           0           0           0           0           0           0
           0           0           0           0           0           0
           0           0           0           0           0           0
           0           0           0           0
Atom residue num                           I   N=          22
           0           0           0           0           0           0
           0           0           0           0           0           0
           0           0           0           0           0           0
           0           0           0           0
Nuclear spins                              I   N=          22
           0           2           0           0           0           0
           0           0           0           1           1           1
           1           1           1           1           1           1
           1           1           1           1
Nuclear ZEff                               R   N=          22
 -5.60000000E+00 -4.55000000E+00 -3.60000000E+00 -3.60000000E+00 -3.60000000E+00
 -3.60000000E+00 -3.60000000E+00 -3.60000000E+00 -3.60000000E+00 -1.00000000E+00
 -1.00000000E+00 -1.00000000E+00 -1.00000000E+00 -1.00000000E+00 -1.00000000E+00
 -1.00000000E+00 -1.00000000E+00 -1.00000000E+00 -1.00000000E+00 -1.00000000E+00
 -1.00000000E+00 -1.00000000E+00
Nuclear QMom                               R   N=          22
  0.00000000E+00  2.04400000E+00  0.00000000E+00  0.00000000E+00  0.00000000E+00
  0.00000000E+00  0.00000000E+00  0.00000000E+00  0.00000000E+00  0.00000000E+00
  0.00000000E+00  0.00000000E+00  0.00000000E+00  0.00000000E+00  0.00000000E+00
  0.00000000E+00  0.00000000E+00  0.00000000E+00  0.00000000E+00  0.00000000E+00
  0.00000000E+00  0.00000000E+00
Nuclear GFac                               R   N=          22
  0.00000000E+00  4.03761000E-01  0.00000000E+00  0.00000000E+00  0.00000000E+00
  0.00000000E+00  0.00000000E+00  0.00000000E+00  0.00000000E+00  2.79284600E+00
  2.79284600E+00  2.79284600E+00  2.79284600E+00  2.79284600E+00  2.79284600E+00
  2.79284600E+00  2.79284600E+00  2.79284600E+00  2.79284600E+00  2.79284600E+00
  2.79284600E+00  2.79284600E+00
MicOpt                                     I   N=          22
          -1          -1          -1          -1          -1          -1
          -1          -1          -1          -1          -1          -1
          -1          -1          -1          -1          -1          -1
          -1          -1          -1          -1
Number of contracted shells                I               62
Number of primitive shells                 I              151
Pure/Cartesian d shells                    I                1
Pure/Cartesian f shells                    I                0
Highest angular momentum                   I                2
Largest degree of contraction              I                6
Shell types                                I   N=          62
           0          -1          -1           2           0          -1
          -1           2           0          -1          -1           2
           0          -1          -1           2           0          -1
          -1           2           0          -1          -1           2
           0          -1          -1           2           0          -1
          -1           2           0          -1          -1           2
           0           0           0           0           0           0
           0           0           0           0           0           0
           0           0           0           0           0           0
           0           0           0           0           0           0
           0           0
Number of primitives per shell             I   N=          62
           6           3           1           1           6           3
           1           1           6           3           1           1
           6           3           1           1           6           3
           1           1           6           3           1           1
           6           3           1           1           6           3
           1           1           6           3           1           1
           3           1           3           1           3           1
           3           1           3           1           3           1
           3           1           3           1           3           1
           3           1           3           1           3           1
           3           1
Shell to atom map                          I   N=          62
           1           1           1           1           2           2
           2           2           3           3           3           3
           4           4           4           4           5           5
           5           5           6           6           6           6
           7           7           7           7           8           8
           8           8           9           9           9           9
          10          10          11          11          12          12
          13          13          14          14          15          15
          16          16          17          17          18          18
          19          19          20          20          21          21
          22          22
Primitive exponents                        R   N=         151
  5.48467166E+03  8.25234946E+02  1.88046958E+02  5.29645000E+01  1.68975704E+01
  5.79963534E+00  1.55396162E+01  3.59993359E+00  1.01376175E+00  2.70005823E-01
  8.00000000E-01  4.17351146E+03  6.27457911E+02  1.42902093E+02  4.02343293E+01
  1.28202129E+01  4.39043701E+00  1.16263619E+01  2.71627981E+00  7.72218397E-01
  2.12031498E-01  8.00000000E-01  3.04752488E+03  4.57369518E+02  1.03948685E+02
  2.92101553E+01  9.28666296E+00  3.16392696E+00  7.86827235E+00  1.88128854E+00
  5.44249258E-01  1.68714478E-01  8.00000000E-01  3.04752488E+03  4.57369518E+02
  1.03948685E+02  2.92101553E+01  9.28666296E+00  3.16392696E+00  7.86827235E+00
  1.88128854E+00  5.44249258E-01  1.68714478E-01  8.00000000E-01  3.04752488E+03
  4.57369518E+02  1.03948685E+02  2.92101553E+01  9.28666296E+00  3.16392696E+00
  7.86827235E+00  1.88128854E+00  5.44249258E-01  1.68714478E-01  8.00000000E-01
  3.04752488E+03  4.57369518E+02  1.03948685E+02  2.92101553E+01  9.28666296E+00
  3.16392696E+00  7.86827235E+00  1.88128854E+00  5.44249258E-01  1.68714478E-01
  8.00000000E-01  3.04752488E+03  4.57369518E+02  1.03948685E+02  2.92101553E+01
  9.28666296E+00  3.16392696E+00  7.86827235E+00  1.88128854E+00  5.44249258E-01
  1.68714478E-01  8.00000000E-01  3.04752488E+03  4.57369518E+02  1.03948685E+02
  2.92101553E+01  9.28666296E+00  3.16392696E+00  7.86827235E+00  1.88128854E+00
  5.44249258E-01  1.68714478E-01  8.00000000E-01  3.04752488E+03  4.57369518E+02
  1.03948685E+02  2.92101553E+01  9.28666296E+00  3.16392696E+00  7.86827235E+00
  1.88128854E+00  5.44249258E-01  1.68714478E-01  8.00000000E-01  1.87311370E+01
  2.82539436E+00  6.40121692E-01  1.61277759E-01  1.87311370E+01  2.82539436E+00
  6.40121692E-01  1.61277759E-01  1.87311370E+01  2.82539436E+00  6.40121692E-01
  1.61277759E-01  1.87311370E+01  2.82539436E+00  6.40121692E-01  1.61277759E-01
  1.87311370E+01  2.82539436E+00  6.40121692E-01  1.61277759E-01  1.87311370E+01
  2.82539436E+00  6.40121692E-01  1.61277759E-01  1.87311370E+01  2.82539436E+00
  6.40121692E-01  1.61277759E-01  1.87311370E+01  2.82539436E+00  6.40121692E-01
  1.61277759E-01  1.87311370E+01  2.82539436E+00  6.40121692E-01  1.61277759E-01
  1.87311370E+01  2.82539436E+00  6.40121692E-01  1.61277759E-01  1.87311370E+01
  2.82539436E+00  6.40121692E-01  1.61277759E-01  1.87311370E+01  2.82539436E+00
  6.40121692E-01  1.61277759E-01  1.87311370E+01  2.82539436E+00  6.40121692E-01
  1.61277759E-01
Contraction coefficients                   R   N=         151
  1.83107443E-03  1.39501722E-02  6.84450781E-02  2.32714336E-01  4.70192898E-01
  3.58520853E-01 -1.10777550E-01 -1.48026263E-01  1.13076702E+00  1.00000000E+00
  1.00000000E+00  1.83477216E-03  1.39946270E-02  6.85865518E-02  2.32240873E-01
  4.69069948E-01  3.60455199E-01 -1.14961182E-01 -1.69117479E-01  1.14585195E+00
  1.00000000E+00  1.00000000E+00  1.83473713E-03  1.40373228E-02  6.88426223E-02
  2.32184443E-01  4.67941348E-01  3.62311985E-01 -1.19332420E-01 -1.60854152E-01
  1.14345644E+00  1.00000000E+00  1.00000000E+00  1.83473713E-03  1.40373228E-02
  6.88426223E-02  2.32184443E-01  4.67941348E-01  3.62311985E-01 -1.19332420E-01
 -1.60854152E-01  1.14345644E+00  1.00000000E+00  1.00000000E+00  1.83473713E-03
  1.40373228E-02  6.88426223E-02  2.32184443E-01  4.67941348E-01  3.62311985E-01
 -1.19332420E-01 -1.60854152E-01  1.14345644E+00  1.00000000E+00  1.00000000E+00
  1.83473713E-03  1.40373228E-02  6.88426223E-02  2.32184443E-01  4.67941348E-01
  3.62311985E-01 -1.19332420E-01 -1.60854152E-01  1.14345644E+00  1.00000000E+00
  1.00000000E+00  1.83473713E-03  1.40373228E-02  6.88426223E-02  2.32184443E-01
  4.67941348E-01  3.62311985E-01 -1.19332420E-01 -1.60854152E-01  1.14345644E+00
  1.00000000E+00  1.00000000E+00  1.83473713E-03  1.40373228E-02  6.88426223E-02
  2.32184443E-01  4.67941348E-01  3.62311985E-01 -1.19332420E-01 -1.60854152E-01
  1.14345644E+00  1.00000000E+00  1.00000000E+00  1.83473713E-03  1.40373228E-02
  6.88426223E-02  2.32184443E-01  4.67941348E-01  3.62311985E-01 -1.19332420E-01
 -1.60854152E-01  1.14345644E+00  1.00000000E+00  1.00000000E+00  3.34946043E-02
  2.34726953E-01  8.13757326E-01  1.00000000E+00  3.34946043E-02  2.34726953E-01
  8.13757326E-01  1.00000000E+00  3.34946043E-02  2.34726953E-01  8.13757326E-01
  1.00000000E+00  3.34946043E-02  2.34726953E-01  8.13757326E-01  1.00000000E+00
  3.34946043E-02  2.34726953E-01  8.13757326E-01  1.00000000E+00  3.34946043E-02
  2.34726953E-01  8.13757326E-01  1.00000000E+00  3.34946043E-02  2.34726953E-01
  8.13757326E-01  1.00000000E+00  3.34946043E-02  2.34726953E-01  8.13757326E-01
  1.00000000E+00  3.34946043E-02  2.34726953E-01  8.13757326E-01  1.00000000E+00
  3.34946043E-02  2.34726953E-01  8.13757326E-01  1.00000000E+00  3.34946043E-02
  2.34726953E-01  8.13757326E-01  1.00000000E+00  3.34946043E-02  2.34726953E-01
  8.13757326E-01  1.00000000E+00  3.34946043E-02  2.34726953E-01  8.13757326E-01
  1.00000000E+00
P(S=P) Contraction coefficients            R   N=         151
  0.00000000E+00  0.00000000E+00  0.00000000E+00  0.00000000E+00  0.00000000E+00
  0.00000000E+00  7.08742682E-02  3.39752839E-01  7.27158577E-01  1.00000000E+00
  0.00000000E+00  0.00000000E+00  0.00000000E+00  0.00000000E+00  0.00000000E+00
  0.00000000E+00  0.00000000E+00  6.75797439E-02  3.23907296E-01  7.40895140E-01
  1.00000000E+00  0.00000000E+00  0.00000000E+00  0.00000000E+00  0.00000000E+00
  0.00000000E+00  0.00000000E+00  0.00000000E+00  6.89990666E-02  3.16423961E-01
  7.44308291E-01  1.00000000E+00  0.00000000E+00  0.00000000E+00  0.00000000E+00
  0.00000000E+00  0.00000000E+00  0.00000000E+00  0.00000000E+00  6.89990666E-02
  3.16423961E-01  7.44308291E-01  1.00000000E+00  0.00000000E+00  0.00000000E+00
  0.00000000E+00  0.00000000E+00  0.00000000E+00  0.00000000E+00  0.00000000E+00
  6.89990666E-02  3.16423961E-01  7.44308291E-01  1.00000000E+00  0.00000000E+00
  0.00000000E+00  0.00000000E+00  0.00000000E+00  0.00000000E+00  0.00000000E+00
  0.00000000E+00  6.89990666E-02  3.16423961E-01  7.44308291E-01  1.00000000E+00
  0.00000000E+00  0.00000000E+00  0.00000000E+00  0.00000000E+00  0.00000000E+00
  0.00000000E+00  0.00000000E+00  6.89990666E-02  3.16423961E-01  7.44308291E-01
  1.00000000E+00  0.00000000E+00  0.00000000E+00  0.00000000E+00  0.00000000E+00
  0.00000000E+00  0.00000000E+00  0.00000000E+00  6.89990666E-02  3.16423961E-01
  7.44308291E-01  1.00000000E+00  0.00000000E+00  0.00000000E+00  0.00000000E+00
  0.00000000E+00  0.00000000E+00  0.00000000E+00  0.00000000E+00  6.89990666E-02
  3.16423961E-01  7.44308291E-01  1.00000000E+00  0.00000000E+00  0.00000000E+00
  0.00000000E+00  0.00000000E+00  0.00000000E+00  0.00000000E+00  0.00000000E+00
  0.00000000E+00  0.00000000E+00  0.00000000E+00  0.00000000E+00  0.00000000E+00
  0.00000000E+00  0.00000000E+00  0.00000000E+00  0.00000000E+00  0.00000000E+00
  0.00000000E+00  0.00000000E+00  0.00000000E+00  0.00000000E+00  0.00000000E+00
  0.00000000E+00  0.00000000E+00  0.00000000E+00  0.00000000E+00  0.00000000E+00
  0.00000000E+00  0.00000000E+00  0.00000000E+00  0.00000000E+00  0.00000000E+00
  0.00000000E+00  0.00000000E+00  0.00000000E+00  0.00000000E+00  0.00000000E+00
  0.00000000E+00  0.00000000E+00  0.00000000E+00  0.00000000E+00  0.00000000E+00
  0.00000000E+00  0.00000000E+00  0.00000000E+00  0.00000000E+00  0.00000000E+00
  0.00000000E+00  0.00000000E+00  0.00000000E+00  0.00000000E+00  0.00000000E+00
  0.00000000E+00
Coordinates of each shell                  R   N=         186
  3.35233603E+00  3.02413974E+00 -5.50140545E-01  3.35233603E+00  3.02413974E+00
 -5.50140545E-01  3.35233603E+00  3.02413974E+00 -5.50140545E-01  3.35233603E+00
  3.02413974E+00 -5.50140545E-01  1.87206427E+00 -9.29770152E-01  3.88992417E-01
  1.87206427E+00 -9.29770152E-01  3.88992417E-01  1.87206427E+00 -9.29770152E-01
  3.88992417E-01  1.87206427E+00 -9.29770152E-01  3.88992417E-01 -4.21159475E+00
 -4.74378248E-01 -3.33568924E-01 -4.21159475E+00 -4.74378248E-01 -3.33568924E-01
 -4.21159475E+00 -4.74378248E-01 -3.33568924E-01 -4.21159475E+00 -4.74378248E-01
 -3.33568924E-01 -2.40568347E+00 -2.71197682E+00 -5.95806641E-01 -2.40568347E+00
 -2.71197682E+00 -5.95806641E-01 -2.40568347E+00 -2.71197682E+00 -5.95806641E-01
 -2.40568347E+00 -2.71197682E+00 -5.95806641E-01 -3.02152994E+00  2.12453379E+00
 -7.47580254E-01 -3.02152994E+00  2.12453379E+00 -7.47580254E-01 -3.02152994E+00
  2.12453379E+00 -7.47580254E-01 -3.02152994E+00  2.12453379E+00 -7.47580254E-01
 -1.58985094E-01 -2.60017852E+00  1.22008410E+00 -1.58985094E-01 -2.60017852E+00
  1.22008410E+00 -1.58985094E-01 -2.60017852E+00  1.22008410E+00 -1.58985094E-01
 -2.60017852E+00  1.22008410E+00 -8.66398245E-01  2.75971074E+00  1.09270502E+00
 -8.66398245E-01  2.75971074E+00  1.09270502E+00 -8.66398245E-01  2.75971074E+00
  1.09270502E+00 -8.66398245E-01  2.75971074E+00  1.09270502E+00  1.64546662E+00
  1.64987487E+00  2.65438542E-01  1.64546662E+00  1.64987487E+00  2.65438542E-01
  1.64546662E+00  1.64987487E+00  2.65438542E-01  1.64546662E+00  1.64987487E+00
  2.65438542E-01  4.14206453E+00 -2.11415972E+00 -6.15994327E-01  4.14206453E+00
 -2.11415972E+00 -6.15994327E-01  4.14206453E+00 -2.11415972E+00 -6.15994327E-01
  4.14206453E+00 -2.11415972E+00 -6.15994327E-01 -5.04540423E+00 -5.22678374E-01
  1.56801002E+00 -5.04540423E+00 -5.22678374E-01  1.56801002E+00 -5.78418787E+00
 -7.16455040E-01 -1.66234568E+00 -5.78418787E+00 -7.16455040E-01 -1.66234568E+00
 -3.46229018E+00 -4.46098109E+00 -2.37224316E-01 -3.46229018E+00 -4.46098109E+00
 -2.37224316E-01 -1.67942339E+00 -2.83564181E+00 -2.53407552E+00 -1.67942339E+00
 -2.83564181E+00 -2.53407552E+00 -4.50410167E+00  3.55794416E+00 -5.46792981E-01
 -4.50410167E+00  3.55794416E+00 -5.46792981E-01 -2.31417037E+00  2.28471481E+00
 -2.69066654E+00 -2.31417037E+00  2.28471481E+00 -2.69066654E+00 -8.02067442E-01
 -2.05988846E+00  3.11659391E+00 -8.02067442E-01 -2.05988846E+00  3.11659391E+00
  6.84110505E-01 -4.47889972E+00  1.40778056E+00  6.84110505E-01 -4.47889972E+00
  1.40778056E+00 -1.36414170E+00  2.15438470E+00  3.01305084E+00 -1.36414170E+00
  2.15438470E+00  3.01305084E+00 -5.49991533E-01  4.79891921E+00  1.14610498E+00
 -5.49991533E-01  4.79891921E+00  1.14610498E+00  3.68235196E+00 -3.32189762E+00
 -2.23469537E+00  3.68235196E+00 -3.32189762E+00 -2.23469537E+00  5.05745694E+00
 -3.26698475E+00  8.38027360E-01  5.05745694E+00 -3.26698475E+00  8.38027360E-01
  5.41868296E+00 -6.17819404E-01 -1.21725495E+00  5.41868296E+00 -6.17819404E-01
 -1.21725495E+00
Constraint Structure                       R   N=          66
  3.35233603E+00  3.02413974E+00 -5.50140545E-01  1.87206427E+00 -9.29770152E-01
  3.88992417E-01 -4.21159475E+00 -4.74378248E-01 -3.33568924E-01 -2.40568347E+00
 -2.71197682E+00 -5.95806641E-01 -3.02152994E+00  2.12453379E+00 -7.47580254E-01
 -1.58985094E-01 -2.60017852E+00  1.22008410E+00 -8.66398245E-01  2.75971074E+00
  1.09270502E+00  1.64546662E+00  1.64987487E+00  2.65438542E-01  4.14206453E+00
 -2.11415972E+00 -6.15994327E-01 -5.04540423E+00 -5.22678374E-01  1.56801002E+00
 -5.78418787E+00 -7.16455040E-01 -1.66234568E+00 -3.46229018E+00 -4.46098109E+00
 -2.37224316E-01 -1.67942339E+00 -2.83564181E+00 -2.53407552E+00 -4.50410167E+00
  3.55794416E+00 -5.46792981E-01 -2.31417037E+00  2.28471481E+00 -2.69066654E+00
 -8.02067442E-01 -2.05988846E+00  3.11659391E+00  6.84110505E-01 -4.47889972E+00
  1.40778056E+00 -1.36414170E+00  2.15438470E+00  3.01305084E+00 -5.49991533E-01
  4.79891921E+00  1.14610498E+00  3.68235196E+00 -3.32189762E+00 -2.23469537E+00
  5.05745694E+00 -3.26698475E+00  8.38027360E-01  5.41868296E+00 -6.17819404E-01
 -1.21725495E+00
Num ILSW                                   I              100
ILSW                                       I   N=         100
           0           1           0           0           2           0
           0           0           0           0           0          -1
           0           0           0           0           0           0
           0           0           0           0           1           0
           1           0           0           0           0           0
           0           0      100000           0          -1           0
           0           0           0           0           0           0
           0           0           0           1           1           0
           0           0           1           0           0           0
           0           0           4          40           0           0
           0           0           0           0           0           0
           0           0           0           0           0           0
           0           0           0           0           0           0
           0           0           0           0           0           0
           0           0           0           0           0           0
           0           0           0           0           0           0
           0           0           0           0
Num RLSW                                   I               40
RLSW                                       R   N=          40
  1.00000000E+00  1.00000000E+00  1.00000000E+00  1.00000000E+00  1.00000000E+00
  0.00000000E+00  0.00000000E+00  1.00000000E+00  0.00000000E+00  0.00000000E+00
  0.00000000E+00  0.00000000E+00  1.00000000E+00  0.00000000E+00  0.00000000E+00
  0.00000000E+00  0.00000000E+00  1.00000000E+00  0.00000000E+00  0.00000000E+00
  0.00000000E+00  0.00000000E+00  1.00000000E+00  0.00000000E+00  0.00000000E+00
  0.00000000E+00  0.00000000E+00  1.00000000E+00  0.00000000E+00  0.00000000E+00
  0.00000000E+00  0.00000000E+00  0.00000000E+00  0.00000000E+00  0.00000000E+00
  0.00000000E+00  0.00000000E+00  0.00000000E+00  1.00000000E+00  1.00000000E+00
MxBond                                     I                4
NBond                                      I   N=          22
           1           3           4           4           4           4
           4           3           4           1           1           1
           1           1           1           1           1           1
           1           1           1           1
IBond                                      I   N=          88
           8           0           0           0           6           8
           9           0           4           5          10          11
           3           6          12          13           3           7
          14          15           2           4          16          17
           5           8          18          19           1           2
           7           0           2          20          21          22
           3           0           0           0           3           0
           0           0           4           0           0           0
           4           0           0           0           5           0
           0           0           5           0           0           0
           6           0           0           0           6           0
           0           0           7           0           0           0
           7           0           0           0           9           0
           0           0           9           0           0           0
           9           0           0           0
RBond                                      R   N=          88
  2.00000000E+00  0.00000000E+00  0.00000000E+00  0.00000000E+00  1.00000000E+00
  1.00000000E+00  1.00000000E+00  0.00000000E+00  1.00000000E+00  1.00000000E+00
  1.00000000E+00  1.00000000E+00  1.00000000E+00  1.00000000E+00  1.00000000E+00
  1.00000000E+00  1.00000000E+00  1.00000000E+00  1.00000000E+00  1.00000000E+00
  1.00000000E+00  1.00000000E+00  1.00000000E+00  1.00000000E+00  1.00000000E+00
  1.00000000E+00  1.00000000E+00  1.00000000E+00  2.00000000E+00  1.00000000E+00
  1.00000000E+00  0.00000000E+00  1.00000000E+00  1.00000000E+00  1.00000000E+00
  1.00000000E+00  1.00000000E+00  0.00000000E+00  0.00000000E+00  0.00000000E+00
  1.00000000E+00  0.00000000E+00  0.00000000E+00  0.00000000E+00  1.00000000E+00
  0.00000000E+00  0.00000000E+00  0.00000000E+00  1.00000000E+00  0.00000000E+00
  0.00000000E+00  0.00000000E+00  1.00000000E+00  0.00000000E+00  0.00000000E+00
  0.00000000E+00  1.00000000E+00  0.00000000E+00  0.00000000E+00  0.00000000E+00
  1.00000000E+00  0.00000000E+00  0.00000000E+00  0.00000000E+00  1.00000000E+00
  0.00000000E+00  0.00000000E+00  0.00000000E+00  1.00000000E+00  0.00000000E+00
  0.00000000E+00  0.00000000E+00  1.00000000E+00  0.00000000E+00  0.00000000E+00
  0.00000000E+00  1.00000000E+00  0.00000000E+00  0.00000000E+00  0.00000000E+00
  1.00000000E+00  0.00000000E+00  0.00000000E+00  0.00000000E+00  1.00000000E+00
  0.00000000E+00  0.00000000E+00  0.00000000E+00
Virial Ratio                               R      2.001943625529293E+00
SCF Energy                                 R     -4.019699262982805E+02
MP2 Energy                                 R     -4.032200314469319E+02
Total Energy                               R     -4.032200314469319E+02
Post-SCF wavefunction norm                 R      1.675955838663124E+00
RMS Force                                  R      2.067600405156057E-07
RMS Density                                R      1.395715462852446E-09
External E-field                           R   N=          35
  0.00000000E+00  0.00000000E+00  0.00000000E+00  0.00000000E+00  0.00000000E+00
  0.00000000E+00  0.00000000E+00  0.00000000E+00  0.00000000E+00  0.00000000E+00
  0.00000000E+00  0.00000000E+00  0.00000000E+00  0.00000000E+00  0.00000000E+00
  0.00000000E+00  0.00000000E+00  0.00000000E+00  0.00000000E+00  0.00000000E+00
  0.00000000E+00  0.00000000E+00  0.00000000E+00  0.00000000E+00  0.00000000E+00
  0.00000000E+00  0.00000000E+00  0.00000000E+00  0.00000000E+00  0.00000000E+00
  0.00000000E+00  0.00000000E+00  0.00000000E+00  0.00000000E+00  0.00000000E+00
IOpCl                                      I                0
IROHF                                      I                0
Alpha Orbital Energies                     R   N=         161
 -2.05105388E+01 -1.55835755E+01 -1.13411919E+01 -1.12724921E+01 -1.12504928E+01
 -1.12349999E+01 -1.12334063E+01 -1.12328995E+01 -1.12319555E+01 -1.35834142E+00
 -1.23879923E+00 -1.09723681E+00 -1.03739212E+00 -9.74788417E-01 -9.12865747E-01
 -8.77217274E-01 -7.91604123E-01 -7.23874175E-01 -6.88678438E-01 -6.66929026E-01
 -6.30723645E-01 -6.07287334E-01 -5.99551151E-01 -5.93410909E-01 -5.81545086E-01
 -5.57161794E-01 -5.41946260E-01 -5.25770348E-01 -5.08066635E-01 -5.06634341E-01
 -4.78036159E-01 -4.65739860E-01 -4.63730996E-01 -4.01200997E-01 -3.59557711E-01
  1.95583545E-01  2.18398068E-01  2.39299608E-01  2.52766427E-01  2.66491315E-01
  2.83113615E-01  2.96812776E-01  3.02044724E-01  3.12969931E-01  3.23704048E-01
  3.38739688E-01  3.40940673E-01  3.47606572E-01  3.54037938E-01  3.62539714E-01
  3.85764892E-01  4.08133775E-01  4.12744869E-01  4.44448663E-01  4.65705569E-01
  4.97075699E-01  5.26072715E-01  6.11138493E-01  7.04233501E-01  7.11372032E-01
  7.14843675E-01  7.36447272E-01  7.61714778E-01  7.67805059E-01  7.88243458E-01
  7.99951635E-01  8.08197694E-01  8.89323620E-01  8.98536403E-01  9.31169815E-01
  9.43780365E-01  9.59758024E-01  9.68942637E-01  9.71331857E-01  1.00706441E+00
  1.01730874E+00  1.06354426E+00  1.08290495E+00  1.09190484E+00  1.11109838E+00
  1.11714837E+00  1.13043613E+00  1.14280602E+00  1.14725830E+00  1.16243511E+00
  1.17918344E+00  1.19437195E+00  1.20320105E+00  1.20697596E+00  1.21985501E+00
  1.23488158E+00  1.24630300E+00  1.24875078E+00  1.29500348E+00  1.31656698E+00
  1.33807294E+00  1.39156835E+00  1.41109964E+00  1.43718522E+00  1.49901770E+00
  1.55656784E+00  1.63140483E+00  1.67805036E+00  1.68566977E+00  1.71346485E+00
  1.74714865E+00  1.81937712E+00  1.83303205E+00  1.91063155E+00  1.93550316E+00
  2.00441976E+00  2.03051133E+00  2.04164585E+00  2.08329898E+00  2.12121350E+00
  2.14871067E+00  2.18091617E+00  2.20983091E+00  2.21518952E+00  2.22367473E+00