10484                                                                   
Freq      RMP2-FC                                                     6-31G(d)            
Number of atoms                            I                8
Info1-9                                    I   N=           9
          20          18        1002           0           0         100
           6           2           1
Charge                                     I                0
Multiplicity                               I                1
Number of electrons                        I               40
Number of alpha electrons                  I               20
Number of beta electrons                   I               20
Number of basis functions                  I               72
Number of independent functions            I               72
Number of point charges in /Mol/           I                0
Number of translation vectors              I                0
Atomic numbers                             I   N=           8
          16           8           6           6           1           1
           1           1
Nuclear charges                            R   N=           8
  1.60000000E+01  8.00000000E+00  6.00000000E+00  6.00000000E+00  1.00000000E+00
  1.00000000E+00  1.00000000E+00  1.00000000E+00
Current cartesian coordinates              R   N=          24
  2.43019230E+00 -4.92637624E-01 -1.52639838E-04 -1.50463470E+00  2.63624894E+00
  7.32714384E-05 -2.63768490E+00 -1.78576369E+00  1.35181659E-04 -8.45066590E-01
  4.31221017E-01 -1.20775362E-04 -2.32237946E+00 -2.96059877E+00 -1.67008033E+00
 -2.32708092E+00 -2.95576096E+00  1.67465099E+00 -4.56695495E+00 -1.06310800E+00
 -3.46624976E-03  3.26692507E+00  1.89893427E+00  6.65224951E-04
Force Field                                I                0
Int Atom Types                             I   N=           8
           0           0           0           0           0           0
           0           0
MM charges                                 R   N=           8
  0.00000000E+00  0.00000000E+00  0.00000000E+00  0.00000000E+00  0.00000000E+00
  0.00000000E+00  0.00000000E+00  0.00000000E+00
Integer atomic weights                     I   N=           8
          32          16          12          12           1           1
           1           1
Real atomic weights                        R   N=           8
  3.19720718E+01  1.59949146E+01  1.20000000E+01  1.20000000E+01  1.00782504E+00
  1.00782504E+00  1.00782504E+00  1.00782504E+00
Atom fragment info                         I   N=           8
           0           0           0           0           0           0
           0           0
Atom residue num                           I   N=           8
           0           0           0           0           0           0
           0           0
Nuclear spins                              I   N=           8
           0           0           0           0           1           1
           1           1
Nuclear ZEff                               R   N=           8
 -1.36000000E+01 -5.60000000E+00 -3.60000000E+00 -3.60000000E+00 -1.00000000E+00
 -1.00000000E+00 -1.00000000E+00 -1.00000000E+00
Nuclear QMom                               R   N=           8
  0.00000000E+00  0.00000000E+00  0.00000000E+00  0.00000000E+00  0.00000000E+00
  0.00000000E+00  0.00000000E+00  0.00000000E+00
Nuclear GFac                               R   N=           8
  0.00000000E+00  0.00000000E+00  0.00000000E+00  0.00000000E+00  2.79284600E+00
  2.79284600E+00  2.79284600E+00  2.79284600E+00
MicOpt                                     I   N=           8
          -1          -1          -1          -1          -1          -1
          -1          -1
Number of contracted shells                I               25
Number of primitive shells                 I               66
Pure/Cartesian d shells                    I                1
Pure/Cartesian f shells                    I                0
Highest angular momentum                   I                2
Largest degree of contraction              I                6
Shell types                                I   N=          25
           0          -1          -1          -1           2           0
          -1          -1           2           0          -1          -1
           2           0          -1          -1           2           0
           0           0           0           0           0           0
           0
Number of primitives per shell             I   N=          25
           6           6           3           1           1           6
           3           1           1           6           3           1
           1           6           3           1           1           3
           1           3           1           3           1           3
           1
Shell to atom map                          I   N=          25
           1           1           1           1           1           2
           2           2           2           3           3           3
           3           4           4           4           4           5
           5           6           6           7           7           8
           8
Primitive exponents                        R   N=          66
  2.19171000E+04  3.30149000E+03  7.54146000E+02  2.12711000E+02  6.79896000E+01
  2.30515000E+01  4.23735000E+02  1.00710000E+02  3.21599000E+01  1.18079000E+01
  4.63110000E+00  1.87025000E+00  2.61584000E+00  9.22167000E-01  3.41287000E-01
  1.17167000E-01  6.50000000E-01  5.48467166E+03  8.25234946E+02  1.88046958E+02
  5.29645000E+01  1.68975704E+01  5.79963534E+00  1.55396162E+01  3.59993359E+00
  1.01376175E+00  2.70005823E-01  8.00000000E-01  3.04752488E+03  4.57369518E+02
  1.03948685E+02  2.92101553E+01  9.28666296E+00  3.16392696E+00  7.86827235E+00
  1.88128854E+00  5.44249258E-01  1.68714478E-01  8.00000000E-01  3.04752488E+03
  4.57369518E+02  1.03948685E+02  2.92101553E+01  9.28666296E+00  3.16392696E+00
  7.86827235E+00  1.88128854E+00  5.44249258E-01  1.68714478E-01  8.00000000E-01
  1.87311370E+01  2.82539436E+00  6.40121692E-01  1.61277759E-01  1.87311370E+01
  2.82539436E+00  6.40121692E-01  1.61277759E-01  1.87311370E+01  2.82539436E+00
  6.40121692E-01  1.61277759E-01  1.87311370E+01  2.82539436E+00  6.40121692E-01
  1.61277759E-01
Contraction coefficients                   R   N=          66
  1.86924085E-03  1.42303065E-02  6.96962317E-02  2.38487108E-01  4.83307220E-01
  3.38074154E-01 -2.37677050E-03 -3.16930067E-02 -1.13317024E-01  5.60900118E-02
  5.92255124E-01  4.55006095E-01 -2.50373114E-01  6.69567631E-02  1.05450627E+00
  1.00000000E+00  1.00000000E+00  1.83107443E-03  1.39501722E-02  6.84450781E-02
  2.32714336E-01  4.70192898E-01  3.58520853E-01 -1.10777550E-01 -1.48026263E-01
  1.13076702E+00  1.00000000E+00  1.00000000E+00  1.83473713E-03  1.40373228E-02
  6.88426223E-02  2.32184443E-01  4.67941348E-01  3.62311985E-01 -1.19332420E-01
 -1.60854152E-01  1.14345644E+00  1.00000000E+00  1.00000000E+00  1.83473713E-03
  1.40373228E-02  6.88426223E-02  2.32184443E-01  4.67941348E-01  3.62311985E-01
 -1.19332420E-01 -1.60854152E-01  1.14345644E+00  1.00000000E+00  1.00000000E+00
  3.34946043E-02  2.34726953E-01  8.13757326E-01  1.00000000E+00  3.34946043E-02
  2.34726953E-01  8.13757326E-01  1.00000000E+00  3.34946043E-02  2.34726953E-01
  8.13757326E-01  1.00000000E+00  3.34946043E-02  2.34726953E-01  8.13757326E-01
  1.00000000E+00
P(S=P) Contraction coefficients            R   N=          66
  0.00000000E+00  0.00000000E+00  0.00000000E+00  0.00000000E+00  0.00000000E+00
  0.00000000E+00  4.06100998E-03  3.06812999E-02  1.30451999E-01  3.27204999E-01
  4.52850998E-01  2.56041999E-01 -1.45104895E-02  3.10262776E-01  7.54482456E-01
  1.00000000E+00  0.00000000E+00  0.00000000E+00  0.00000000E+00  0.00000000E+00
  0.00000000E+00  0.00000000E+00  0.00000000E+00  7.08742682E-02  3.39752839E-01
  7.27158577E-01  1.00000000E+00  0.00000000E+00  0.00000000E+00  0.00000000E+00
  0.00000000E+00  0.00000000E+00  0.00000000E+00  0.00000000E+00  6.89990666E-02
  3.16423961E-01  7.44308291E-01  1.00000000E+00  0.00000000E+00  0.00000000E+00
  0.00000000E+00  0.00000000E+00  0.00000000E+00  0.00000000E+00  0.00000000E+00
  6.89990666E-02  3.16423961E-01  7.44308291E-01  1.00000000E+00  0.00000000E+00
  0.00000000E+00  0.00000000E+00  0.00000000E+00  0.00000000E+00  0.00000000E+00
  0.00000000E+00  0.00000000E+00  0.00000000E+00  0.00000000E+00  0.00000000E+00
  0.00000000E+00  0.00000000E+00  0.00000000E+00  0.00000000E+00  0.00000000E+00
  0.00000000E+00
Coordinates of each shell                  R   N=          75
  2.43019230E+00 -4.92637624E-01 -1.52639838E-04  2.43019230E+00 -4.92637624E-01
 -1.52639838E-04  2.43019230E+00 -4.92637624E-01 -1.52639838E-04  2.43019230E+00
 -4.92637624E-01 -1.52639838E-04  2.43019230E+00 -4.92637624E-01 -1.52639838E-04
 -1.50463470E+00  2.63624894E+00  7.32714384E-05 -1.50463470E+00  2.63624894E+00
  7.32714384E-05 -1.50463470E+00  2.63624894E+00  7.32714384E-05 -1.50463470E+00
  2.63624894E+00  7.32714384E-05 -2.63768490E+00 -1.78576369E+00  1.35181659E-04
 -2.63768490E+00 -1.78576369E+00  1.35181659E-04 -2.63768490E+00 -1.78576369E+00
  1.35181659E-04 -2.63768490E+00 -1.78576369E+00  1.35181659E-04 -8.45066590E-01
  4.31221017E-01 -1.20775362E-04 -8.45066590E-01  4.31221017E-01 -1.20775362E-04
 -8.45066590E-01  4.31221017E-01 -1.20775362E-04 -8.45066590E-01  4.31221017E-01
 -1.20775362E-04 -2.32237946E+00 -2.96059877E+00 -1.67008033E+00 -2.32237946E+00
 -2.96059877E+00 -1.67008033E+00 -2.32708092E+00 -2.95576096E+00  1.67465099E+00
 -2.32708092E+00 -2.95576096E+00  1.67465099E+00 -4.56695495E+00 -1.06310800E+00
 -3.46624976E-03 -4.56695495E+00 -1.06310800E+00 -3.46624976E-03  3.26692507E+00
  1.89893427E+00  6.65224951E-04  3.26692507E+00  1.89893427E+00  6.65224951E-04
Constraint Structure                       R   N=          24
  2.43019230E+00 -4.92637624E-01 -1.52639838E-04 -1.50463470E+00  2.63624894E+00
  7.32714384E-05 -2.63768490E+00 -1.78576369E+00  1.35181659E-04 -8.45066590E-01
  4.31221017E-01 -1.20775362E-04 -2.32237946E+00 -2.96059877E+00 -1.67008033E+00
 -2.32708092E+00 -2.95576096E+00  1.67465099E+00 -4.56695495E+00 -1.06310800E+00
 -3.46624976E-03  3.26692507E+00  1.89893427E+00  6.65224951E-04
Num ILSW                                   I              100
ILSW                                       I   N=         100
           0           1           0           1           2           0
           0           0           0           0           0          -1
           0           0           0           0           0           0
           0           0           0           0           1           0
           1           0           0           0           0           0
           0           0      100000           0          -1           0
           0           0           0           0           0           0
           0           0           0           1           1           0
           0           0           1           0           0           0
           0           0           4          40           0           0
           0           0           0           0           0           0
           0           0           0           0           0           0
           0           0           0           0           0           0
           0           0           0           0           0           0
           0           0           0           0           0           0
           0           0           0           0           0           0
           0           0           0           0
Num RLSW                                   I               40
RLSW                                       R   N=          40
  1.00000000E+00  1.00000000E+00  1.00000000E+00  1.00000000E+00  1.00000000E+00
  0.00000000E+00  0.00000000E+00  1.00000000E+00  0.00000000E+00  0.00000000E+00
  0.00000000E+00  0.00000000E+00  1.00000000E+00  0.00000000E+00  0.00000000E+00
  0.00000000E+00  0.00000000E+00  1.00000000E+00  0.00000000E+00  0.00000000E+00
  0.00000000E+00  0.00000000E+00  1.00000000E+00  0.00000000E+00  0.00000000E+00
  0.00000000E+00  0.00000000E+00  1.00000000E+00  0.00000000E+00  0.00000000E+00
  0.00000000E+00  0.00000000E+00  0.00000000E+00  0.00000000E+00  0.00000000E+00
  0.00000000E+00  0.00000000E+00  0.00000000E+00  1.00000000E+00  1.00000000E+00
MxBond                                     I                4
NBond                                      I   N=           8
           2           1           4           3           1           1
           1           1
IBond                                      I   N=          32
           4           8           0           0           4           0
           0           0           4           5           6           7
           1           2           3           0           3           0
           0           0           3           0           0           0
           3           0           0           0           1           0
           0           0
RBond                                      R   N=          32
  1.00000000E+00  1.00000000E+00  0.00000000E+00  0.00000000E+00  2.00000000E+00
  0.00000000E+00  0.00000000E+00  0.00000000E+00  1.00000000E+00  1.00000000E+00
  1.00000000E+00  1.00000000E+00  1.00000000E+00  2.00000000E+00  1.00000000E+00
  0.00000000E+00  1.00000000E+00  0.00000000E+00  0.00000000E+00  0.00000000E+00
  1.00000000E+00  0.00000000E+00  0.00000000E+00  0.00000000E+00  1.00000000E+00
  0.00000000E+00  0.00000000E+00  0.00000000E+00  1.00000000E+00  0.00000000E+00
  0.00000000E+00  0.00000000E+00
Virial Ratio                               R      2.001015087728177E+00
SCF Energy                                 R     -5.504359345195137E+02
MP2 Energy                                 R     -5.509937517483154E+02
Total Energy                               R     -5.509937517483154E+02
Post-SCF wavefunction norm                 R      1.545374686713040E+00
RMS Force                                  R      1.364816629172893E-06
RMS Density                                R      1.618152893956022E-09
External E-field                           R   N=          35
  0.00000000E+00  0.00000000E+00  0.00000000E+00  0.00000000E+00  0.00000000E+00
  0.00000000E+00  0.00000000E+00  0.00000000E+00  0.00000000E+00  0.00000000E+00
  0.00000000E+00  0.00000000E+00  0.00000000E+00  0.00000000E+00  0.00000000E+00
  0.00000000E+00  0.00000000E+00  0.00000000E+00  0.00000000E+00  0.00000000E+00
  0.00000000E+00  0.00000000E+00  0.00000000E+00  0.00000000E+00  0.00000000E+00
  0.00000000E+00  0.00000000E+00  0.00000000E+00  0.00000000E+00  0.00000000E+00
  0.00000000E+00  0.00000000E+00  0.00000000E+00  0.00000000E+00  0.00000000E+00
IOpCl                                      I                0
IROHF                                      I                0
Alpha Orbital Energies                     R   N=          72
 -9.19652505E+01 -2.05760742E+01 -1.13804120E+01 -1.12543957E+01 -8.97929291E+00
 -6.66216424E+00 -6.66054063E+00 -6.65854816E+00 -1.40304463E+00 -1.06086168E+00
 -9.86869074E-01 -7.56048246E-01 -6.57304646E-01 -6.39982084E-01 -6.21396628E-01
 -5.59809791E-01 -5.31247455E-01 -5.23641167E-01 -4.17121019E-01 -3.92222609E-01
  1.42116781E-01  1.52783416E-01  2.21493399E-01  2.46416727E-01  3.02937391E-01
  3.07818404E-01  3.76462399E-01  4.22777763E-01  4.87377304E-01  5.25977390E-01
  5.33542849E-01  5.71349321E-01  7.41762980E-01  7.42906713E-01  8.02684669E-01
  8.44336399E-01  9.11425978E-01  9.38272448E-01  9.52833319E-01  1.00653951E+00
  1.06224145E+00  1.08559678E+00  1.10813223E+00  1.11700142E+00  1.15259973E+00
  1.19521388E+00  1.23055865E+00  1.27365225E+00  1.31391065E+00  1.38642001E+00
  1.41769019E+00  1.53887887E+00  1.66055381E+00  1.83077531E+00  1.84781950E+00
  2.01346336E+00  2.10799045E+00  2.11050340E+00  2.14408760E+00  2.35628001E+00
  2.37357035E+00  2.49067386E+00  2.62491167E+00  2.68809277E+00  2.85964452E+00
  2.89847252E+00  3.17104449E+00  3.31188134E+00  4.28532128E+00  4.31567623E+00
  4.51950334E+00  4.77539273E+00
Alpha MO coefficients                      R   N=        5184
  9.96253998E-01  1.42600496E-02 -4.58382007E-05  6.61928519E-05  2.11728113E-08
 -1.99747555E-02  1.20886175E-04 -6.62266565E-05 -2.30638508E-08  2.66345869E-03
 -7.57003573E-05  1.97909648E-04  5.50174764E-08  6.88709259E-03  6.90489515E-03
  6.89503479E-03 -5.61256684E-06  3.99000968E-09  1.20910306E-09 -2.02755890E-05
 -8.76332776E-05  6.16365974E-07  2.45452219E-05  7.98858122E-09  5.62272251E-04
 -8.08716654E-05 -2.09444797E-04 -4.53638994E-08 -8.60391450E-05 -2.04589793E-05
 -7.46748155E-05  2.84319347E-05  5.49492610E-09  1.25555050E-08 -1.11349127E-05
 -1.31772828E-05 -9.15391383E-06  2.10154075E-06 -1.83286973E-08  2.77256780E-04
 -1.84069025E-04  7.64220629E-05  2.09934393E-08 -6.20719068E-05 -1.87985511E-06
 -3.87611665E-05 -2.39040174E-05  4.98087563E-08 -2.36079741E-08  9.08377277E-06
  7.88016013E-05  7.13313381E-05 -2.95822054E-05 -9.83475647E-09 -5.06081861E-04
  3.08174341E-04 -3.23940039E-04  1.59072248E-08 -1.38100965E-05  2.60987761E-05
  3.06970722E-06  4.89948909E-05  3.46645706E-09  1.89360745E-09  1.73549836E-05
 -1.13052602E-04  1.73705890E-05 -1.13156333E-04 -3.50804371E-05 -9.90057647E-05
  1.46260316E-04 -3.22661485E-04  5.93657389E-07  7.05275851E-07 -9.07097438E-06
  4.14657051E-06  1.17761527E-09  5.48011040E-05  5.27044593E-05 -4.87900933E-06
 -5.09494390E-09 -2.11402620E-04  1.34132065E-04 -1.65441904E-05  4.08011417E-09
 -4.35989058E-05 -2.23930728E-05 -9.68977462E-06  1.66034387E-05  1.13825883E-09
 -4.66219107E-09  9.94699875E-01  2.09347076E-02  4.71507783E-04 -1.49301296E-03
 -1.13051426E-07  4.57533319E-03 -8.05455975E-06  4.74287404E-06 -2.42045352E-08
 -3.87116774E-03 -3.60470288E-03 -4.15952920E-03 -9.13737813E-05 -5.41375912E-09
  6.10930867E-08  5.29462603E-07  1.13319301E-05  6.96251702E-06 -2.04858159E-05
 -1.31841625E-09 -1.72162534E-04 -1.36696508E-04 -5.00956251E-05  3.36669303E-09
  3.42531079E-05 -4.54547443E-05 -1.74333793E-05  1.21043759E-05 -4.00269098E-09
 -8.49083650E-09 -1.02459429E-05  4.44232951E-04  1.74850313E-05 -6.57539794E-05
 -9.99884811E-09 -1.09241185E-04  2.09603296E-04 -6.53466632E-04 -1.45136704E-08
 -1.19279650E-04 -7.42963818E-04 -4.78195986E-05  2.31304565E-04  1.72682434E-08
 -7.28475460E-08  1.25498027E-05 -1.16618114E-05  1.25564462E-05 -1.17537817E-05
  7.73621282E-06 -5.42950638E-05  2.09666724E-05 -7.64326569E-06 -4.03141401E-06
 -3.28150561E-05  3.73907272E-05  2.33910309E-05 -1.24360121E-08  2.55464046E-04
 -4.32503893E-04 -7.61470839E-05  6.76054054E-08  3.31110043E-03 -1.64056307E-03
  8.40729467E-04 -1.85161981E-08 -1.60237539E-04 -1.94046204E-04 -1.78479476E-04
  1.26858765E-04  3.72487961E-08  4.15306306E-08 -3.16894755E-04  4.71156635E-04
  5.02372036E-05 -2.71468576E-04 -3.54920560E-08 -2.14204210E-03 -3.80281116E-04
  1.26531003E-03  1.89157502E-07  4.85492566E-05  2.82194949E-05  3.13390249E-04
  7.97832999E-05  1.91143910E-08 -5.61715914E-08  2.39121993E-03  1.54152197E-04
 -3.23985702E-05 -1.01422648E-04  2.63207519E-07  3.03351428E-03  1.33373972E-03
  8.47540088E-04 -1.82437246E-06 -2.51351138E-04 -4.44925054E-04 -6.15228863E-05
 -1.92326210E-04 -1.44893964E-07  2.27041819E-07  9.95910801E-01  2.63516978E-02
  3.08473354E-04  3.78492997E-04  7.45605044E-08 -9.43117923E-03 -1.43398079E-03
  3.16150499E-03  2.70097479E-07 -1.73475148E-03 -6.57121661E-04 -2.12434628E-03
 -1.87859789E-04 -1.12544703E-07  5.84560203E-08 -1.37733254E-04  4.68975939E-05
 -1.37626298E-04  5.00279248E-05 -5.97667057E-05  1.27307279E-04 -6.16183176E-05
 -6.85537660E-04 -1.41764088E-07 -3.09186875E-05 -9.31748991E-06 -9.87094232E-06
  5.10420736E-09 -4.69553165E-05  1.04497431E-04  7.52894341E-05 -5.51765052E-08
  2.22918630E-04 -3.33826828E-04 -1.00493110E-04  2.56843457E-07 -3.54078620E-05
 -1.84585593E-05 -1.11271794E-04 -2.52249266E-06 -8.54283771E-08 -6.64093132E-08
 -3.03807614E-05 -1.95188759E-04  1.84035445E-05  4.00762986E-05 -5.86821053E-08
  6.54011366E-04  3.45518987E-04 -1.78428318E-04  2.23774433E-07 -4.49416921E-05
 -1.09819485E-05 -2.04804175E-04 -6.94480804E-05 -8.12846608E-08 -6.00917711E-08
  9.95700057E-01  2.87648567E-02  3.10690576E-04  1.36071525E-04  3.87454076E-07
 -1.56165668E-02 -9.27955457E-04 -8.24758817E-04 -7.49521360E-07 -1.89631897E-03
 -1.91280839E-03 -1.89599593E-03 -3.46681045E-05  5.01430407E-08  2.08558335E-08
 -2.70915136E-03  3.05290032E-05  7.04855762E-05 -7.49322125E-05  3.67547192E-08
  3.74353235E-03 -1.61386632E-03 -1.91919562E-03 -9.32178504E-08 -3.13101331E-04
 -4.50337904E-04 -1.60883220E-04 -2.25490068E-04  2.51383122E-08 -1.18885186E-08
  1.63033627E-04  2.53004113E-03  1.63043530E-04  2.53064203E-03  1.57381923E-04
  2.42027300E-03 -2.89755718E-05  2.67634239E-04 -2.81765680E-01  1.03017614E+00
 -1.85638341E-03  4.68433578E-03  1.50949214E-06  2.48208386E-02 -1.03128927E-03
  1.12506698E-03  3.71387313E-07 -7.19680375E-03  4.59403582E-04 -1.31928755E-03
 -4.80584937E-07 -1.09128440E-03 -1.40443637E-03 -1.76915071E-03  7.93757585E-05
  7.72187053E-08  1.57706833E-07  5.45638456E-05  1.92746416E-04 -1.09189890E-04
 -5.23547714E-05 -1.97687458E-08 -1.75550228E-03  4.18083525E-04  5.75302166E-04
  1.24406575E-07  2.27969783E-04  9.36232740E-05  1.02544003E-04 -7.81122794E-05
 -1.65190804E-08 -1.76028199E-08  1.53368278E-05 -5.35141410E-05 -5.52521026E-05
 -1.54846805E-05  3.53980026E-08 -4.99079889E-04  9.21756957E-04 -4.14523739E-04
 -1.35544054E-07  1.60981497E-04 -6.07785175E-05  6.44756464E-05  7.60024867E-05
 -2.67683215E-07  2.00729538E-07 -1.49130666E-04  3.50951375E-04  2.10299651E-05
 -2.21968409E-05 -1.13259862E-09  1.69120831E-03 -1.30249405E-03  1.35235217E-03
  6.20689105E-08 -5.33910709E-04 -1.40414626E-04 -4.07359018E-07  3.57170798E-05
 -1.98713893E-08 -1.00532277E-08 -1.04146153E-04  2.13210402E-04 -1.03882803E-04
  2.14147576E-04  1.31363182E-04  4.18004172E-04 -4.07495199E-04  1.69305446E-03
  3.24432343E-04 -1.24330867E-03  8.17494547E-01  5.63380481E-01  2.38992724E-04
  6.32567682E-04  2.02941367E-02  1.32923045E-02  5.57355561E-06 -3.27168868E-03
 -4.60663572E-03 -4.83028909E-03 -1.89785577E-06 -1.34614492E-03  5.88489996E-04
 -2.11736828E-04  4.58569176E-04  1.36327067E-07  2.74642845E-07 -1.72612940E-04
 -7.47582884E-04  3.69959230E-05  9.28541515E-05  7.29418815E-08  4.69564997E-03
  3.11553976E-05 -9.88746885E-04 -4.23108161E-07 -4.73885951E-04 -4.96298374E-04
 -4.83288748E-04  1.11969168E-05 -4.04580838E-09  5.12025503E-08  4.26363549E-05
  4.14466243E-04 -3.23303302E-05 -7.27450266E-05  2.66708246E-08 -2.33034609E-03
 -2.90019664E-03 -1.19679530E-04 -6.64428491E-07 -3.14537343E-04  1.96865565E-04
 -6.88518973E-05 -1.77885568E-04  4.92109135E-07 -3.13577747E-07 -2.09850743E-05
 -1.07970823E-03  1.46994522E-04  4.69002614E-05 -5.28789688E-08  2.17213849E-03
  2.29180822E-03 -4.59547956E-03  5.06824464E-07  5.14421723E-04  6.47727790E-05
 -2.88938618E-04 -2.74863885E-04 -1.32065606E-07 -2.94539646E-08  3.23651254E-04
 -4.37660586E-04  3.23053575E-04 -4.36888106E-04 -1.62324521E-04 -7.12105351E-04
 -1.12619661E-03  2.98188627E-03  1.65164663E-03 -6.33749391E-03 -5.63416343E-01
  8.17892223E-01  2.32959454E-04  3.99545615E-03 -1.34254789E-02  1.86114825E-02
  5.26998287E-06  1.65532830E-03  1.84734327E-03 -3.79710270E-03 -1.63132554E-06
 -5.46715314E-04 -5.19490646E-04 -1.61010250E-03 -7.08331868E-04 -1.97487170E-08
  3.28077515E-07 -1.01472968E-04 -5.27472191E-04 -2.08941543E-04 -6.54041146E-05
 -3.84232850E-09  2.49752095E-03  2.02395484E-03 -2.03384130E-04 -1.50267342E-07
 -5.06365981E-05 -3.59905653E-04 -3.28259225E-04 -3.59455429E-04 -5.90216413E-08
  1.94719658E-08  7.13630256E-05  2.85739371E-04  3.32354054E-05 -5.73817037E-05
  3.71672093E-07 -3.61144816E-03 -7.40665000E-04 -1.72521850E-03 -2.34668840E-06
  1.79881770E-04 -3.96759503E-05  1.40047130E-04  4.51533511E-05 -1.55190623E-07
  2.19313329E-07 -1.64354841E-04  3.40339837E-04  6.15433647E-05 -1.49903169E-05
 -7.60615805E-08 -1.98408963E-05 -4.98254252E-03 -2.27999545E-03  7.87507687E-07
 -7.26998002E-04 -2.05894762E-04  6.59589860E-05 -5.09744933E-05 -2.22768082E-07
 -7.72640225E-08  1.42550971E-04 -2.16229875E-04  1.42407731E-04 -2.10747230E-04
  1.62099821E-04  4.04068406E-05 -6.38365106E-04  6.54903063E-04  3.26184648E-08
 -8.45034212E-08 -6.46878266E-05 -3.27632016E-04  9.93823187E-01  1.73404790E-07
 -1.54925320E-06 -6.82302298E-06  2.05280075E-02  2.00417226E-07  2.47283681E-07
  1.45611587E-06 -4.90934088E-03  1.21646027E-07 -2.73369738E-07  2.39495000E-07
  1.13762932E-07 -1.75467152E-04  3.62422858E-04  9.16030522E-08  4.19212206E-07
  4.68868387E-08  1.52841634E-08 -4.57767241E-05 -2.72180563E-06 -4.55594747E-07
  5.01107698E-07  1.73516752E-04  2.25448795E-07  2.35541796E-07  2.53002910E-07
  5.96333613E-08  6.23696441E-05  7.53727121E-06 -3.67218658E-08 -2.39929049E-07
 -2.63503345E-07  2.78137657E-07  4.66166250E-06  1.79910091E-06  2.82628532E-06
 -1.45582855E-06 -1.52853397E-04 -6.84198675E-08 -1.05073909E-07  1.56366674E-07
  8.62770667E-08  4.58255178E-05 -1.46289903E-05  7.00430893E-08  2.50998916E-07
  2.49986381E-08 -2.98860179E-08 -1.22224041E-04 -4.68767037E-07 -3.78061039E-07
  2.64210116E-06  2.25546503E-04  1.83853431E-07  8.47430020E-08  9.85046615E-08
  3.55486724E-08 -2.66052874E-04  6.10871194E-05  9.73846162E-05 -4.72829151E-04
 -9.80201279E-05  4.71498743E-04  1.60190051E-07  1.47205069E-06  2.89031255E-08
 -6.09770105E-08  5.03045657E-03 -2.33929530E-02  1.07067765E-02 -6.40522455E-03
 -6.85039583E-07  3.82617231E-02 -2.33332703E-02  1.47013382E-02  1.33108187E-06
 -6.70466018E-04  6.64692057E-03  1.47195648E-03  1.06876436E-06  9.44728082E-03
  2.19315770E-03 -1.99562021E-03 -6.35357958E-03 -3.96380241E-07  8.15061154E-07
 -1.93852885E-01  4.27899655E-01  3.90177468E-02 -1.29554727E-01 -1.03514850E-05
  3.91938426E-01  1.56830481E-02 -5.14805601E-02 -4.10143579E-06 -7.29065186E-04
  1.63827383E-02 -2.62852094E-03 -6.79969744E-03 -3.34375715E-07  1.78435065E-06
 -1.69368488E-02  3.17055789E-02  1.19388340E-02  2.31455451E-02 -1.20885204E-06
  1.07670491E-02 -6.67511978E-03  6.21593055E-03  2.26065018E-06  1.46881020E-03
  5.94839302E-03 -5.34533250E-04  3.89688314E-03  1.75806321E-06 -2.49323178E-06
 -1.14525135E-01  2.20779645E-01 -4.89297700E-02  1.65215180E-01  1.69478417E-05
  7.45273749E-02  1.34718861E-02 -2.51884035E-02 -1.82154090E-06 -1.11841932E-02
  2.77805866E-02 -1.72270251E-02 -1.45089445E-02 -1.42965399E-06  4.52413974E-06
  5.37263476E-03  1.22344906E-03  5.37477366E-03  1.21738876E-03  7.82940759E-03
 -1.75351634E-03  7.32280887E-03  2.09808919E-03  4.04982039E-02 -1.87137432E-01
  3.25580374E-02 -1.81277674E-02 -5.81030970E-06  3.62889286E-01 -7.38042981E-02
  4.27245945E-02  1.42934511E-05  1.16758299E-01  5.22051972E-03  9.09790803E-04
 -4.26654856E-07  2.62261860E-02  8.08621243E-03 -9.06162403E-03 -7.64522428E-04
  1.69428890E-06  6.75376978E-06  6.34381915E-02 -1.45854763E-01  4.37449798E-03
 -1.58917666E-02  4.18175198E-06 -1.48711732E-01  3.22402435E-04 -1.06898532E-02
 -1.14894851E-06 -1.95592708E-03 -1.37809327E-03 -5.23278353E-04 -1.38107977E-04
  2.31340933E-07 -4.02817329E-07 -1.26641154E-01  2.34001282E-01  4.56841200E-02
  2.77123873E-02  4.50085059E-06  2.21174122E-01  9.21766175E-03  2.48256052E-03
  1.22530108E-05  7.09336278E-03  5.75634134E-03  4.62990406E-03  2.94234693E-03
 -2.73323984E-06  2.39503591E-06 -8.67987717E-02  1.78150599E-01  3.69844738E-02
 -1.70831570E-01  2.74774113E-06  1.38819451E-01  2.91077599E-02 -4.70322561E-02
  2.27104333E-06  1.80409276E-02 -9.29104615E-04 -6.39846373E-03  8.57890882E-03
 -8.55024147E-07 -2.03228135E-06  7.77478721E-02  1.17352011E-02  7.77306376E-02
  1.17161268E-02  6.63039347E-02  9.82150141E-03  6.63967194E-02  1.78091284E-02
  5.09331408E-02 -2.35774862E-01  9.15666659E-03 -3.54789235E-02 -8.37969089E-06
  4.63739655E-01 -2.13753729E-02  8.44402390E-02  1.92908769E-05  1.86844924E-01
 -2.33390261E-03  7.27388059E-03  4.46592970E-06  1.37375445E-02  2.34822764E-02
 -9.29297279E-03  2.26444658E-03  3.76087786E-06  1.22987268E-05  1.49418839E-03
 -3.38965249E-03  5.40696251E-02  1.62134634E-02 -2.80047811E-06 -5.91439769E-03
  2.16599169E-02  6.80874093E-03  5.93885778E-07  3.36834916E-03 -2.81030049E-03
 -2.97906705E-04 -5.18245462E-03 -4.31942476E-07  5.82115298E-08  1.31105358E-01
 -2.44093517E-01  7.18219413E-03 -1.00062874E-02 -1.52372011E-05 -2.58313913E-01
 -4.24227197E-03 -8.72439259E-04 -1.12266348E-06 -5.14262861E-03 -5.85272735E-03
 -7.13268244E-03  2.79975442E-03 -3.51209037E-06  1.90973488E-06  4.18553920E-03
 -1.19555391E-02  1.66811100E-01  5.94652028E-02 -9.51492435E-06  1.42048419E-02
  3.72257644E-02  5.05960462E-03 -3.67644093E-06  9.86215338E-03 -8.06317459E-03
  5.63999667E-04 -1.24435393E-02  1.21687298E-06  1.35267370E-06 -8.55684222E-02
 -2.02546449E-02 -8.55962035E-02 -2.02746471E-02 -9.30839511E-02 -2.19027904E-02
  1.11367194E-01  3.92743524E-02 -2.00276856E-02  9.39312087E-02  7.87059756E-02
  2.16959459E-02  1.25385986E-05 -1.90932355E-01 -1.94253183E-01 -5.34790231E-02
 -3.15126625E-05 -1.42747846E-01 -8.81932900E-03 -6.99118685E-03 -3.28490988E-06
  3.22443247E-02 -3.31968650E-02 -1.33826215E-03 -2.63545655E-02 -5.14985477E-06
 -1.35252511E-05  7.56381000E-02 -1.75565078E-01  5.75827484E-02 -2.45176981E-01
 -2.35779699E-05 -2.60138961E-01  2.88364751E-02 -1.30586467E-01 -1.45735972E-05
 -5.26297713E-03  1.47280426E-02 -3.60513149E-03 -6.63967510E-03 -7.33260836E-07
  1.93365853E-06  5.74254035E-02 -1.04417879E-01  1.42335705E-01  1.62051643E-01
 -2.69797661E-05 -1.61810912E-01  4.18479968E-02  6.09006763E-02 -1.42364565E-05
  5.14829159E-05  5.22032688E-03 -1.30013978E-02  1.94209065E-02 -3.19693889E-06
 -3.16771115E-06 -1.32390994E-01  2.87057673E-01 -1.32982257E-02 -3.30853135E-02