
    -----------------------------------------------------------------------
          Psi4: An Open-Source Ab Initio Electronic Structure Package
                               Psi4 1.3.2 release

                         Git: Rev {HEAD} ecbda83 


    R. M. Parrish, L. A. Burns, D. G. A. Smith, A. C. Simmonett,
    A. E. DePrince III, E. G. Hohenstein, U. Bozkaya, A. Yu. Sokolov,
    R. Di Remigio, R. M. Richard, J. F. Gonthier, A. M. James,
    H. R. McAlexander, A. Kumar, M. Saitow, X. Wang, B. P. Pritchard,
    P. Verma, H. F. Schaefer III, K. Patkowski, R. A. King, E. F. Valeev,
    F. A. Evangelista, J. M. Turney, T. D. Crawford, and C. D. Sherrill,
    J. Chem. Theory Comput. 13(7) pp 3185--3197 (2017).
    (doi: 10.1021/acs.jctc.7b00174)


                         Additional Contributions by
    P. Kraus, H. Kruse, M. H. Lechner, M. C. Schieber, R. A. Shaw,
    A. Alenaizan, R. Galvelis, Z. L. Glick, S. Lehtola, and J. P. Misiewicz

    -----------------------------------------------------------------------


    Psi4 started on: Tuesday, 02 February 2021 03:31AM

    Process ID: 1742096
    Host:       node58.bme.utexas.edu
    PSIDATADIR: /home/xy3866/psi4conda/share/psi4
    Memory:     500.0 MiB
    Threads:    8
    
  ==> Input File <==

--------------------------------------------------------------------------
#psi4
#
memory 32 gb

molecule  {
0 1
  O        0.6831730     1.9514370    -0.1851230
  N        0.3221270    -0.3206750    -0.2979720
  C        1.7580560    -0.4955670    -0.5492050
  C       -0.1211040     1.0090560    -0.1118080
  C       -0.4973450    -1.4105120    -0.1972350
  C        2.5603930    -0.4317450     0.7423750
  C       -1.5372540     1.1223260     0.1526570
  C       -1.8319680    -1.2780450     0.0712850
  C       -2.4289428     0.2122840     0.2738286
  H        1.8855710    -1.4559800    -1.0561060
  H        2.0595230     0.3051280    -1.2266110
  H       -0.0197130    -2.3738180    -0.3527730
  H        2.4186300     0.5432120     1.2108420
  H        2.2423160    -1.2153800     1.4354410
  H        3.6255180    -0.5665000     0.5315230
  H       -1.9126600     2.1320090     0.2855670
  H       -2.4591310    -2.1595270     0.1391440
  H       -3.4140320     0.1624990     0.4585800
units angstrom
no_reorient  #important for SAPT in psi4, default
symmetry c1  #important for SAPT in psi4, default
}

set PROPERTIES_ORIGIN ["COM"]
properties('MP2/aug-cc-pvtz', properties = ['dipole'])
--------------------------------------------------------------------------

  Memory set to  29.802 GiB by Python driver.
    SCF Algorithm Type (re)set to DF.

*** tstart() called on node58.bme.utexas.edu
*** at Tue Feb  2 03:31:57 2021

   => Loading Basis Set <=

    Name: AUG-CC-PVTZ
    Role: ORBITAL
    Keyword: BASIS
    atoms 1     entry O          line   327 file /home/xy3866/psi4conda/share/psi4/basis/aug-cc-pvtz.gbs 
    atoms 2     entry N          line   281 file /home/xy3866/psi4conda/share/psi4/basis/aug-cc-pvtz.gbs 
    atoms 3-9   entry C          line   235 file /home/xy3866/psi4conda/share/psi4/basis/aug-cc-pvtz.gbs 
    atoms 10-18 entry H          line    36 file /home/xy3866/psi4conda/share/psi4/basis/aug-cc-pvtz.gbs 


         ---------------------------------------------------------
                                   SCF
               by Justin Turney, Rob Parrish, Andy Simmonett
                          and Daniel G. A. Smith
                              RHF Reference
                        8 Threads,  30517 MiB Core
         ---------------------------------------------------------

  ==> Geometry <==

    Molecular point group: c1
    Full point group: C1

    Geometry (in Angstrom), charge = 0, multiplicity = 1:

       Center              X                  Y                   Z               Mass       
    ------------   -----------------  -----------------  -----------------  -----------------
         O            0.726069951720     1.896251252614    -0.176070986651    15.994914619570
         N            0.365023951720    -0.375860747386    -0.288919986651    14.003074004430
         C            1.800952951720    -0.550752747386    -0.540152986651    12.000000000000
         C           -0.078207048280     0.953870252614    -0.102755986651    12.000000000000
         C           -0.454448048280    -1.465697747386    -0.188182986651    12.000000000000
         C            2.603289951720    -0.486930747386     0.751427013349    12.000000000000
         C           -1.494357048280     1.067140252614     0.161709013349    12.000000000000
         C           -1.789071048280    -1.333230747386     0.080337013349    12.000000000000
         C           -2.386045848280     0.157098252614     0.282880613349    12.000000000000
         H            1.928467951720    -1.511165747386    -1.047053986651     1.007825032230
         H            2.102419951720     0.249942252614    -1.217558986651     1.007825032230
         H            0.023183951720    -2.429003747386    -0.343720986651     1.007825032230
         H            2.461526951720     0.488026252614     1.219894013349     1.007825032230
         H            2.285212951720    -1.270565747386     1.444493013349     1.007825032230
         H            3.668414951720    -0.621685747386     0.540575013349     1.007825032230
         H           -1.869763048280     2.076823252614     0.294619013349     1.007825032230
         H           -2.416234048280    -2.214712747386     0.148196013349     1.007825032230
         H           -3.371135048280     0.107313252614     0.467632013349     1.007825032230

  Running in c1 symmetry.

  Rotational constants: A =      0.09438  B =      0.04938  C =      0.03523 [cm^-1]
  Rotational constants: A =   2829.50095  B =   1480.28116  C =   1056.24224 [MHz]
  Nuclear repulsion =  435.918153191060696

  Charge       = 0
  Multiplicity = 1
  Electrons    = 66
  Nalpha       = 33
  Nbeta        = 33

  ==> Algorithm <==

  SCF Algorithm Type is DF.
  DIIS enabled.
  MOM disabled.
  Fractional occupation disabled.
  Guess Type is SAD.
  Energy threshold   = 1.00e-10
  Density threshold  = 1.00e-10
  Integral threshold = 0.00e+00

  ==> Primary Basis <==

  Basis Set: AUG-CC-PVTZ
    Blend: AUG-CC-PVTZ
    Number of shells: 207
    Number of basis function: 621
    Number of Cartesian functions: 720
    Spherical Harmonics?: true
    Max angular momentum: 3

   => Loading Basis Set <=

    Name: (AUG-CC-PVTZ AUX)
    Role: JKFIT
    Keyword: DF_BASIS_SCF
    atoms 1     entry O          line   286 file /home/xy3866/psi4conda/share/psi4/basis/aug-cc-pvtz-jkfit.gbs 
    atoms 2     entry N          line   224 file /home/xy3866/psi4conda/share/psi4/basis/aug-cc-pvtz-jkfit.gbs 
    atoms 3-9   entry C          line   162 file /home/xy3866/psi4conda/share/psi4/basis/aug-cc-pvtz-jkfit.gbs 
    atoms 10-18 entry H          line    70 file /home/xy3866/psi4conda/share/psi4/basis/aug-cc-pvtz-jkfit.gbs 

  ==> Pre-Iterations <==

   -------------------------------------------------------
    Irrep   Nso     Nmo     Nalpha   Nbeta   Ndocc  Nsocc
   -------------------------------------------------------
     A        621     621       0       0       0       0
   -------------------------------------------------------
    Total     621     621      33      33      33       0
   -------------------------------------------------------

  ==> Integral Setup <==

  DFHelper Memory: AOs need 3.843 GiB; user supplied 22.352 GiB. Using in-core AOs.

  ==> MemDFJK: Density-Fitted J/K Matrices <==

    J tasked:                   Yes
    K tasked:                   Yes
    wK tasked:                   No
    OpenMP threads:               8
    Memory [MiB]:             22888
    Algorithm:                 Disk
    Schwarz Cutoff:           1E-12
    Mask sparsity (%):       3.8606
    Fitting Condition:        1E-10

   => Auxiliary Basis Set <=

  Basis Set: (AUG-CC-PVTZ AUX)
    Blend: AUG-CC-PVTZ-JKFIT
    Number of shells: 396
    Number of basis function: 1350
    Number of Cartesian functions: 1674
    Spherical Harmonics?: true
    Max angular momentum: 4

  Minimum eigenvalue in the overlap matrix is 1.2752150312E-06.
  Using Symmetric Orthogonalization.

  SCF Guess: Superposition of Atomic Densities via on-the-fly atomic UHF.

  ==> Iterations <==

                           Total Energy        Delta E     RMS |[F,P]|

   @DF-RHF iter SAD:  -399.03563996043090   -3.99036e+02   0.00000e+00 
   @DF-RHF iter   1:  -399.46768871680064   -4.32049e-01   1.12378e-03 DIIS
   @DF-RHF iter   2:  -399.67927921283183   -2.11590e-01   5.91044e-04 DIIS
   @DF-RHF iter   3:  -399.72993210426671   -5.06529e-02   1.40672e-04 DIIS
   @DF-RHF iter   4:  -399.73416712357471   -4.23502e-03   6.41694e-05 DIIS
   @DF-RHF iter   5:  -399.73512719360366   -9.60070e-04   1.19909e-05 DIIS
   @DF-RHF iter   6:  -399.73524414950782   -1.16956e-04   7.00825e-06 DIIS
   @DF-RHF iter   7:  -399.73527545255075   -3.13030e-05   3.04041e-06 DIIS
   @DF-RHF iter   8:  -399.73528329949085   -7.84694e-06   1.12793e-06 DIIS
   @DF-RHF iter   9:  -399.73528413427994   -8.34789e-07   3.33205e-07 DIIS
   @DF-RHF iter  10:  -399.73528418825742   -5.39775e-08   1.20627e-07 DIIS
   @DF-RHF iter  11:  -399.73528419514656   -6.88914e-09   4.71860e-08 DIIS
   @DF-RHF iter  12:  -399.73528419618617   -1.03961e-09   1.53741e-08 DIIS
   @DF-RHF iter  13:  -399.73528419630702   -1.20849e-10   4.92949e-09 DIIS
   @DF-RHF iter  14:  -399.73528419632146   -1.44382e-11   1.86147e-09 DIIS
   @DF-RHF iter  15:  -399.73528419632333   -1.87583e-12   6.41086e-10 DIIS
   @DF-RHF iter  16:  -399.73528419632351   -1.70530e-13   2.24185e-10 DIIS
   @DF-RHF iter  17:  -399.73528419632163    1.87583e-12   1.20461e-10 DIIS
   @DF-RHF iter  18:  -399.73528419632373   -2.10321e-12   4.75727e-11 DIIS
  Energy and wave function converged.


  ==> Post-Iterations <==

    Orbital Energies [Eh]
    ---------------------

    Doubly Occupied:                                                      

       1A    -20.519756     2A    -15.615517     3A    -11.360978  
       4A    -11.297268     5A    -11.270932     6A    -11.268672  
       7A    -11.246057     8A    -11.236598     9A    -11.219308  
      10A     -1.375708    11A     -1.274908    12A     -1.115879  
      13A     -1.038957    14A     -1.006578    15A     -0.897484  
      16A     -0.860531    17A     -0.830730    18A     -0.714361  
      19A     -0.703072    20A     -0.675672    21A     -0.640318  
      22A     -0.622077    23A     -0.610162    24A     -0.600776  
      25A     -0.576243    26A     -0.533386    27A     -0.526565  
      28A     -0.504284    29A     -0.485506    30A     -0.469590  
      31A     -0.429545    32A     -0.416152    33A     -0.314412  

    Virtual:                                                              

      34A      0.024245    35A      0.029005    36A      0.037354  
      37A      0.040987    38A      0.046811    39A      0.050829  
      40A      0.060183    41A      0.065806    42A      0.070477  
      43A      0.080747    44A      0.085368    45A      0.094339  
      46A      0.101627    47A      0.111173    48A      0.111972  
      49A      0.114563    50A      0.115636    51A      0.123976  
      52A      0.125309    53A      0.130765    54A      0.132021  
      55A      0.138093    56A      0.140805    57A      0.143057  
      58A      0.146640    59A      0.149716    60A      0.156166  
      61A      0.158823    62A      0.166707    63A      0.169311  
      64A      0.170138    65A      0.174129    66A      0.178467  
      67A      0.210278    68A      0.216828    69A      0.219392  
      70A      0.231938    71A      0.236281    72A      0.243898  
      73A      0.247571    74A      0.256551    75A      0.258796  
      76A      0.265679    77A      0.269016    78A      0.276661  
      79A      0.283670    80A      0.287475    81A      0.290887  
      82A      0.299753    83A      0.303916    84A      0.306010  
      85A      0.312820    86A      0.317489    87A      0.320150  
      88A      0.320538    89A      0.323253    90A      0.336701  
      91A      0.338360    92A      0.342705    93A      0.347701  
      94A      0.353153    95A      0.358186    96A      0.363355  
      97A      0.372274    98A      0.375002    99A      0.381556  
     100A      0.386170   101A      0.395716   102A      0.402448  
     103A      0.407533   104A      0.410135   105A      0.412405  
     106A      0.416595   107A      0.428928   108A      0.430515  
     109A      0.433263   110A      0.441846   111A      0.444247  
     112A      0.449535   113A      0.452963   114A      0.457529  
     115A      0.460938   116A      0.465643   117A      0.471602  
     118A      0.477850   119A      0.481372   120A      0.493139  
     121A      0.495474   122A      0.502690   123A      0.505881  
     124A      0.508070   125A      0.509803   126A      0.516691  
     127A      0.519090   128A      0.523807   129A      0.526837  
     130A      0.534441   131A      0.538905   132A      0.541876  
     133A      0.548342   134A      0.553102   135A      0.560216  
     136A      0.570102   137A      0.574993   138A      0.581815  
     139A      0.591867   140A      0.599825   141A      0.600624  
     142A      0.605791   143A      0.611233   144A      0.628053  
     145A      0.635790   146A      0.637915   147A      0.640132  
     148A      0.650156   149A      0.651900   150A      0.659914  
     151A      0.685486   152A      0.688701   153A      0.698712  
     154A      0.702797   155A      0.716626   156A      0.717371  
     157A      0.726735   158A      0.732408   159A      0.742318  
     160A      0.750963   161A      0.756431   162A      0.762867  
     163A      0.767171   164A      0.778871   165A      0.784739  
     166A      0.802072   167A      0.804664   168A      0.806843  
     169A      0.817269   170A      0.822299   171A      0.826844  
     172A      0.836485   173A      0.843788   174A      0.848505  
     175A      0.850894   176A      0.857916   177A      0.867017  
     178A      0.874677   179A      0.877143   180A      0.889672  
     181A      0.893689   182A      0.899474   183A      0.904739  
     184A      0.911476   185A      0.918558   186A      0.927667  
     187A      0.932788   188A      0.936267   189A      0.946240  
     190A      0.957812   191A      0.967864   192A      0.970502  
     193A      0.975510   194A      0.979526   195A      0.982790  
     196A      0.992829   197A      0.995886   198A      1.001091  
     199A      1.015310   200A      1.018779   201A      1.025574  
     202A      1.027206   203A      1.032858   204A      1.047119  
     205A      1.049547   206A      1.059245   207A      1.063908  
     208A      1.067678   209A      1.078168   210A      1.082081  
     211A      1.084350   212A      1.094794   213A      1.102690  
     214A      1.105729   215A      1.112855   216A      1.119428  
     217A      1.120369   218A      1.131430   219A      1.139524  
     220A      1.148363   221A      1.157164   222A      1.160095  
     223A      1.167761   224A      1.172147   225A      1.179699  
     226A      1.190173   227A      1.192105   228A      1.192725  
     229A      1.203800   230A      1.206787   231A      1.217117  
     232A      1.223783   233A      1.225631   234A      1.229268  
     235A      1.237898   236A      1.244643   237A      1.253092  
     238A      1.266229   239A      1.274301   240A      1.289425  
     241A      1.297665   242A      1.307687   243A      1.312323  
     244A      1.320573   245A      1.336211   246A      1.344155  
     247A      1.353001   248A      1.356975   249A      1.362726  
     250A      1.377737   251A      1.380887   252A      1.398456  
     253A      1.400657   254A      1.407353   255A      1.416362  
     256A      1.422512   257A      1.425294   258A      1.441089  
     259A      1.449618   260A      1.457414   261A      1.469210  
     262A      1.485914   263A      1.491982   264A      1.504459  
     265A      1.509226   266A      1.521972   267A      1.527840  
     268A      1.532496   269A      1.537159   270A      1.554810  
     271A      1.565373   272A      1.577290   273A      1.585920  
     274A      1.598549   275A      1.606226   276A      1.616490  
     277A      1.626188   278A      1.635303   279A      1.646539  
     280A      1.658246   281A      1.661134   282A      1.666476  
     283A      1.677665   284A      1.681758   285A      1.688278  
     286A      1.694579   287A      1.701998   288A      1.718168  
     289A      1.723928   290A      1.732078   291A      1.735632  
     292A      1.748719   293A      1.751312   294A      1.759654  
     295A      1.774445   296A      1.789421   297A      1.793653  
     298A      1.804958   299A      1.817787   300A      1.824466  
     301A      1.833799   302A      1.842323   303A      1.847768  
     304A      1.866237   305A      1.870800   306A      1.873176  
     307A      1.888123   308A      1.892111   309A      1.896923  
     310A      1.919972   311A      1.925628   312A      1.928953  
     313A      1.939862   314A      1.961625   315A      1.967898  
     316A      1.987380   317A      1.990631   318A      2.004481  
     319A      2.018397   320A      2.019245   321A      2.034737  
     322A      2.040945   323A      2.047968   324A      2.053888  
     325A      2.060632   326A      2.067328   327A      2.083931  
     328A      2.096333   329A      2.108238   330A      2.130776  
     331A      2.137416   332A      2.151142   333A      2.159561  
     334A      2.173444   335A      2.188670   336A      2.198304  
     337A      2.215976   338A      2.229696   339A      2.235082  
     340A      2.249642   341A      2.260868   342A      2.268906  
     343A      2.276314   344A      2.299571   345A      2.303312  
     346A      2.309258   347A      2.322490   348A      2.327297  
     349A      2.338920   350A      2.362564   351A      2.369449  
     352A      2.385899   353A      2.401899   354A      2.413970  
     355A      2.417041   356A      2.442792   357A      2.453883  
     358A      2.458732   359A      2.490572   360A      2.510401  
     361A      2.528080   362A      2.536710   363A      2.547819  
     364A      2.559118   365A      2.584729   366A      2.605773  
     367A      2.630021   368A      2.648507   369A      2.656348  
     370A      2.675214   371A      2.691988   372A      2.720167  
     373A      2.731983   374A      2.743529   375A      2.770873  
     376A      2.782163   377A      2.802830   378A      2.809186  
     379A      2.847401   380A      2.866026   381A      2.888628  
     382A      2.897958   383A      2.928772   384A      2.948325  
     385A      2.994565   386A      2.997576   387A      3.036467  
     388A      3.060784   389A      3.077242   390A      3.126067  
     391A      3.137636   392A      3.146183   393A      3.187732  
     394A      3.226419   395A      3.235891   396A      3.260593  
     397A      3.279967   398A      3.294304   399A      3.306483  
     400A      3.343383   401A      3.357454   402A      3.368892  
     403A      3.402629   404A      3.413326   405A      3.418262  
     406A      3.441295   407A      3.460239   408A      3.463982  
     409A      3.468960   410A      3.489691   411A      3.506510  
     412A      3.514224   413A      3.522516   414A      3.530295  
     415A      3.554206   416A      3.564001   417A      3.569231  
     418A      3.582391   419A      3.587775   420A      3.613502  
     421A      3.629194   422A      3.630584   423A      3.643579  
     424A      3.648017   425A      3.661260   426A      3.668430  
     427A      3.689232   428A      3.714344   429A      3.731579  
     430A      3.739339   431A      3.759352   432A      3.766964  
     433A      3.767293   434A      3.781847   435A      3.788027  
     436A      3.797143   437A      3.807715   438A      3.832314  
     439A      3.848075   440A      3.857387   441A      3.864431  
     442A      3.870429   443A      3.892690   444A      3.902498  
     445A      3.905590   446A      3.921133   447A      3.945559  
     448A      3.961651   449A      3.970422   450A      3.980823  
     451A      3.986154   452A      3.998575   453A      4.003576  
     454A      4.010084   455A      4.023600   456A      4.039491  
     457A      4.055843   458A      4.061064   459A      4.072520  
     460A      4.076260   461A      4.086157   462A      4.100745  
     463A      4.107568   464A      4.119040   465A      4.126242  
     466A      4.141579   467A      4.151734   468A      4.167001  
     469A      4.190094   470A      4.200527   471A      4.229319  
     472A      4.231148   473A      4.243878   474A      4.245330  
     475A      4.265543   476A      4.273264   477A      4.285637  
     478A      4.292616   479A      4.300845   480A      4.314160  
     481A      4.327867   482A      4.338600   483A      4.349610  
     484A      4.354828   485A      4.375851   486A      4.387762  
     487A      4.408063   488A      4.416247   489A      4.423146  
     490A      4.451517   491A      4.468710   492A      4.493778  
     493A      4.501249   494A      4.520713   495A      4.525950  
     496A      4.535404   497A      4.554185   498A      4.565416  
     499A      4.618520   500A      4.632628   501A      4.654191  
     502A      4.664917   503A      4.692295   504A      4.711676  
     505A      4.718568   506A      4.757573   507A      4.760840  
     508A      4.776903   509A      4.805237   510A      4.837174  
     511A      4.861850   512A      4.872978   513A      4.884242  
     514A      4.890162   515A      4.900686   516A      4.912200  
     517A      4.923800   518A      4.939908   519A      4.961456  
     520A      4.988016   521A      4.995086   522A      5.005878  
     523A      5.027428   524A      5.044623   525A      5.055651  
     526A      5.071501   527A      5.107783   528A      5.108633  
     529A      5.123834   530A      5.135808   531A      5.150188  
     532A      5.154474   533A      5.187900   534A      5.208312  
     535A      5.223670   536A      5.231000   537A      5.238310  
     538A      5.257515   539A      5.273033   540A      5.299378  
     541A      5.301701   542A      5.332030   543A      5.373989  
     544A      5.384774   545A      5.393285   546A      5.412286  
     547A      5.417869   548A      5.432987   549A      5.460822  
     550A      5.465444   551A      5.483036   552A      5.517286  
     553A      5.547728   554A      5.574543   555A      5.603620  
     556A      5.646439   557A      5.654828   558A      5.672290  
     559A      5.715781   560A      5.727683   561A      5.739667  
     562A      5.758737   563A      5.782418   564A      5.804553  
     565A      5.829804   566A      5.873611   567A      5.887886  
     568A      5.903847   569A      5.931270   570A      5.947138  
     571A      5.979079   572A      5.993642   573A      6.002817  
     574A      6.043347   575A      6.072304   576A      6.141445  
     577A      6.193973   578A      6.209341   579A      6.235272  
     580A      6.251688   581A      6.258662   582A      6.309856  
     583A      6.347302   584A      6.378539   585A      6.419061  
     586A      6.427348   587A      6.533559   588A      6.663148  
     589A      6.696630   590A      6.738229   591A      6.772677  
     592A      6.803310   593A      6.813232   594A      6.840177  
     595A      6.868509   596A      6.905864   597A      6.946031  
     598A      6.992369   599A      7.032820   600A      7.053462  
     601A      7.084124   602A      7.135891   603A      7.174956  
     604A      7.236180   605A      7.308311   606A      7.476674  
     607A      7.496427   608A      7.769295   609A      7.854494  
     610A      7.871842   611A      8.000633   612A      8.083556  
     613A     16.103148   614A     16.440713   615A     16.948649  
     616A     17.922017   617A     18.730235   618A     19.039946  
     619A     19.823025   620A     20.112105   621A     20.719608  

    Final Occupation by Irrep:
              A 
    DOCC [    33 ]

  @DF-RHF Final Energy:  -399.73528419632373

   => Energetics <=

    Nuclear Repulsion Energy =            435.9181531910606964
    One-Electron Energy =               -1406.7909132278830384
    Two-Electron Energy =                 571.1374758404986096
    Total Energy =                       -399.7352841963237324

Computation Completed

*** tstop() called on node58.bme.utexas.edu at Tue Feb  2 03:33:25 2021
Module time:
	user time   =     284.57 seconds =       4.74 minutes
	system time =      48.51 seconds =       0.81 minutes
	total time  =         88 seconds =       1.47 minutes
Total time:
	user time   =     284.57 seconds =       4.74 minutes
	system time =      48.51 seconds =       0.81 minutes
	total time  =         88 seconds =       1.47 minutes
   => Loading Basis Set <=

    Name: (AUG-CC-PVTZ AUX)
    Role: RIFIT
    Keyword: DF_BASIS_MP2
    atoms 1     entry O          line   264 file /home/xy3866/psi4conda/share/psi4/basis/aug-cc-pvtz-ri.gbs 
    atoms 2     entry N          line   206 file /home/xy3866/psi4conda/share/psi4/basis/aug-cc-pvtz-ri.gbs 
    atoms 3-9   entry C          line   148 file /home/xy3866/psi4conda/share/psi4/basis/aug-cc-pvtz-ri.gbs 
    atoms 10-18 entry H          line    30 file /home/xy3866/psi4conda/share/psi4/basis/aug-cc-pvtz-ri.gbs 


*** tstart() called on node58.bme.utexas.edu
*** at Tue Feb  2 03:33:25 2021


  //>>>>>>>>>>>>>>>>>>>>>>>>>>>>>>>>>>>//
  //               DFMP2               //
  //<<<<<<<<<<<<<<<<<<<<<<<<<<<<<<<<<<<//

	 --------------------------------------------------------
	                          DF-MP2                         
	      2nd-Order Density-Fitted Moller-Plesset Theory     
	              RMP2 Wavefunction,   8 Threads             
	                                                         
	        Rob Parrish, Justin Turney, Andy Simmonett,      
	           Ed Hohenstein, and C. David Sherrill          
	 --------------------------------------------------------

   => Auxiliary Basis Set <=

  Basis Set: (AUG-CC-PVTZ AUX)
    Blend: AUG-CC-PVTZ-RI
    Number of shells: 378
    Number of basis function: 1368
    Number of Cartesian functions: 1719
    Spherical Harmonics?: true
    Max angular momentum: 4

	 --------------------------------------------------------
	                 NBF =   621, NAUX =  1368
	 --------------------------------------------------------
	   CLASS    FOCC     OCC    AOCC    AVIR     VIR    FVIR
	   PAIRS       0      33      33     588     588       0
	 --------------------------------------------------------

  DFHelper Memory: AOs need 3.843 GiB; user supplied 22.352 GiB. Using in-core AOs.


         ------------------------------------------------------------
                                     CPHF                           
                                  Rob Parrish                       
         ------------------------------------------------------------

  ==> Geometry <==

    Molecular point group: c1
    Full point group: C1

    Geometry (in Angstrom), charge = 0, multiplicity = 1:

       Center              X                  Y                   Z               Mass       
    ------------   -----------------  -----------------  -----------------  -----------------
         O            0.726069951720     1.896251252614    -0.176070986651    15.994914619570
         N            0.365023951720    -0.375860747386    -0.288919986651    14.003074004430
         C            1.800952951720    -0.550752747386    -0.540152986651    12.000000000000
         C           -0.078207048280     0.953870252614    -0.102755986651    12.000000000000
         C           -0.454448048280    -1.465697747386    -0.188182986651    12.000000000000
         C            2.603289951720    -0.486930747386     0.751427013349    12.000000000000
         C           -1.494357048280     1.067140252614     0.161709013349    12.000000000000
         C           -1.789071048280    -1.333230747386     0.080337013349    12.000000000000
         C           -2.386045848280     0.157098252614     0.282880613349    12.000000000000
         H            1.928467951720    -1.511165747386    -1.047053986651     1.007825032230
         H            2.102419951720     0.249942252614    -1.217558986651     1.007825032230
         H            0.023183951720    -2.429003747386    -0.343720986651     1.007825032230
         H            2.461526951720     0.488026252614     1.219894013349     1.007825032230
         H            2.285212951720    -1.270565747386     1.444493013349     1.007825032230
         H            3.668414951720    -0.621685747386     0.540575013349     1.007825032230
         H           -1.869763048280     2.076823252614     0.294619013349     1.007825032230
         H           -2.416234048280    -2.214712747386     0.148196013349     1.007825032230
         H           -3.371135048280     0.107313252614     0.467632013349     1.007825032230

  Nuclear repulsion =  435.918153191060696
  Reference energy  = -399.735284196323732

  ==> Basis Set <==

  Basis Set: AUG-CC-PVTZ
    Blend: AUG-CC-PVTZ
    Number of shells: 207
    Number of basis function: 621
    Number of Cartesian functions: 720
    Spherical Harmonics?: true
    Max angular momentum: 3

  ==> CGRSolver (by Rob Parrish) <==

   Number of roots    =         1
   Preconditioning    =    JACOBI
   Convergence cutoff =     1E-06
   Maximum iterations =       100

  ==> CPHFRHamiltonian (by Rob Parrish) <== 

  ==> MemDFJK: Density-Fitted J/K Matrices <==

    J tasked:                   Yes
    K tasked:                   Yes
    wK tasked:                   No
    OpenMP threads:               8
    Memory [MiB]:             22888
    Algorithm:                 Disk
    Schwarz Cutoff:           1E-12
    Mask sparsity (%):       3.8606
    Fitting Condition:        1E-10

   => Auxiliary Basis Set <=

  Basis Set: (AUG-CC-PVTZ AUX)
    Blend: AUG-CC-PVTZ-JKFIT
    Number of shells: 396
    Number of basis function: 1350
    Number of Cartesian functions: 1674
    Spherical Harmonics?: true
    Max angular momentum: 4

  ==> CPHF Iterations <==

  => Iterations <=

             Iter  Converged  Remaining    Residual
  CGR           1          0          1   1.457E-01
  CGR           2          0          1   5.118E-02
  CGR           3          0          1   2.516E-02
  CGR           4          0          1   7.502E-03
  CGR           5          0          1   3.047E-03
  CGR           6          0          1   1.433E-03
  CGR           7          0          1   4.405E-04
  CGR           8          0          1   1.570E-04
  CGR           9          0          1   5.678E-05
  CGR          10          0          1   1.884E-05
  CGR          11          0          1   6.570E-06
  CGR          12          0          1   2.640E-06
  CGR          13          0          1   1.058E-06
  CGR          14          1          0   3.831E-07

    CGRSolver converged.

	-----------------------------------------------------------
	 ==================> DF-MP2 Energies <==================== 
	-----------------------------------------------------------
	 Reference Energy          =    -399.7352841963237324 [Eh]
	 Singles Energy            =      -0.0000000000000000 [Eh]
	 Same-Spin Energy          =      -0.4206934103976993 [Eh]
	 Opposite-Spin Energy      =      -1.3397433849763085 [Eh]
	 Correlation Energy        =      -1.7604367953740079 [Eh]
	 Total Energy              =    -401.4957209916977376 [Eh]
	-----------------------------------------------------------
	 ================> DF-SCS-MP2 Energies <================== 
	-----------------------------------------------------------
	 SCS Same-Spin Scale       =       0.3333333333333333 [-]
	 SCS Opposite-Spin Scale   =       1.2000000000000000 [-]
	 SCS Same-Spin Energy      =      -0.1402311367992331 [Eh]
	 SCS Opposite-Spin Energy  =      -1.6076920619715702 [Eh]
	 SCS Correlation Energy    =      -1.7479231987708033 [Eh]
	 SCS Total Energy          =    -401.4832073950945528 [Eh]
	-----------------------------------------------------------



Properties will be evaluated at  -0.000000,   0.000000,  -0.000000 [a0]

Properties computed using the MP2 density matrix

  Nuclear Dipole Moment: [e a0]
     X:     4.5136      Y:    -4.7944      Z:     1.4128

  Electronic Dipole Moment: [e a0]
     X:    -4.8567      Y:     3.4646      Z:    -1.3862

  Dipole Moment: [e a0]
     X:    -0.3430      Y:    -1.3297      Z:     0.0267     Total:     1.3735

  Dipole Moment: [D]
     X:    -0.8719      Y:    -3.3798      Z:     0.0678     Total:     3.4911


*** tstop() called on node58.bme.utexas.edu at Tue Feb  2 03:36:47 2021
Module time:
	user time   =     837.97 seconds =      13.97 minutes
	system time =      66.37 seconds =       1.11 minutes
	total time  =        202 seconds =       3.37 minutes
Total time:
	user time   =    1122.70 seconds =      18.71 minutes
	system time =     114.88 seconds =       1.91 minutes
	total time  =        290 seconds =       4.83 minutes

    Psi4 stopped on: Tuesday, 02 February 2021 03:36AM
    Psi4 wall time for execution: 0:04:50.87

*** Psi4 exiting successfully. Buy a developer a beer!
