
    -----------------------------------------------------------------------
          Psi4: An Open-Source Ab Initio Electronic Structure Package
                               Psi4 1.3.2 release

                         Git: Rev {HEAD} ecbda83 


    R. M. Parrish, L. A. Burns, D. G. A. Smith, A. C. Simmonett,
    A. E. DePrince III, E. G. Hohenstein, U. Bozkaya, A. Yu. Sokolov,
    R. Di Remigio, R. M. Richard, J. F. Gonthier, A. M. James,
    H. R. McAlexander, A. Kumar, M. Saitow, X. Wang, B. P. Pritchard,
    P. Verma, H. F. Schaefer III, K. Patkowski, R. A. King, E. F. Valeev,
    F. A. Evangelista, J. M. Turney, T. D. Crawford, and C. D. Sherrill,
    J. Chem. Theory Comput. 13(7) pp 3185--3197 (2017).
    (doi: 10.1021/acs.jctc.7b00174)


                         Additional Contributions by
    P. Kraus, H. Kruse, M. H. Lechner, M. C. Schieber, R. A. Shaw,
    A. Alenaizan, R. Galvelis, Z. L. Glick, S. Lehtola, and J. P. Misiewicz

    -----------------------------------------------------------------------


    Psi4 started on: Tuesday, 02 February 2021 12:49AM

    Process ID: 1712163
    Host:       node58.bme.utexas.edu
    PSIDATADIR: /home/xy3866/psi4conda/share/psi4
    Memory:     500.0 MiB
    Threads:    8
    
  ==> Input File <==

--------------------------------------------------------------------------
#psi4
#
memory 32 gb

molecule  {
0 1
  O        0.6831730     1.9514370    -0.1851230
  N        0.3221270    -0.3206750    -0.2979720
  C        1.7580560    -0.4955670    -0.5492050
  C       -0.1211040     1.0090560    -0.1118080
  C       -0.4973450    -1.4105120    -0.1972350
  C        2.5603930    -0.4317450     0.7423750
  C       -1.6137485     1.1768757     0.1702788
  C       -1.8319680    -1.2780450     0.0712850
  C       -2.3551590     0.0280850     0.2487950
  H        1.8855710    -1.4559800    -1.0561060
  H        2.0595230     0.3051280    -1.2266110
  H       -0.0197130    -2.3738180    -0.3527730
  H        2.4186300     0.5432120     1.2108420
  H        2.2423160    -1.2153800     1.4354410
  H        3.6255180    -0.5665000     0.5315230
  H       -1.9126600     2.1320090     0.2855670
  H       -2.4591310    -2.1595270     0.1391440
  H       -3.4140320     0.1624990     0.4585800
units angstrom
no_reorient  #important for SAPT in psi4, default
symmetry c1  #important for SAPT in psi4, default
}

set PROPERTIES_ORIGIN ["COM"]
properties('MP2/aug-cc-pvtz', properties = ['dipole'])
--------------------------------------------------------------------------

  Memory set to  29.802 GiB by Python driver.
    SCF Algorithm Type (re)set to DF.

*** tstart() called on node58.bme.utexas.edu
*** at Tue Feb  2 00:49:36 2021

   => Loading Basis Set <=

    Name: AUG-CC-PVTZ
    Role: ORBITAL
    Keyword: BASIS
    atoms 1     entry O          line   327 file /home/xy3866/psi4conda/share/psi4/basis/aug-cc-pvtz.gbs 
    atoms 2     entry N          line   281 file /home/xy3866/psi4conda/share/psi4/basis/aug-cc-pvtz.gbs 
    atoms 3-9   entry C          line   235 file /home/xy3866/psi4conda/share/psi4/basis/aug-cc-pvtz.gbs 
    atoms 10-18 entry H          line    36 file /home/xy3866/psi4conda/share/psi4/basis/aug-cc-pvtz.gbs 


         ---------------------------------------------------------
                                   SCF
               by Justin Turney, Rob Parrish, Andy Simmonett
                          and Daniel G. A. Smith
                              RHF Reference
                        8 Threads,  30517 MiB Core
         ---------------------------------------------------------

  ==> Geometry <==

    Molecular point group: c1
    Full point group: C1

    Geometry (in Angstrom), charge = 0, multiplicity = 1:

       Center              X                  Y                   Z               Mass       
    ------------   -----------------  -----------------  -----------------  -----------------
         O            0.726334263244     1.908892933372    -0.175348286185    15.994914619570
         N            0.365288263244    -0.363219066628    -0.288197286185    14.003074004430
         C            1.801217263244    -0.538111066628    -0.539430286185    12.000000000000
         C           -0.077942736756     0.966511933372    -0.102033286185    12.000000000000
         C           -0.454183736756    -1.453056066628    -0.187460286185    12.000000000000
         C            2.603554263244    -0.474289066628     0.752149713815    12.000000000000
         C           -1.570587236756     1.134331633372     0.180053513815    12.000000000000
         C           -1.788806736756    -1.320589066628     0.081059713815    12.000000000000
         C           -2.311997736756    -0.014459066628     0.258569713815    12.000000000000
         H            1.928732263244    -1.498524066628    -1.046331286185     1.007825032230
         H            2.102684263244     0.262583933372    -1.216836286185     1.007825032230
         H            0.023448263244    -2.416362066628    -0.342998286185     1.007825032230
         H            2.461791263244     0.500667933372     1.220616713815     1.007825032230
         H            2.285477263244    -1.257924066628     1.445215713815     1.007825032230
         H            3.668679263244    -0.609044066628     0.541297713815     1.007825032230
         H           -1.869498736756     2.089464933372     0.295341713815     1.007825032230
         H           -2.415969736756    -2.202071066628     0.148918713815     1.007825032230
         H           -3.370870736756     0.119954933372     0.468354713815     1.007825032230

  Running in c1 symmetry.

  Rotational constants: A =      0.09386  B =      0.04958  C =      0.03525 [cm^-1]
  Rotational constants: A =   2813.94778  B =   1486.30784  C =   1056.73824 [MHz]
  Nuclear repulsion =  435.725883487617409

  Charge       = 0
  Multiplicity = 1
  Electrons    = 66
  Nalpha       = 33
  Nbeta        = 33

  ==> Algorithm <==

  SCF Algorithm Type is DF.
  DIIS enabled.
  MOM disabled.
  Fractional occupation disabled.
  Guess Type is SAD.
  Energy threshold   = 1.00e-10
  Density threshold  = 1.00e-10
  Integral threshold = 0.00e+00

  ==> Primary Basis <==

  Basis Set: AUG-CC-PVTZ
    Blend: AUG-CC-PVTZ
    Number of shells: 207
    Number of basis function: 621
    Number of Cartesian functions: 720
    Spherical Harmonics?: true
    Max angular momentum: 3

   => Loading Basis Set <=

    Name: (AUG-CC-PVTZ AUX)
    Role: JKFIT
    Keyword: DF_BASIS_SCF
    atoms 1     entry O          line   286 file /home/xy3866/psi4conda/share/psi4/basis/aug-cc-pvtz-jkfit.gbs 
    atoms 2     entry N          line   224 file /home/xy3866/psi4conda/share/psi4/basis/aug-cc-pvtz-jkfit.gbs 
    atoms 3-9   entry C          line   162 file /home/xy3866/psi4conda/share/psi4/basis/aug-cc-pvtz-jkfit.gbs 
    atoms 10-18 entry H          line    70 file /home/xy3866/psi4conda/share/psi4/basis/aug-cc-pvtz-jkfit.gbs 

  ==> Pre-Iterations <==

   -------------------------------------------------------
    Irrep   Nso     Nmo     Nalpha   Nbeta   Ndocc  Nsocc
   -------------------------------------------------------
     A        621     621       0       0       0       0
   -------------------------------------------------------
    Total     621     621      33      33      33       0
   -------------------------------------------------------

  ==> Integral Setup <==

  DFHelper Memory: AOs need 3.842 GiB; user supplied 22.352 GiB. Using in-core AOs.

  ==> MemDFJK: Density-Fitted J/K Matrices <==

    J tasked:                   Yes
    K tasked:                   Yes
    wK tasked:                   No
    OpenMP threads:               8
    Memory [MiB]:             22888
    Algorithm:                 Disk
    Schwarz Cutoff:           1E-12
    Mask sparsity (%):       3.8808
    Fitting Condition:        1E-10

   => Auxiliary Basis Set <=

  Basis Set: (AUG-CC-PVTZ AUX)
    Blend: AUG-CC-PVTZ-JKFIT
    Number of shells: 396
    Number of basis function: 1350
    Number of Cartesian functions: 1674
    Spherical Harmonics?: true
    Max angular momentum: 4

  Minimum eigenvalue in the overlap matrix is 1.8998581086E-06.
  Using Symmetric Orthogonalization.

  SCF Guess: Superposition of Atomic Densities via on-the-fly atomic UHF.

  ==> Iterations <==

                           Total Energy        Delta E     RMS |[F,P]|

   @DF-RHF iter SAD:  -399.04176426780583   -3.99042e+02   0.00000e+00 
   @DF-RHF iter   1:  -399.48872564175019   -4.46961e-01   1.13995e-03 DIIS
   @DF-RHF iter   2:  -399.70049133886698   -2.11766e-01   6.24229e-04 DIIS
   @DF-RHF iter   3:  -399.75673771989972   -5.62464e-02   1.45403e-04 DIIS
   @DF-RHF iter   4:  -399.76120773532045   -4.47002e-03   6.33012e-05 DIIS
   @DF-RHF iter   5:  -399.76216278141050   -9.55046e-04   1.18436e-05 DIIS
   @DF-RHF iter   6:  -399.76227580607190   -1.13025e-04   7.04350e-06 DIIS
   @DF-RHF iter   7:  -399.76230825313553   -3.24471e-05   2.97903e-06 DIIS
   @DF-RHF iter   8:  -399.76231711005863   -8.85692e-06   1.04872e-06 DIIS
   @DF-RHF iter   9:  -399.76231787757462   -7.67516e-07   3.26329e-07 DIIS
   @DF-RHF iter  10:  -399.76231793148293   -5.39083e-08   1.32904e-07 DIIS
   @DF-RHF iter  11:  -399.76231794023045   -8.74752e-09   5.38520e-08 DIIS
   @DF-RHF iter  12:  -399.76231794204432   -1.81387e-09   2.15091e-08 DIIS
   @DF-RHF iter  13:  -399.76231794240294   -3.58625e-10   9.23379e-09 DIIS
   @DF-RHF iter  14:  -399.76231794246706   -6.41194e-11   3.80185e-09 DIIS
   @DF-RHF iter  15:  -399.76231794248054   -1.34719e-11   1.61545e-09 DIIS
   @DF-RHF iter  16:  -399.76231794248054    0.00000e+00   5.63052e-10 DIIS
   @DF-RHF iter  17:  -399.76231794248054    0.00000e+00   2.41979e-10 DIIS
   @DF-RHF iter  18:  -399.76231794248139   -8.52651e-13   8.84644e-11 DIIS
  Energy and wave function converged.


  ==> Post-Iterations <==

    Orbital Energies [Eh]
    ---------------------

    Doubly Occupied:                                                      

       1A    -20.510956     2A    -15.624532     3A    -11.356584  
       4A    -11.308382     5A    -11.274243     6A    -11.267423  
       7A    -11.239827     8A    -11.239473     9A    -11.221276  
      10A     -1.369648    11A     -1.278070    12A     -1.114974  
      13A     -1.031034    14A     -1.013171    15A     -0.890243  
      16A     -0.875484    17A     -0.819142    18A     -0.716588  
      19A     -0.696600    20A     -0.673469    21A     -0.644400  
      22A     -0.613677    23A     -0.607490    24A     -0.603076  
      25A     -0.558144    26A     -0.549912    27A     -0.527917  
      28A     -0.526635    29A     -0.506079    30A     -0.475224  
      31A     -0.416745    32A     -0.408551    33A     -0.307163  

    Virtual:                                                              

      34A      0.023143    35A      0.029269    36A      0.036845  
      37A      0.039719    38A      0.046812    39A      0.050889  
      40A      0.060144    41A      0.065937    42A      0.069589  
      43A      0.076628    44A      0.083038    45A      0.094675  
      46A      0.101013    47A      0.110485    48A      0.111578  
      49A      0.114187    50A      0.116624    51A      0.121991  
      52A      0.126393    53A      0.130421    54A      0.130617  
      55A      0.138954    56A      0.141436    57A      0.144512  
      58A      0.147230    59A      0.149431    60A      0.157026  
      61A      0.158918    62A      0.166020    63A      0.167347  
      64A      0.169952    65A      0.172215    66A      0.177991  
      67A      0.209492    68A      0.217829    69A      0.221999  
      70A      0.235085    71A      0.239253    72A      0.243244  
      73A      0.246939    74A      0.255121    75A      0.257970  
      76A      0.264556    77A      0.267824    78A      0.273812  
      79A      0.284491    80A      0.290474    81A      0.296407  
      82A      0.301429    83A      0.302502    84A      0.304510  
      85A      0.309888    86A      0.314902    87A      0.318064  
      88A      0.320948    89A      0.325200    90A      0.336029  
      91A      0.336928    92A      0.342761    93A      0.346967  
      94A      0.352238    95A      0.356172    96A      0.364131  
      97A      0.373158    98A      0.378506    99A      0.380545  
     100A      0.389766   101A      0.398935   102A      0.402764  
     103A      0.406918   104A      0.410448   105A      0.412411  
     106A      0.420373   107A      0.426102   108A      0.430855  
     109A      0.437250   110A      0.441420   111A      0.447572  
     112A      0.448853   113A      0.452820   114A      0.461135  
     115A      0.464727   116A      0.470313   117A      0.475575  
     118A      0.479552   119A      0.484966   120A      0.491788  
     121A      0.493982   122A      0.499257   123A      0.505918  
     124A      0.508743   125A      0.512888   126A      0.515331  
     127A      0.516849   128A      0.518965   129A      0.522469  
     130A      0.525715   131A      0.533158   132A      0.538776  
     133A      0.545650   134A      0.552307   135A      0.560980  
     136A      0.566823   137A      0.577817   138A      0.580533  
     139A      0.585273   140A      0.599253   141A      0.603293  
     142A      0.608518   143A      0.622653   144A      0.628909  
     145A      0.632122   146A      0.635579   147A      0.641805  
     148A      0.653926   149A      0.656963   150A      0.658867  
     151A      0.676063   152A      0.685465   153A      0.701837  
     154A      0.709384   155A      0.716838   156A      0.720828  
     157A      0.721835   158A      0.731737   159A      0.738647  
     160A      0.742434   161A      0.761171   162A      0.765428  
     163A      0.771196   164A      0.776166   165A      0.788328  
     166A      0.799322   167A      0.806952   168A      0.808244  
     169A      0.817368   170A      0.821893   171A      0.826270  
     172A      0.833898   173A      0.843597   174A      0.850334  
     175A      0.853962   176A      0.859428   177A      0.864101  
     178A      0.870910   179A      0.873444   180A      0.884751  
     181A      0.889543   182A      0.896046   183A      0.906555  
     184A      0.911095   185A      0.917338   186A      0.921727  
     187A      0.927433   188A      0.932870   189A      0.935801  
     190A      0.957507   191A      0.963462   192A      0.970755  
     193A      0.976542   194A      0.983275   195A      0.990543  
     196A      0.994487   197A      0.998717   198A      1.000193  
     199A      1.007352   200A      1.013804   201A      1.021477  
     202A      1.028634   203A      1.033209   204A      1.042782  
     205A      1.053849   206A      1.060183   207A      1.066154  
     208A      1.069977   209A      1.074998   210A      1.078995  
     211A      1.084294   212A      1.090053   213A      1.102672  
     214A      1.105411   215A      1.115194   216A      1.127596  
     217A      1.129884   218A      1.133129   219A      1.138343  
     220A      1.143356   221A      1.152727   222A      1.154687  
     223A      1.163676   224A      1.173292   225A      1.179863  
     226A      1.184263   227A      1.190358   228A      1.195504  
     229A      1.199330   230A      1.213110   231A      1.215881  
     232A      1.222090   233A      1.222712   234A      1.226559  
     235A      1.234890   236A      1.243782   237A      1.247086  
     238A      1.269544   239A      1.274703   240A      1.282949  
     241A      1.293969   242A      1.313712   243A      1.317573  
     244A      1.328293   245A      1.334570   246A      1.341686  
     247A      1.349945   248A      1.363899   249A      1.371051  
     250A      1.376706   251A      1.381999   252A      1.394737  
     253A      1.401350   254A      1.406978   255A      1.415627  
     256A      1.419985   257A      1.433393   258A      1.443631  
     259A      1.449187   260A      1.455605   261A      1.471517  
     262A      1.477359   263A      1.490716   264A      1.496496  
     265A      1.508788   266A      1.515828   267A      1.521361  
     268A      1.525032   269A      1.538471   270A      1.542616  
     271A      1.561259   272A      1.571498   273A      1.577207  
     274A      1.597026   275A      1.604727   276A      1.615746  
     277A      1.620256   278A      1.639532   279A      1.643225  
     280A      1.656767   281A      1.665010   282A      1.668755  
     283A      1.681071   284A      1.685066   285A      1.688943  
     286A      1.695553   287A      1.706629   288A      1.717100  
     289A      1.731221   290A      1.733871   291A      1.742187  
     292A      1.745546   293A      1.756404   294A      1.760838  
     295A      1.778989   296A      1.782263   297A      1.791520  
     298A      1.804320   299A      1.813201   300A      1.822063  
     301A      1.838284   302A      1.847404   303A      1.851904  
     304A      1.854897   305A      1.859673   306A      1.875295  
     307A      1.878948   308A      1.886672   309A      1.904775  
     310A      1.924229   311A      1.927077   312A      1.933729  
     313A      1.938729   314A      1.963564   315A      1.969858  
     316A      1.982174   317A      1.991473   318A      2.014815  
     319A      2.019469   320A      2.027298   321A      2.034014  
     322A      2.037303   323A      2.044250   324A      2.047497  
     325A      2.060613   326A      2.073075   327A      2.082208  
     328A      2.091596   329A      2.103666   330A      2.121477  
     331A      2.137156   332A      2.149032   333A      2.158286  
     334A      2.168730   335A      2.191930   336A      2.202990  
     337A      2.213496   338A      2.222598   339A      2.241250  
     340A      2.251752   341A      2.254976   342A      2.262561  
     343A      2.286576   344A      2.294199   345A      2.299624  
     346A      2.307412   347A      2.329436   348A      2.336194  
     349A      2.341434   350A      2.352631   351A      2.374062  
     352A      2.381976   353A      2.393990   354A      2.403974  
     355A      2.419260   356A      2.429112   357A      2.451183  
     358A      2.465665   359A      2.477479   360A      2.491939  
     361A      2.517235   362A      2.531457   363A      2.542621  
     364A      2.583713   365A      2.597279   366A      2.610271  
     367A      2.619213   368A      2.656993   369A      2.669835  
     370A      2.675183   371A      2.695870   372A      2.720735  
     373A      2.739994   374A      2.752196   375A      2.778285  
     376A      2.795816   377A      2.803028   378A      2.810511  
     379A      2.858153   380A      2.868864   381A      2.878579  
     382A      2.902942   383A      2.935395   384A      2.966577  
     385A      2.976298   386A      3.001231   387A      3.027406  
     388A      3.035717   389A      3.072800   390A      3.119980  
     391A      3.132868   392A      3.157583   393A      3.204517  
     394A      3.214394   395A      3.242146   396A      3.246729  
     397A      3.264171   398A      3.280130   399A      3.301206  
     400A      3.342987   401A      3.345262   402A      3.370433  
     403A      3.386967   404A      3.416972   405A      3.424907  
     406A      3.443548   407A      3.447463   408A      3.458269  
     409A      3.475856   410A      3.480369   411A      3.493062  
     412A      3.512036   413A      3.522994   414A      3.537338  
     415A      3.546955   416A      3.562489   417A      3.572669  
     418A      3.585308   419A      3.600429   420A      3.621428  
     421A      3.634870   422A      3.639648   423A      3.648457  
     424A      3.651792   425A      3.672474   426A      3.681759  
     427A      3.695637   428A      3.710227   429A      3.715959  
     430A      3.738329   431A      3.755093   432A      3.762873  
     433A      3.764240   434A      3.787120   435A      3.794021  
     436A      3.804337   437A      3.813614   438A      3.818512  
     439A      3.835264   440A      3.848210   441A      3.853403  
     442A      3.870957   443A      3.890760   444A      3.896422  
     445A      3.923296   446A      3.930311   447A      3.953851  
     448A      3.961976   449A      3.964163   450A      3.971590  
     451A      3.990424   452A      3.998182   453A      4.005546  
     454A      4.010094   455A      4.027228   456A      4.032421  
     457A      4.043719   458A      4.054483   459A      4.068594  
     460A      4.071918   461A      4.084817   462A      4.093585  
     463A      4.108391   464A      4.121606   465A      4.136047  
     466A      4.141306   467A      4.155249   468A      4.170050  
     469A      4.187595   470A      4.196163   471A      4.213842  
     472A      4.220731   473A      4.244162   474A      4.250613  
     475A      4.263516   476A      4.270253   477A      4.282113  
     478A      4.294951   479A      4.302157   480A      4.325952  
     481A      4.341152   482A      4.349362   483A      4.369625  
     484A      4.373655   485A      4.386448   486A      4.397161  
     487A      4.402124   488A      4.423031   489A      4.438542  
     490A      4.453800   491A      4.464818   492A      4.477237  
     493A      4.509374   494A      4.517165   495A      4.529896  
     496A      4.547191   497A      4.553511   498A      4.579963  
     499A      4.606781   500A      4.628475   501A      4.650428  
     502A      4.670387   503A      4.676830   504A      4.691675  
     505A      4.722007   506A      4.748967   507A      4.753197  
     508A      4.787191   509A      4.796445   510A      4.813012  
     511A      4.840474   512A      4.853882   513A      4.872716  
     514A      4.879733   515A      4.883240   516A      4.900547  
     517A      4.902789   518A      4.915566   519A      4.931870  
     520A      4.976047   521A      4.981890   522A      4.995725  
     523A      5.025150   524A      5.036524   525A      5.038970  
     526A      5.064576   527A      5.083304   528A      5.106030  
     529A      5.108405   530A      5.129770   531A      5.136949  
     532A      5.139330   533A      5.175604   534A      5.193544  
     535A      5.212362   536A      5.217054   537A      5.240713  
     538A      5.247626   539A      5.274048   540A      5.286776  
     541A      5.295644   542A      5.305025   543A      5.338149  
     544A      5.365354   545A      5.383347   546A      5.413550  
     547A      5.424448   548A      5.446636   549A      5.466938  
     550A      5.492923   551A      5.512861   552A      5.541110  
     553A      5.554220   554A      5.581146   555A      5.604653  
     556A      5.624921   557A      5.642605   558A      5.678548  
     559A      5.702153   560A      5.710216   561A      5.752883  
     562A      5.763544   563A      5.776319   564A      5.786791  
     565A      5.823090   566A      5.838187   567A      5.869442  
     568A      5.881668   569A      5.922885   570A      5.940425  
     571A      5.983239   572A      6.035049   573A      6.056260  
     574A      6.070122   575A      6.126464   576A      6.159586  
     577A      6.174694   578A      6.202196   579A      6.233706  
     580A      6.246961   581A      6.283036   582A      6.299535  
     583A      6.340871   584A      6.371106   585A      6.420084  
     586A      6.451880   587A      6.543955   588A      6.629187  
     589A      6.664370   590A      6.732289   591A      6.774271  
     592A      6.795989   593A      6.808746   594A      6.819215  
     595A      6.861539   596A      6.898735   597A      6.914642  
     598A      6.981069   599A      7.038445   600A      7.073918  
     601A      7.086615   602A      7.156565   603A      7.191144  
     604A      7.227991   605A      7.322365   606A      7.475278  
     607A      7.491230   608A      7.753626   609A      7.776862  
     610A      7.827146   611A      7.983987   612A      8.074654  
     613A     15.755845   614A     15.891058   615A     17.060471  
     616A     17.970454   617A     18.621455   618A     19.033040  
     619A     19.389096   620A     19.892432   621A     20.447789  

    Final Occupation by Irrep:
              A 
    DOCC [    33 ]

  @DF-RHF Final Energy:  -399.76231794248139

   => Energetics <=

    Nuclear Repulsion Energy =            435.7258834876174092
    One-Electron Energy =               -1406.4441381835940774
    Two-Electron Energy =                 570.9559367534952798
    Total Energy =                       -399.7623179424813316

Computation Completed

*** tstop() called on node58.bme.utexas.edu at Tue Feb  2 00:51:14 2021
Module time:
	user time   =     301.73 seconds =       5.03 minutes
	system time =      48.66 seconds =       0.81 minutes
	total time  =         98 seconds =       1.63 minutes
Total time:
	user time   =     301.73 seconds =       5.03 minutes
	system time =      48.66 seconds =       0.81 minutes
	total time  =         98 seconds =       1.63 minutes
   => Loading Basis Set <=

    Name: (AUG-CC-PVTZ AUX)
    Role: RIFIT
    Keyword: DF_BASIS_MP2
    atoms 1     entry O          line   264 file /home/xy3866/psi4conda/share/psi4/basis/aug-cc-pvtz-ri.gbs 
    atoms 2     entry N          line   206 file /home/xy3866/psi4conda/share/psi4/basis/aug-cc-pvtz-ri.gbs 
    atoms 3-9   entry C          line   148 file /home/xy3866/psi4conda/share/psi4/basis/aug-cc-pvtz-ri.gbs 
    atoms 10-18 entry H          line    30 file /home/xy3866/psi4conda/share/psi4/basis/aug-cc-pvtz-ri.gbs 


*** tstart() called on node58.bme.utexas.edu
*** at Tue Feb  2 00:51:14 2021


  //>>>>>>>>>>>>>>>>>>>>>>>>>>>>>>>>>>>//
  //               DFMP2               //
  //<<<<<<<<<<<<<<<<<<<<<<<<<<<<<<<<<<<//

	 --------------------------------------------------------
	                          DF-MP2                         
	      2nd-Order Density-Fitted Moller-Plesset Theory     
	              RMP2 Wavefunction,   8 Threads             
	                                                         
	        Rob Parrish, Justin Turney, Andy Simmonett,      
	           Ed Hohenstein, and C. David Sherrill          
	 --------------------------------------------------------

   => Auxiliary Basis Set <=

  Basis Set: (AUG-CC-PVTZ AUX)
    Blend: AUG-CC-PVTZ-RI
    Number of shells: 378
    Number of basis function: 1368
    Number of Cartesian functions: 1719
    Spherical Harmonics?: true
    Max angular momentum: 4

	 --------------------------------------------------------
	                 NBF =   621, NAUX =  1368
	 --------------------------------------------------------
	   CLASS    FOCC     OCC    AOCC    AVIR     VIR    FVIR
	   PAIRS       0      33      33     588     588       0
	 --------------------------------------------------------

  DFHelper Memory: AOs need 3.842 GiB; user supplied 22.352 GiB. Using in-core AOs.


         ------------------------------------------------------------
                                     CPHF                           
                                  Rob Parrish                       
         ------------------------------------------------------------

  ==> Geometry <==

    Molecular point group: c1
    Full point group: C1

    Geometry (in Angstrom), charge = 0, multiplicity = 1:

       Center              X                  Y                   Z               Mass       
    ------------   -----------------  -----------------  -----------------  -----------------
         O            0.726334263244     1.908892933372    -0.175348286185    15.994914619570
         N            0.365288263244    -0.363219066628    -0.288197286185    14.003074004430
         C            1.801217263244    -0.538111066628    -0.539430286185    12.000000000000
         C           -0.077942736756     0.966511933372    -0.102033286185    12.000000000000
         C           -0.454183736756    -1.453056066628    -0.187460286185    12.000000000000
         C            2.603554263244    -0.474289066628     0.752149713815    12.000000000000
         C           -1.570587236756     1.134331633372     0.180053513815    12.000000000000
         C           -1.788806736756    -1.320589066628     0.081059713815    12.000000000000
         C           -2.311997736756    -0.014459066628     0.258569713815    12.000000000000
         H            1.928732263244    -1.498524066628    -1.046331286185     1.007825032230
         H            2.102684263244     0.262583933372    -1.216836286185     1.007825032230
         H            0.023448263244    -2.416362066628    -0.342998286185     1.007825032230
         H            2.461791263244     0.500667933372     1.220616713815     1.007825032230
         H            2.285477263244    -1.257924066628     1.445215713815     1.007825032230
         H            3.668679263244    -0.609044066628     0.541297713815     1.007825032230
         H           -1.869498736756     2.089464933372     0.295341713815     1.007825032230
         H           -2.415969736756    -2.202071066628     0.148918713815     1.007825032230
         H           -3.370870736756     0.119954933372     0.468354713815     1.007825032230

  Nuclear repulsion =  435.725883487617409
  Reference energy  = -399.762317942481388

  ==> Basis Set <==

  Basis Set: AUG-CC-PVTZ
    Blend: AUG-CC-PVTZ
    Number of shells: 207
    Number of basis function: 621
    Number of Cartesian functions: 720
    Spherical Harmonics?: true
    Max angular momentum: 3

  ==> CGRSolver (by Rob Parrish) <==

   Number of roots    =         1
   Preconditioning    =    JACOBI
   Convergence cutoff =     1E-06
   Maximum iterations =       100

  ==> CPHFRHamiltonian (by Rob Parrish) <== 

  ==> MemDFJK: Density-Fitted J/K Matrices <==

    J tasked:                   Yes
    K tasked:                   Yes
    wK tasked:                   No
    OpenMP threads:               8
    Memory [MiB]:             22888
    Algorithm:                 Disk
    Schwarz Cutoff:           1E-12
    Mask sparsity (%):       3.8808
    Fitting Condition:        1E-10

   => Auxiliary Basis Set <=

  Basis Set: (AUG-CC-PVTZ AUX)
    Blend: AUG-CC-PVTZ-JKFIT
    Number of shells: 396
    Number of basis function: 1350
    Number of Cartesian functions: 1674
    Spherical Harmonics?: true
    Max angular momentum: 4

  ==> CPHF Iterations <==

  => Iterations <=

             Iter  Converged  Remaining    Residual
  CGR           1          0          1   1.491E-01
  CGR           2          0          1   5.440E-02
  CGR           3          0          1   2.734E-02
  CGR           4          0          1   7.805E-03
  CGR           5          0          1   3.163E-03
  CGR           6          0          1   1.507E-03
  CGR           7          0          1   4.814E-04
  CGR           8          0          1   1.838E-04
  CGR           9          0          1   6.555E-05
  CGR          10          0          1   2.634E-05
  CGR          11          0          1   1.068E-05
  CGR          12          0          1   4.858E-06
  CGR          13          0          1   1.526E-06
  CGR          14          1          0   5.132E-07

    CGRSolver converged.

	-----------------------------------------------------------
	 ==================> DF-MP2 Energies <==================== 
	-----------------------------------------------------------
	 Reference Energy          =    -399.7623179424813884 [Eh]
	 Singles Energy            =      -0.0000000000000000 [Eh]
	 Same-Spin Energy          =      -0.4221945746295287 [Eh]
	 Opposite-Spin Energy      =      -1.3393291540517702 [Eh]
	 Correlation Energy        =      -1.7615237286812988 [Eh]
	 Total Energy              =    -401.5238416711626996 [Eh]
	-----------------------------------------------------------
	 ================> DF-SCS-MP2 Energies <================== 
	-----------------------------------------------------------
	 SCS Same-Spin Scale       =       0.3333333333333333 [-]
	 SCS Opposite-Spin Scale   =       1.2000000000000000 [-]
	 SCS Same-Spin Energy      =      -0.1407315248765096 [Eh]
	 SCS Opposite-Spin Energy  =      -1.6071949848621243 [Eh]
	 SCS Correlation Energy    =      -1.7479265097386338 [Eh]
	 SCS Total Energy          =    -401.5102444522200358 [Eh]
	-----------------------------------------------------------



Properties will be evaluated at  -0.000000,   0.000000,   0.000000 [a0]

Properties computed using the MP2 density matrix

  Nuclear Dipole Moment: [e a0]
     X:     4.5159      Y:    -4.6877      Z:     1.4189

  Electronic Dipole Moment: [e a0]
     X:    -4.7649      Y:     3.2483      Z:    -1.4126

  Dipole Moment: [e a0]
     X:    -0.2490      Y:    -1.4394      Z:     0.0063     Total:     1.4608

  Dipole Moment: [D]
     X:    -0.6329      Y:    -3.6585      Z:     0.0161     Total:     3.7129


*** tstop() called on node58.bme.utexas.edu at Tue Feb  2 00:54:39 2021
Module time:
	user time   =     809.89 seconds =      13.50 minutes
	system time =      62.61 seconds =       1.04 minutes
	total time  =        205 seconds =       3.42 minutes
Total time:
	user time   =    1111.81 seconds =      18.53 minutes
	system time =     111.27 seconds =       1.85 minutes
	total time  =        303 seconds =       5.05 minutes

    Psi4 stopped on: Tuesday, 02 February 2021 12:54AM
    Psi4 wall time for execution: 0:05:03.07

*** Psi4 exiting successfully. Buy a developer a beer!
