67576                                                                   
Freq      RMP2-FC                                                     6-31G(d)            
Number of atoms                            I               16
Info1-9                                    I   N=           9
          28          26        1002           0           0         100
           6           2           1
Charge                                     I                0
Multiplicity                               I                1
Number of electrons                        I               66
Number of alpha electrons                  I               33
Number of beta electrons                   I               33
Number of basis functions                  I              149
Number of independent functions            I              149
Number of point charges in /Mol/           I                0
Number of translation vectors              I                0
Atomic numbers                             I   N=          16
           9           8           6           6           6           6
           6           6           6           1           1           1
           1           1           1           1
Nuclear charges                            R   N=          16
  9.00000000E+00  8.00000000E+00  6.00000000E+00  6.00000000E+00  6.00000000E+00
  6.00000000E+00  6.00000000E+00  6.00000000E+00  6.00000000E+00  1.00000000E+00
  1.00000000E+00  1.00000000E+00  1.00000000E+00  1.00000000E+00  1.00000000E+00
  1.00000000E+00
Current cartesian coordinates              R   N=          48
 -1.82090363E-01  4.25150787E+00 -4.06840709E-04  3.34174105E+00  7.54209340E-01
 -1.36017222E-05  9.01497640E-01 -8.38117644E-02  1.81023691E-05 -9.54760349E-01
  1.81302671E+00 -1.96231434E-04  1.12092314E-01 -2.60446096E+00  2.33976126E-04
 -3.50908329E+00  1.25767775E+00 -1.98095637E-04 -2.47123996E+00 -3.18341394E+00
  2.34813370E-04 -4.27921578E+00 -1.27269127E+00  2.08412474E-05  5.25221929E+00
 -1.14498798E+00  2.69245669E-04  1.48474256E+00 -4.12681476E+00  3.99521733E-04
 -4.85505817E+00  2.80695735E+00 -3.68357036E-04 -3.05275389E+00 -5.15318996E+00
  4.04610401E-04 -6.28023918E+00 -1.73029251E+00  2.25976068E-05  5.13165582E+00
 -2.33207716E+00 -1.69110706E+00  5.13150332E+00 -2.33172383E+00  1.69188252E+00
  7.03597519E+00 -1.18135927E-01  2.40632862E-04
Force Field                                I                0
Int Atom Types                             I   N=          16
           0           0           0           0           0           0
           0           0           0           0           0           0
           0           0           0           0
MM charges                                 R   N=          16
  0.00000000E+00  0.00000000E+00  0.00000000E+00  0.00000000E+00  0.00000000E+00
  0.00000000E+00  0.00000000E+00  0.00000000E+00  0.00000000E+00  0.00000000E+00
  0.00000000E+00  0.00000000E+00  0.00000000E+00  0.00000000E+00  0.00000000E+00
  0.00000000E+00
Integer atomic weights                     I   N=          16
          19          16          12          12          12          12
          12          12          12           1           1           1
           1           1           1           1
Real atomic weights                        R   N=          16
  1.89984032E+01  1.59949146E+01  1.20000000E+01  1.20000000E+01  1.20000000E+01
  1.20000000E+01  1.20000000E+01  1.20000000E+01  1.20000000E+01  1.00782504E+00
  1.00782504E+00  1.00782504E+00  1.00782504E+00  1.00782504E+00  1.00782504E+00
  1.00782504E+00
Atom fragment info                         I   N=          16
           0           0           0           0           0           0
           0           0           0           0           0           0
           0           0           0           0
Atom residue num                           I   N=          16
           0           0           0           0           0           0
           0           0           0           0           0           0
           0           0           0           0
Nuclear spins                              I   N=          16
           1           0           0           0           0           0
           0           0           0           1           1           1
           1           1           1           1
Nuclear ZEff                               R   N=          16
 -6.75000000E+00 -5.60000000E+00 -3.60000000E+00 -3.60000000E+00 -3.60000000E+00
 -3.60000000E+00 -3.60000000E+00 -3.60000000E+00 -3.60000000E+00 -1.00000000E+00
 -1.00000000E+00 -1.00000000E+00 -1.00000000E+00 -1.00000000E+00 -1.00000000E+00
 -1.00000000E+00
Nuclear QMom                               R   N=          16
  0.00000000E+00  0.00000000E+00  0.00000000E+00  0.00000000E+00  0.00000000E+00
  0.00000000E+00  0.00000000E+00  0.00000000E+00  0.00000000E+00  0.00000000E+00
  0.00000000E+00  0.00000000E+00  0.00000000E+00  0.00000000E+00  0.00000000E+00
  0.00000000E+00
Nuclear GFac                               R   N=          16
  2.62886700E+00  0.00000000E+00  0.00000000E+00  0.00000000E+00  0.00000000E+00
  0.00000000E+00  0.00000000E+00  0.00000000E+00  0.00000000E+00  2.79284600E+00
  2.79284600E+00  2.79284600E+00  2.79284600E+00  2.79284600E+00  2.79284600E+00
  2.79284600E+00
MicOpt                                     I   N=          16
          -1          -1          -1          -1          -1          -1
          -1          -1          -1          -1          -1          -1
          -1          -1          -1          -1
Number of contracted shells                I               50
Number of primitive shells                 I              127
Pure/Cartesian d shells                    I                1
Pure/Cartesian f shells                    I                0
Highest angular momentum                   I                2
Largest degree of contraction              I                6
Shell types                                I   N=          50
           0          -1          -1           2           0          -1
          -1           2           0          -1          -1           2
           0          -1          -1           2           0          -1
          -1           2           0          -1          -1           2
           0          -1          -1           2           0          -1
          -1           2           0          -1          -1           2
           0           0           0           0           0           0
           0           0           0           0           0           0
           0           0
Number of primitives per shell             I   N=          50
           6           3           1           1           6           3
           1           1           6           3           1           1
           6           3           1           1           6           3
           1           1           6           3           1           1
           6           3           1           1           6           3
           1           1           6           3           1           1
           3           1           3           1           3           1
           3           1           3           1           3           1
           3           1
Shell to atom map                          I   N=          50
           1           1           1           1           2           2
           2           2           3           3           3           3
           4           4           4           4           5           5
           5           5           6           6           6           6
           7           7           7           7           8           8
           8           8           9           9           9           9
          10          10          11          11          12          12
          13          13          14          14          15          15
          16          16
Primitive exponents                        R   N=         127
  7.00171309E+03  1.05136609E+03  2.39285690E+02  6.73974453E+01  2.15199573E+01
  7.40310130E+00  2.08479528E+01  4.80830834E+00  1.34406986E+00  3.58151393E-01
  8.00000000E-01  5.48467166E+03  8.25234946E+02  1.88046958E+02  5.29645000E+01
  1.68975704E+01  5.79963534E+00  1.55396162E+01  3.59993359E+00  1.01376175E+00
  2.70005823E-01  8.00000000E-01  3.04752488E+03  4.57369518E+02  1.03948685E+02
  2.92101553E+01  9.28666296E+00  3.16392696E+00  7.86827235E+00  1.88128854E+00
  5.44249258E-01  1.68714478E-01  8.00000000E-01  3.04752488E+03  4.57369518E+02
  1.03948685E+02  2.92101553E+01  9.28666296E+00  3.16392696E+00  7.86827235E+00
  1.88128854E+00  5.44249258E-01  1.68714478E-01  8.00000000E-01  3.04752488E+03
  4.57369518E+02  1.03948685E+02  2.92101553E+01  9.28666296E+00  3.16392696E+00
  7.86827235E+00  1.88128854E+00  5.44249258E-01  1.68714478E-01  8.00000000E-01
  3.04752488E+03  4.57369518E+02  1.03948685E+02  2.92101553E+01  9.28666296E+00
  3.16392696E+00  7.86827235E+00  1.88128854E+00  5.44249258E-01  1.68714478E-01
  8.00000000E-01  3.04752488E+03  4.57369518E+02  1.03948685E+02  2.92101553E+01
  9.28666296E+00  3.16392696E+00  7.86827235E+00  1.88128854E+00  5.44249258E-01
  1.68714478E-01  8.00000000E-01  3.04752488E+03  4.57369518E+02  1.03948685E+02
  2.92101553E+01  9.28666296E+00  3.16392696E+00  7.86827235E+00  1.88128854E+00
  5.44249258E-01  1.68714478E-01  8.00000000E-01  3.04752488E+03  4.57369518E+02
  1.03948685E+02  2.92101553E+01  9.28666296E+00  3.16392696E+00  7.86827235E+00
  1.88128854E+00  5.44249258E-01  1.68714478E-01  8.00000000E-01  1.87311370E+01
  2.82539436E+00  6.40121692E-01  1.61277759E-01  1.87311370E+01  2.82539436E+00
  6.40121692E-01  1.61277759E-01  1.87311370E+01  2.82539436E+00  6.40121692E-01
  1.61277759E-01  1.87311370E+01  2.82539436E+00  6.40121692E-01  1.61277759E-01
  1.87311370E+01  2.82539436E+00  6.40121692E-01  1.61277759E-01  1.87311370E+01
  2.82539436E+00  6.40121692E-01  1.61277759E-01  1.87311370E+01  2.82539436E+00
  6.40121692E-01  1.61277759E-01
Contraction coefficients                   R   N=         127
  1.81961690E-03  1.39160796E-02  6.84053245E-02  2.33185760E-01  4.71267439E-01
  3.56618546E-01 -1.08506975E-01 -1.46451658E-01  1.12868858E+00  1.00000000E+00
  1.00000000E+00  1.83107443E-03  1.39501722E-02  6.84450781E-02  2.32714336E-01
  4.70192898E-01  3.58520853E-01 -1.10777550E-01 -1.48026263E-01  1.13076702E+00
  1.00000000E+00  1.00000000E+00  1.83473713E-03  1.40373228E-02  6.88426223E-02
  2.32184443E-01  4.67941348E-01  3.62311985E-01 -1.19332420E-01 -1.60854152E-01
  1.14345644E+00  1.00000000E+00  1.00000000E+00  1.83473713E-03  1.40373228E-02
  6.88426223E-02  2.32184443E-01  4.67941348E-01  3.62311985E-01 -1.19332420E-01
 -1.60854152E-01  1.14345644E+00  1.00000000E+00  1.00000000E+00  1.83473713E-03
  1.40373228E-02  6.88426223E-02  2.32184443E-01  4.67941348E-01  3.62311985E-01
 -1.19332420E-01 -1.60854152E-01  1.14345644E+00  1.00000000E+00  1.00000000E+00
  1.83473713E-03  1.40373228E-02  6.88426223E-02  2.32184443E-01  4.67941348E-01
  3.62311985E-01 -1.19332420E-01 -1.60854152E-01  1.14345644E+00  1.00000000E+00
  1.00000000E+00  1.83473713E-03  1.40373228E-02  6.88426223E-02  2.32184443E-01
  4.67941348E-01  3.62311985E-01 -1.19332420E-01 -1.60854152E-01  1.14345644E+00
  1.00000000E+00  1.00000000E+00  1.83473713E-03  1.40373228E-02  6.88426223E-02
  2.32184443E-01  4.67941348E-01  3.62311985E-01 -1.19332420E-01 -1.60854152E-01
  1.14345644E+00  1.00000000E+00  1.00000000E+00  1.83473713E-03  1.40373228E-02
  6.88426223E-02  2.32184443E-01  4.67941348E-01  3.62311985E-01 -1.19332420E-01
 -1.60854152E-01  1.14345644E+00  1.00000000E+00  1.00000000E+00  3.34946043E-02
  2.34726953E-01  8.13757326E-01  1.00000000E+00  3.34946043E-02  2.34726953E-01
  8.13757326E-01  1.00000000E+00  3.34946043E-02  2.34726953E-01  8.13757326E-01
  1.00000000E+00  3.34946043E-02  2.34726953E-01  8.13757326E-01  1.00000000E+00
  3.34946043E-02  2.34726953E-01  8.13757326E-01  1.00000000E+00  3.34946043E-02
  2.34726953E-01  8.13757326E-01  1.00000000E+00  3.34946043E-02  2.34726953E-01
  8.13757326E-01  1.00000000E+00
P(S=P) Contraction coefficients            R   N=         127
  0.00000000E+00  0.00000000E+00  0.00000000E+00  0.00000000E+00  0.00000000E+00
  0.00000000E+00  7.16287242E-02  3.45912103E-01  7.22469956E-01  1.00000000E+00
  0.00000000E+00  0.00000000E+00  0.00000000E+00  0.00000000E+00  0.00000000E+00
  0.00000000E+00  0.00000000E+00  7.08742682E-02  3.39752839E-01  7.27158577E-01
  1.00000000E+00  0.00000000E+00  0.00000000E+00  0.00000000E+00  0.00000000E+00
  0.00000000E+00  0.00000000E+00  0.00000000E+00  6.89990666E-02  3.16423961E-01
  7.44308291E-01  1.00000000E+00  0.00000000E+00  0.00000000E+00  0.00000000E+00
  0.00000000E+00  0.00000000E+00  0.00000000E+00  0.00000000E+00  6.89990666E-02
  3.16423961E-01  7.44308291E-01  1.00000000E+00  0.00000000E+00  0.00000000E+00
  0.00000000E+00  0.00000000E+00  0.00000000E+00  0.00000000E+00  0.00000000E+00
  6.89990666E-02  3.16423961E-01  7.44308291E-01  1.00000000E+00  0.00000000E+00
  0.00000000E+00  0.00000000E+00  0.00000000E+00  0.00000000E+00  0.00000000E+00
  0.00000000E+00  6.89990666E-02  3.16423961E-01  7.44308291E-01  1.00000000E+00
  0.00000000E+00  0.00000000E+00  0.00000000E+00  0.00000000E+00  0.00000000E+00
  0.00000000E+00  0.00000000E+00  6.89990666E-02  3.16423961E-01  7.44308291E-01
  1.00000000E+00  0.00000000E+00  0.00000000E+00  0.00000000E+00  0.00000000E+00
  0.00000000E+00  0.00000000E+00  0.00000000E+00  6.89990666E-02  3.16423961E-01
  7.44308291E-01  1.00000000E+00  0.00000000E+00  0.00000000E+00  0.00000000E+00
  0.00000000E+00  0.00000000E+00  0.00000000E+00  0.00000000E+00  6.89990666E-02
  3.16423961E-01  7.44308291E-01  1.00000000E+00  0.00000000E+00  0.00000000E+00
  0.00000000E+00  0.00000000E+00  0.00000000E+00  0.00000000E+00  0.00000000E+00
  0.00000000E+00  0.00000000E+00  0.00000000E+00  0.00000000E+00  0.00000000E+00
  0.00000000E+00  0.00000000E+00  0.00000000E+00  0.00000000E+00  0.00000000E+00
  0.00000000E+00  0.00000000E+00  0.00000000E+00  0.00000000E+00  0.00000000E+00
  0.00000000E+00  0.00000000E+00  0.00000000E+00  0.00000000E+00  0.00000000E+00
  0.00000000E+00  0.00000000E+00
Coordinates of each shell                  R   N=         150
 -1.82090363E-01  4.25150787E+00 -4.06840709E-04 -1.82090363E-01  4.25150787E+00
 -4.06840709E-04 -1.82090363E-01  4.25150787E+00 -4.06840709E-04 -1.82090363E-01
  4.25150787E+00 -4.06840709E-04  3.34174105E+00  7.54209340E-01 -1.36017222E-05
  3.34174105E+00  7.54209340E-01 -1.36017222E-05  3.34174105E+00  7.54209340E-01
 -1.36017222E-05  3.34174105E+00  7.54209340E-01 -1.36017222E-05  9.01497640E-01
 -8.38117644E-02  1.81023691E-05  9.01497640E-01 -8.38117644E-02  1.81023691E-05
  9.01497640E-01 -8.38117644E-02  1.81023691E-05  9.01497640E-01 -8.38117644E-02
  1.81023691E-05 -9.54760349E-01  1.81302671E+00 -1.96231434E-04 -9.54760349E-01
  1.81302671E+00 -1.96231434E-04 -9.54760349E-01  1.81302671E+00 -1.96231434E-04
 -9.54760349E-01  1.81302671E+00 -1.96231434E-04  1.12092314E-01 -2.60446096E+00
  2.33976126E-04  1.12092314E-01 -2.60446096E+00  2.33976126E-04  1.12092314E-01
 -2.60446096E+00  2.33976126E-04  1.12092314E-01 -2.60446096E+00  2.33976126E-04
 -3.50908329E+00  1.25767775E+00 -1.98095637E-04 -3.50908329E+00  1.25767775E+00
 -1.98095637E-04 -3.50908329E+00  1.25767775E+00 -1.98095637E-04 -3.50908329E+00
  1.25767775E+00 -1.98095637E-04 -2.47123996E+00 -3.18341394E+00  2.34813370E-04
 -2.47123996E+00 -3.18341394E+00  2.34813370E-04 -2.47123996E+00 -3.18341394E+00
  2.34813370E-04 -2.47123996E+00 -3.18341394E+00  2.34813370E-04 -4.27921578E+00
 -1.27269127E+00  2.08412474E-05 -4.27921578E+00 -1.27269127E+00  2.08412474E-05
 -4.27921578E+00 -1.27269127E+00  2.08412474E-05 -4.27921578E+00 -1.27269127E+00
  2.08412474E-05  5.25221929E+00 -1.14498798E+00  2.69245669E-04  5.25221929E+00
 -1.14498798E+00  2.69245669E-04  5.25221929E+00 -1.14498798E+00  2.69245669E-04
  5.25221929E+00 -1.14498798E+00  2.69245669E-04  1.48474256E+00 -4.12681476E+00
  3.99521733E-04  1.48474256E+00 -4.12681476E+00  3.99521733E-04 -4.85505817E+00
  2.80695735E+00 -3.68357036E-04 -4.85505817E+00  2.80695735E+00 -3.68357036E-04
 -3.05275389E+00 -5.15318996E+00  4.04610401E-04 -3.05275389E+00 -5.15318996E+00
  4.04610401E-04 -6.28023918E+00 -1.73029251E+00  2.25976068E-05 -6.28023918E+00
 -1.73029251E+00  2.25976068E-05  5.13165582E+00 -2.33207716E+00 -1.69110706E+00
  5.13165582E+00 -2.33207716E+00 -1.69110706E+00  5.13150332E+00 -2.33172383E+00
  1.69188252E+00  5.13150332E+00 -2.33172383E+00  1.69188252E+00  7.03597519E+00
 -1.18135927E-01  2.40632862E-04  7.03597519E+00 -1.18135927E-01  2.40632862E-04
Constraint Structure                       R   N=          48
 -1.82090363E-01  4.25150787E+00 -4.06840709E-04  3.34174105E+00  7.54209340E-01
 -1.36017222E-05  9.01497640E-01 -8.38117644E-02  1.81023691E-05 -9.54760349E-01
  1.81302671E+00 -1.96231434E-04  1.12092314E-01 -2.60446096E+00  2.33976126E-04
 -3.50908329E+00  1.25767775E+00 -1.98095637E-04 -2.47123996E+00 -3.18341394E+00
  2.34813370E-04 -4.27921578E+00 -1.27269127E+00  2.08412474E-05  5.25221929E+00
 -1.14498798E+00  2.69245669E-04  1.48474256E+00 -4.12681476E+00  3.99521733E-04
 -4.85505817E+00  2.80695735E+00 -3.68357036E-04 -3.05275389E+00 -5.15318996E+00
  4.04610401E-04 -6.28023918E+00 -1.73029251E+00  2.25976068E-05  5.13165582E+00
 -2.33207716E+00 -1.69110706E+00  5.13150332E+00 -2.33172383E+00  1.69188252E+00
  7.03597519E+00 -1.18135927E-01  2.40632862E-04
Num ILSW                                   I              100
ILSW                                       I   N=         100
           0           1           0           0           2           0
           0           0           0           0           0          -1
           0           0           0           0           0           0
           0           0           0           0           1           0
           1           0           0           0           0           0
           0           0      100000           0          -1           0
           0           0           0           0           0           0
           0           0           0           1           1           0
           0           0           1           0           0           0
           0           0           4          40           0           0
           0           0           0           0           0           0
           0           0           0           0           0           0
           0           0           0           0           0           0
           0           0           0           0           0           0
           0           0           0           0           0           0
           0           0           0           0           0           0
           0           0           0           0
Num RLSW                                   I               40
RLSW                                       R   N=          40
  1.00000000E+00  1.00000000E+00  1.00000000E+00  1.00000000E+00  1.00000000E+00
  0.00000000E+00  0.00000000E+00  1.00000000E+00  0.00000000E+00  0.00000000E+00
  0.00000000E+00  0.00000000E+00  1.00000000E+00  0.00000000E+00  0.00000000E+00
  0.00000000E+00  0.00000000E+00  1.00000000E+00  0.00000000E+00  0.00000000E+00
  0.00000000E+00  0.00000000E+00  1.00000000E+00  0.00000000E+00  0.00000000E+00
  0.00000000E+00  0.00000000E+00  1.00000000E+00  0.00000000E+00  0.00000000E+00
  0.00000000E+00  0.00000000E+00  0.00000000E+00  0.00000000E+00  0.00000000E+00
  0.00000000E+00  0.00000000E+00  0.00000000E+00  1.00000000E+00  1.00000000E+00
MxBond                                     I                4
NBond                                      I   N=          16
           1           2           3           3           3           3
           3           3           4           1           1           1
           1           1           1           1
IBond                                      I   N=          64
           4           0           0           0           3           9
           0           0           2           4           5           0
           1           3           6           0           3           7
          10           0           4           8          11           0
           5           8          12           0           6           7
          13           0           2          14          15          16
           5           0           0           0           6           0
           0           0           7           0           0           0
           8           0           0           0           9           0
           0           0           9           0           0           0
           9           0           0           0
RBond                                      R   N=          64
  1.00000000E+00  0.00000000E+00  0.00000000E+00  0.00000000E+00  1.50000000E+00
  1.00000000E+00  0.00000000E+00  0.00000000E+00  1.50000000E+00  1.50000000E+00
  1.50000000E+00  0.00000000E+00  1.00000000E+00  1.50000000E+00  1.50000000E+00
  0.00000000E+00  1.50000000E+00  1.50000000E+00  1.00000000E+00  0.00000000E+00
  1.50000000E+00  1.50000000E+00  1.00000000E+00  0.00000000E+00  1.50000000E+00
  1.50000000E+00  1.00000000E+00  0.00000000E+00  1.50000000E+00  1.50000000E+00
  1.00000000E+00  0.00000000E+00  1.00000000E+00  1.00000000E+00  1.00000000E+00
  1.00000000E+00  1.00000000E+00  0.00000000E+00  0.00000000E+00  0.00000000E+00
  1.00000000E+00  0.00000000E+00  0.00000000E+00  0.00000000E+00  1.00000000E+00
  0.00000000E+00  0.00000000E+00  0.00000000E+00  1.00000000E+00  0.00000000E+00
  0.00000000E+00  0.00000000E+00  1.00000000E+00  0.00000000E+00  0.00000000E+00
  0.00000000E+00  1.00000000E+00  0.00000000E+00  0.00000000E+00  0.00000000E+00
  1.00000000E+00  0.00000000E+00  0.00000000E+00  0.00000000E+00
Virial Ratio                               R      2.002330986002399E+00
SCF Energy                                 R     -4.434253079572684E+02
MP2 Energy                                 R     -4.446593276354723E+02
Total Energy                               R     -4.446593276354723E+02
Post-SCF wavefunction norm                 R      1.676153895566455E+00
RMS Force                                  R      3.184312890011188E-07
RMS Density                                R      2.552295900999495E-09
External E-field                           R   N=          35
  0.00000000E+00  0.00000000E+00  0.00000000E+00  0.00000000E+00  0.00000000E+00
  0.00000000E+00  0.00000000E+00  0.00000000E+00  0.00000000E+00  0.00000000E+00
  0.00000000E+00  0.00000000E+00  0.00000000E+00  0.00000000E+00  0.00000000E+00
  0.00000000E+00  0.00000000E+00  0.00000000E+00  0.00000000E+00  0.00000000E+00
  0.00000000E+00  0.00000000E+00  0.00000000E+00  0.00000000E+00  0.00000000E+00
  0.00000000E+00  0.00000000E+00  0.00000000E+00  0.00000000E+00  0.00000000E+00
  0.00000000E+00  0.00000000E+00  0.00000000E+00  0.00000000E+00  0.00000000E+00
IOpCl                                      I                0
IROHF                                      I                0
Alpha Orbital Energies                     R   N=         149
 -2.62978364E+01 -2.05962531E+01 -1.13206929E+01 -1.13099997E+01 -1.12905234E+01
 -1.12464054E+01 -1.12461656E+01 -1.12452442E+01 -1.12413196E+01 -1.60520112E+00
 -1.41006663E+00 -1.15403723E+00 -1.02529909E+00 -1.02228022E+00 -9.47656221E-01
 -8.43349612E-01 -8.25855753E-01 -7.38362742E-01 -7.01712832E-01 -6.99401593E-01
 -6.78803283E-01 -6.50598758E-01 -6.37945275E-01 -6.21308068E-01 -6.17019056E-01
 -5.75108488E-01 -5.44534402E-01 -5.25195390E-01 -5.14369219E-01 -4.96972549E-01
 -4.71437746E-01 -3.42517828E-01 -3.13972910E-01  1.38605803E-01  1.50237464E-01
  2.24722162E-01  2.46953439E-01  2.86400824E-01  2.97344556E-01  3.06705004E-01
  3.18182585E-01  3.23906805E-01  3.43134125E-01  3.73842241E-01  3.80736185E-01
  4.38147642E-01  4.78878035E-01  5.06109882E-01  5.31536805E-01  5.77507839E-01
  6.92696252E-01  7.14358354E-01  7.30380382E-01  7.30636217E-01  7.51944681E-01
  7.57613993E-01  7.96013274E-01  8.10905544E-01  8.22117911E-01  8.23304464E-01
  8.32061048E-01  8.36500117E-01  8.60431911E-01  8.92482207E-01  9.02377411E-01
  9.19661640E-01  9.60189931E-01  1.00890544E+00  1.04473472E+00  1.09724961E+00
  1.10722803E+00  1.11326427E+00  1.12517046E+00  1.14355341E+00  1.16037042E+00
  1.16642997E+00  1.18574622E+00  1.20646843E+00  1.23490040E+00  1.27033423E+00
  1.28084749E+00  1.30648087E+00  1.32258129E+00  1.36156674E+00  1.45333834E+00
  1.47968955E+00  1.48326326E+00  1.54232247E+00  1.54828853E+00  1.58927192E+00
  1.63556362E+00  1.66017581E+00  1.69572541E+00  1.70252207E+00  1.72559481E+00
  1.74204686E+00  1.76822002E+00  1.79172683E+00  1.79335493E+00  1.95296827E+00
  2.02632875E+00  2.07455019E+00  2.09772434E+00  2.10988907E+00  2.12466646E+00
  2.14629699E+00  2.19753469E+00  2.22325602E+00  2.26121268E+00  2.29380219E+00
  2.30135969E+00  2.33287606E+00  2.34242594E+00  2.39462106E+00  2.42526975E+00
  2.44638962E+00  2.46608916E+00  2.50629387E+00  2.54495874E+00  2.56955534E+00
  2.57882958E+00  2.61022619E+00  2.65393559E+00  2.66650545E+00  2.69747171E+00
  2.78469191E+00  2.86500298E+00  2.90494912E+00  2.94675852E+00  3.00318359E+00
  3.01061883E+00  3.02365289E+00  3.07890350E+00  3.09189170E+00  3.20812257E+00
  3.24273755E+00  3.33447389E+00  3.48513236E+00  3.62418422E+00  3.80222458E+00
  4.42872717E+00  4.50622442E+00  4.52740819E+00  4.63110940E+00  4.68933633E+00
  4.78573654E+00  4.83534900E+00  5.06648787E+00  6.07541611E+00
Alpha MO coefficients                      R   N=       22201
  9.94433015E-01  1.77935672E-02 -2.94699699E-04 -8.91427623E-04  7.68325581E-08
  8.01560139E-03  2.01885050E-04  6.49638315E-04 -5.61829601E-08 -4.55055596E-03
 -4.99823593E-03 -4.52676370E-03 -1.77807360E-04  1.59233194E-08  4.69102477E-08
  9.31521558E-06  3.42654760E-05 -1.55254688E-05  2.19217039E-05 -2.40452252E-09
 -1.43036993E-04  7.77250966E-05 -5.25648507E-05  7.12581594E-09  2.76132639E-05
  2.58814159E-05  4.20886585E-05  1.01334835E-06 -1.95111789E-10  1.39903344E-09
  7.29852380E-06  1.12498617E-04  1.48469113E-05 -8.81578597E-06  1.04626896E-09
 -4.12523418E-04  3.04690857E-04 -1.37377032E-04  1.90918331E-08 -2.51050352E-05
 -9.12078529E-05  4.67670163E-06  3.67415056E-05 -4.13671899E-09  1.10044989E-08
 -1.58991568E-05  2.34871377E-04  1.60467556E-04  5.34584366E-04 -4.63185247E-08
  6.09768799E-04 -1.58969547E-05 -2.07746365E-04  1.87000374E-08  5.42268293E-05
  3.01567276E-04 -7.81267680E-05  1.00350059E-04 -6.15747614E-09 -3.86598749E-08
 -3.02946560E-06 -2.16825783E-05  7.53570964E-06  3.90394526E-06 -2.89953788E-10
  1.88739529E-04 -1.91135629E-04  1.51615908E-04 -1.75304822E-08  6.63675658E-06
  1.49338327E-05 -7.85839442E-06  1.15963852E-05 -6.93457574E-10 -2.19167663E-09
  4.21469197E-06  9.91727686E-05 -1.26447478E-05 -5.99236558E-06  2.67615490E-10
 -2.81592125E-04 -3.12883643E-04 -9.73283537E-06 -5.44869633E-09 -7.82728188E-05
 -5.10481256E-05  1.58260683E-06 -4.48781543E-05  2.25616772E-09  4.70790561E-09
  2.35696632E-06  1.99868538E-05 -2.00502739E-06 -5.72459648E-06  5.16309408E-10
 -3.56810561E-04 -1.51994491E-05 -1.79919556E-04  1.61684132E-08 -1.06096967E-05
 -4.14103080E-06  3.84343615E-06  3.98211162E-06 -7.27223999E-10  9.25923656E-10
 -2.60911912E-06 -2.10094110E-05 -5.21125329E-06  1.11393892E-05 -1.14147783E-09
  1.72593287E-04  2.38572330E-04 -7.00591157E-05  1.13986741E-08  1.59581652E-06
  2.35392207E-05 -6.52422444E-06 -2.93438990E-06  4.68334021E-10 -3.29349923E-09
  1.04104938E-06  1.40463506E-05  5.92901570E-06 -1.13635611E-05  1.27519842E-09
 -7.54034992E-05  5.05642505E-05  4.07906876E-06  2.49897199E-09 -8.63552855E-06
 -2.81164394E-06 -1.23219668E-06  7.78471053E-06 -1.14935594E-09  4.40114642E-10
  1.33097661E-05  8.91662017E-05  1.91029790E-05 -9.91608664E-05 -1.97247958E-06
 -3.95846263E-05  1.54074038E-05  6.99419395E-05  6.31594358E-06  7.94487191E-06
  6.31556597E-06  7.94451964E-06 -1.62254816E-06 -1.09981742E-05  7.84204089E-06
  3.04737342E-05  2.41047353E-05 -9.54647897E-06  1.17546996E-09 -3.65578696E-05
 -5.12636677E-05  2.29591426E-05 -2.42574130E-09  2.14537328E-05  2.66786962E-05
  5.58119592E-05  8.33338226E-06 -1.51942429E-09  3.14829271E-09  9.94656779E-01
  2.12628562E-02 -3.78781493E-04 -1.29069049E-03  1.40648342E-07  3.70657235E-03
  7.63626964E-05  8.96006226E-04 -9.86066329E-08 -4.16189297E-03 -4.08715984E-03
 -3.84242966E-03  5.48734824E-05 -1.80765197E-08  3.59717042E-08 -6.35924944E-06
  3.63646991E-04  3.17565797E-04  1.35138856E-04 -7.16031320E-09  3.37710770E-05
  3.39086756E-04 -9.39876146E-04  1.01202349E-07 -6.16887264E-05  3.80500374E-06
 -6.75584622E-05 -9.03052259E-06  1.33166296E-09 -7.70927232E-09 -8.02417016E-06
 -4.97195759E-06  1.59947200E-05  2.27629642E-05 -1.98614230E-09  1.00604762E-03
 -7.82314870E-05 -4.47262816E-04  3.78144429E-08 -5.80144448E-05 -5.60505620E-06
 -2.49504239E-05  2.99585300E-05 -3.64221068E-09 -1.20617934E-09  6.06222342E-06
  7.34855552E-05 -2.10152678E-05 -1.45981129E-05  1.21523831E-09 -5.39150575E-04
 -3.96386213E-04 -4.28252294E-04  2.80727691E-08 -4.57056667E-05 -2.87761798E-05
  1.85819504E-06 -6.32308715E-05  4.67537788E-09  1.42698316E-09  8.45101207E-06
  4.45094302E-05 -4.34441395E-06 -7.72740992E-06  7.17602983E-10 -5.77880039E-04
 -2.62922780E-04  2.43168830E-04 -2.75634765E-08 -9.36934983E-08  9.85690237E-06
  1.63893280E-05  1.58764722E-05 -1.80872149E-09  1.08601350E-09  2.91725808E-07
  2.13385609E-06  1.80023965E-05 -1.07310595E-05  1.32775183E-09 -2.25698573E-04
 -1.70866839E-04  8.82564606E-05 -1.05369646E-08  1.95344359E-05 -5.07274075E-06
 -4.29342837E-07 -5.03133609E-06  1.07325227E-09  4.09284040E-10 -1.28752458E-06