154_EMsulfonate Gaussian SP Calculation on g2-node38.bme.utexas.edu     
Freq      RMP2-FC                                                     6-31G(d)            
Number of atoms                            I               15
Info1-9                                    I   N=           9
          26          25        1002           0           0         100
           6           2           1
Charge                                     I                0
Multiplicity                               I                1
Number of electrons                        I               66
Number of alpha electrons                  I               33
Number of beta electrons                   I               33
Number of basis functions                  I              125
Number of independent functions            I              125
Number of point charges in /Mol/           I                0
Number of translation vectors              I                0
Atomic numbers                             I   N=          15
          16           8           8           8           6           6
           6           1           1           1           1           1
           1           1           1
Nuclear charges                            R   N=          15
  1.60000000E+01  8.00000000E+00  8.00000000E+00  8.00000000E+00  6.00000000E+00
  6.00000000E+00  6.00000000E+00  1.00000000E+00  1.00000000E+00  1.00000000E+00
  1.00000000E+00  1.00000000E+00  1.00000000E+00  1.00000000E+00  1.00000000E+00
Current cartesian coordinates              R   N=          45
 -1.60142312E+00 -3.08921936E-01  5.18223767E-06  1.20121063E+00  1.00096965E+00
 -1.66244294E-05 -1.98223689E+00 -1.63638113E+00  2.39169431E+00 -1.98224534E+00
 -1.63643842E+00 -2.39165078E+00  3.27447644E+00 -8.24557427E-01 -1.94323012E-05
 -3.33734337E+00  2.55340393E+00 -2.44135218E-05  5.68227000E+00  7.07226089E-01
  1.04114006E-05  3.10587984E+00 -2.00685866E+00  1.68632463E+00  3.10589993E+00
 -2.00682863E+00 -1.68638638E+00 -5.33444318E+00  2.04088968E+00 -5.86892413E-06
 -2.86589049E+00  3.61616114E+00  1.69880627E+00 -2.86590958E+00  3.61611491E+00
 -1.69888930E+00  7.31236812E+00 -5.63414274E-01  5.31743937E-06  5.77731913E+00
  1.90254339E+00 -1.67877907E+00  5.77730046E+00  1.90250698E+00  1.67882678E+00
Force Field                                I                0
Int Atom Types                             I   N=          15
           0           0           0           0           0           0
           0           0           0           0           0           0
           0           0           0
MM charges                                 R   N=          15
  0.00000000E+00  0.00000000E+00  0.00000000E+00  0.00000000E+00  0.00000000E+00
  0.00000000E+00  0.00000000E+00  0.00000000E+00  0.00000000E+00  0.00000000E+00
  0.00000000E+00  0.00000000E+00  0.00000000E+00  0.00000000E+00  0.00000000E+00
Integer atomic weights                     I   N=          15
          32          16          16          16          12          12
          12           1           1           1           1           1
           1           1           1
Real atomic weights                        R   N=          15
  3.19720718E+01  1.59949146E+01  1.59949146E+01  1.59949146E+01  1.20000000E+01
  1.20000000E+01  1.20000000E+01  1.00782504E+00  1.00782504E+00  1.00782504E+00
  1.00782504E+00  1.00782504E+00  1.00782504E+00  1.00782504E+00  1.00782504E+00
Atom fragment info                         I   N=          15
           0           0           0           0           0           0
           0           0           0           0           0           0
           0           0           0
Atom residue num                           I   N=          15
           0           0           0           0           0           0
           0           0           0           0           0           0
           0           0           0
Nuclear spins                              I   N=          15
           0           0           0           0           0           0
           0           1           1           1           1           1
           1           1           1
Nuclear ZEff                               R   N=          15
 -1.36000000E+01 -5.60000000E+00 -5.60000000E+00 -5.60000000E+00 -3.60000000E+00
 -3.60000000E+00 -3.60000000E+00 -1.00000000E+00 -1.00000000E+00 -1.00000000E+00
 -1.00000000E+00 -1.00000000E+00 -1.00000000E+00 -1.00000000E+00 -1.00000000E+00
Nuclear QMom                               R   N=          15
  0.00000000E+00  0.00000000E+00  0.00000000E+00  0.00000000E+00  0.00000000E+00
  0.00000000E+00  0.00000000E+00  0.00000000E+00  0.00000000E+00  0.00000000E+00
  0.00000000E+00  0.00000000E+00  0.00000000E+00  0.00000000E+00  0.00000000E+00
Nuclear GFac                               R   N=          15
  0.00000000E+00  0.00000000E+00  0.00000000E+00  0.00000000E+00  0.00000000E+00
  0.00000000E+00  0.00000000E+00  2.79284600E+00  2.79284600E+00  2.79284600E+00
  2.79284600E+00  2.79284600E+00  2.79284600E+00  2.79284600E+00  2.79284600E+00
MicOpt                                     I   N=          15
          -1          -1          -1          -1          -1          -1
          -1          -1          -1          -1          -1          -1
          -1          -1          -1
Number of contracted shells                I               45
Number of primitive shells                 I              115
Pure/Cartesian d shells                    I                1
Pure/Cartesian f shells                    I                0
Highest angular momentum                   I                2
Largest degree of contraction              I                6
Shell types                                I   N=          45
           0          -1          -1          -1           2           0
          -1          -1           2           0          -1          -1
           2           0          -1          -1           2           0
          -1          -1           2           0          -1          -1
           2           0          -1          -1           2           0
           0           0           0           0           0           0
           0           0           0           0           0           0
           0           0           0
Number of primitives per shell             I   N=          45
           6           6           3           1           1           6
           3           1           1           6           3           1
           1           6           3           1           1           6
           3           1           1           6           3           1
           1           6           3           1           1           3
           1           3           1           3           1           3
           1           3           1           3           1           3
           1           3           1
Shell to atom map                          I   N=          45
           1           1           1           1           1           2
           2           2           2           3           3           3
           3           4           4           4           4           5
           5           5           5           6           6           6
           6           7           7           7           7           8
           8           9           9          10          10          11
          11          12          12          13          13          14
          14          15          15
Primitive exponents                        R   N=         115
  2.19171000E+04  3.30149000E+03  7.54146000E+02  2.12711000E+02  6.79896000E+01
  2.30515000E+01  4.23735000E+02  1.00710000E+02  3.21599000E+01  1.18079000E+01
  4.63110000E+00  1.87025000E+00  2.61584000E+00  9.22167000E-01  3.41287000E-01
  1.17167000E-01  6.50000000E-01  5.48467166E+03  8.25234946E+02  1.88046958E+02
  5.29645000E+01  1.68975704E+01  5.79963534E+00  1.55396162E+01  3.59993359E+00
  1.01376175E+00  2.70005823E-01  8.00000000E-01  5.48467166E+03  8.25234946E+02
  1.88046958E+02  5.29645000E+01  1.68975704E+01  5.79963534E+00  1.55396162E+01
  3.59993359E+00  1.01376175E+00  2.70005823E-01  8.00000000E-01  5.48467166E+03
  8.25234946E+02  1.88046958E+02  5.29645000E+01  1.68975704E+01  5.79963534E+00
  1.55396162E+01  3.59993359E+00  1.01376175E+00  2.70005823E-01  8.00000000E-01
  3.04752488E+03  4.57369518E+02  1.03948685E+02  2.92101553E+01  9.28666296E+00
  3.16392696E+00  7.86827235E+00  1.88128854E+00  5.44249258E-01  1.68714478E-01
  8.00000000E-01  3.04752488E+03  4.57369518E+02  1.03948685E+02  2.92101553E+01
  9.28666296E+00  3.16392696E+00  7.86827235E+00  1.88128854E+00  5.44249258E-01
  1.68714478E-01  8.00000000E-01  3.04752488E+03  4.57369518E+02  1.03948685E+02
  2.92101553E+01  9.28666296E+00  3.16392696E+00  7.86827235E+00  1.88128854E+00
  5.44249258E-01  1.68714478E-01  8.00000000E-01  1.87311370E+01  2.82539436E+00
  6.40121692E-01  1.61277759E-01  1.87311370E+01  2.82539436E+00  6.40121692E-01
  1.61277759E-01  1.87311370E+01  2.82539436E+00  6.40121692E-01  1.61277759E-01
  1.87311370E+01  2.82539436E+00  6.40121692E-01  1.61277759E-01  1.87311370E+01
  2.82539436E+00  6.40121692E-01  1.61277759E-01  1.87311370E+01  2.82539436E+00
  6.40121692E-01  1.61277759E-01  1.87311370E+01  2.82539436E+00  6.40121692E-01
  1.61277759E-01  1.87311370E+01  2.82539436E+00  6.40121692E-01  1.61277759E-01
Contraction coefficients                   R   N=         115
  1.86924085E-03  1.42303065E-02  6.96962317E-02  2.38487108E-01  4.83307220E-01
  3.38074154E-01 -2.37677050E-03 -3.16930067E-02 -1.13317024E-01  5.60900118E-02
  5.92255124E-01  4.55006095E-01 -2.50373114E-01  6.69567631E-02  1.05450627E+00
  1.00000000E+00  1.00000000E+00  1.83107443E-03  1.39501722E-02  6.84450781E-02
  2.32714336E-01  4.70192898E-01  3.58520853E-01 -1.10777550E-01 -1.48026263E-01
  1.13076702E+00  1.00000000E+00  1.00000000E+00  1.83107443E-03  1.39501722E-02
  6.84450781E-02  2.32714336E-01  4.70192898E-01  3.58520853E-01 -1.10777550E-01
 -1.48026263E-01  1.13076702E+00  1.00000000E+00  1.00000000E+00  1.83107443E-03
  1.39501722E-02  6.84450781E-02  2.32714336E-01  4.70192898E-01  3.58520853E-01
 -1.10777550E-01 -1.48026263E-01  1.13076702E+00  1.00000000E+00  1.00000000E+00
  1.83473713E-03  1.40373228E-02  6.88426223E-02  2.32184443E-01  4.67941348E-01
  3.62311985E-01 -1.19332420E-01 -1.60854152E-01  1.14345644E+00  1.00000000E+00
  1.00000000E+00  1.83473713E-03  1.40373228E-02  6.88426223E-02  2.32184443E-01
  4.67941348E-01  3.62311985E-01 -1.19332420E-01 -1.60854152E-01  1.14345644E+00
  1.00000000E+00  1.00000000E+00  1.83473713E-03  1.40373228E-02  6.88426223E-02
  2.32184443E-01  4.67941348E-01  3.62311985E-01 -1.19332420E-01 -1.60854152E-01
  1.14345644E+00  1.00000000E+00  1.00000000E+00  3.34946043E-02  2.34726953E-01
  8.13757326E-01  1.00000000E+00  3.34946043E-02  2.34726953E-01  8.13757326E-01
  1.00000000E+00  3.34946043E-02  2.34726953E-01  8.13757326E-01  1.00000000E+00
  3.34946043E-02  2.34726953E-01  8.13757326E-01  1.00000000E+00  3.34946043E-02
  2.34726953E-01  8.13757326E-01  1.00000000E+00  3.34946043E-02  2.34726953E-01
  8.13757326E-01  1.00000000E+00  3.34946043E-02  2.34726953E-01  8.13757326E-01
  1.00000000E+00  3.34946043E-02  2.34726953E-01  8.13757326E-01  1.00000000E+00
P(S=P) Contraction coefficients            R   N=         115
  0.00000000E+00  0.00000000E+00  0.00000000E+00  0.00000000E+00  0.00000000E+00
  0.00000000E+00  4.06100998E-03  3.06812999E-02  1.30451999E-01  3.27204999E-01
  4.52850998E-01  2.56041999E-01 -1.45104895E-02  3.10262776E-01  7.54482456E-01
  1.00000000E+00  0.00000000E+00  0.00000000E+00  0.00000000E+00  0.00000000E+00
  0.00000000E+00  0.00000000E+00  0.00000000E+00  7.08742682E-02  3.39752839E-01
  7.27158577E-01  1.00000000E+00  0.00000000E+00  0.00000000E+00  0.00000000E+00
  0.00000000E+00  0.00000000E+00  0.00000000E+00  0.00000000E+00  7.08742682E-02
  3.39752839E-01  7.27158577E-01  1.00000000E+00  0.00000000E+00  0.00000000E+00
  0.00000000E+00  0.00000000E+00  0.00000000E+00  0.00000000E+00  0.00000000E+00
  7.08742682E-02  3.39752839E-01  7.27158577E-01  1.00000000E+00  0.00000000E+00
  0.00000000E+00  0.00000000E+00  0.00000000E+00  0.00000000E+00  0.00000000E+00
  0.00000000E+00  6.89990666E-02  3.16423961E-01  7.44308291E-01  1.00000000E+00
  0.00000000E+00  0.00000000E+00  0.00000000E+00  0.00000000E+00  0.00000000E+00
  0.00000000E+00  0.00000000E+00  6.89990666E-02  3.16423961E-01  7.44308291E-01
  1.00000000E+00  0.00000000E+00  0.00000000E+00  0.00000000E+00  0.00000000E+00
  0.00000000E+00  0.00000000E+00  0.00000000E+00  6.89990666E-02  3.16423961E-01
  7.44308291E-01  1.00000000E+00  0.00000000E+00  0.00000000E+00  0.00000000E+00
  0.00000000E+00  0.00000000E+00  0.00000000E+00  0.00000000E+00  0.00000000E+00
  0.00000000E+00  0.00000000E+00  0.00000000E+00  0.00000000E+00  0.00000000E+00
  0.00000000E+00  0.00000000E+00  0.00000000E+00  0.00000000E+00  0.00000000E+00
  0.00000000E+00  0.00000000E+00  0.00000000E+00  0.00000000E+00  0.00000000E+00
  0.00000000E+00  0.00000000E+00  0.00000000E+00  0.00000000E+00  0.00000000E+00
  0.00000000E+00  0.00000000E+00  0.00000000E+00  0.00000000E+00  0.00000000E+00
Coordinates of each shell                  R   N=         135
 -1.60142312E+00 -3.08921936E-01  5.18223767E-06 -1.60142312E+00 -3.08921936E-01
  5.18223767E-06 -1.60142312E+00 -3.08921936E-01  5.18223767E-06 -1.60142312E+00
 -3.08921936E-01  5.18223767E-06 -1.60142312E+00 -3.08921936E-01  5.18223767E-06
  1.20121063E+00  1.00096965E+00 -1.66244294E-05  1.20121063E+00  1.00096965E+00
 -1.66244294E-05  1.20121063E+00  1.00096965E+00 -1.66244294E-05  1.20121063E+00
  1.00096965E+00 -1.66244294E-05 -1.98223689E+00 -1.63638113E+00  2.39169431E+00
 -1.98223689E+00 -1.63638113E+00  2.39169431E+00 -1.98223689E+00 -1.63638113E+00
  2.39169431E+00 -1.98223689E+00 -1.63638113E+00  2.39169431E+00 -1.98224534E+00
 -1.63643842E+00 -2.39165078E+00 -1.98224534E+00 -1.63643842E+00 -2.39165078E+00
 -1.98224534E+00 -1.63643842E+00 -2.39165078E+00 -1.98224534E+00 -1.63643842E+00
 -2.39165078E+00  3.27447644E+00 -8.24557427E-01 -1.94323012E-05  3.27447644E+00
 -8.24557427E-01 -1.94323012E-05  3.27447644E+00 -8.24557427E-01 -1.94323012E-05
  3.27447644E+00 -8.24557427E-01 -1.94323012E-05 -3.33734337E+00  2.55340393E+00
 -2.44135218E-05 -3.33734337E+00  2.55340393E+00 -2.44135218E-05 -3.33734337E+00
  2.55340393E+00 -2.44135218E-05 -3.33734337E+00  2.55340393E+00 -2.44135218E-05
  5.68227000E+00  7.07226089E-01  1.04114006E-05  5.68227000E+00  7.07226089E-01
  1.04114006E-05  5.68227000E+00  7.07226089E-01  1.04114006E-05  5.68227000E+00
  7.07226089E-01  1.04114006E-05  3.10587984E+00 -2.00685866E+00  1.68632463E+00
  3.10587984E+00 -2.00685866E+00  1.68632463E+00  3.10589993E+00 -2.00682863E+00
 -1.68638638E+00  3.10589993E+00 -2.00682863E+00 -1.68638638E+00 -5.33444318E+00
  2.04088968E+00 -5.86892413E-06 -5.33444318E+00  2.04088968E+00 -5.86892413E-06
 -2.86589049E+00  3.61616114E+00  1.69880627E+00 -2.86589049E+00  3.61616114E+00
  1.69880627E+00 -2.86590958E+00  3.61611491E+00 -1.69888930E+00 -2.86590958E+00
  3.61611491E+00 -1.69888930E+00  7.31236812E+00 -5.63414274E-01  5.31743937E-06
  7.31236812E+00 -5.63414274E-01  5.31743937E-06  5.77731913E+00  1.90254339E+00
 -1.67877907E+00  5.77731913E+00  1.90254339E+00 -1.67877907E+00  5.77730046E+00
  1.90250698E+00  1.67882678E+00  5.77730046E+00  1.90250698E+00  1.67882678E+00
Constraint Structure                       R   N=          45
 -1.60142312E+00 -3.08921936E-01  5.18223767E-06  1.20121063E+00  1.00096965E+00
 -1.66244294E-05 -1.98223689E+00 -1.63638113E+00  2.39169431E+00 -1.98224534E+00
 -1.63643842E+00 -2.39165078E+00  3.27447644E+00 -8.24557427E-01 -1.94323012E-05
 -3.33734337E+00  2.55340393E+00 -2.44135218E-05  5.68227000E+00  7.07226089E-01
  1.04114006E-05  3.10587984E+00 -2.00685866E+00  1.68632463E+00  3.10589993E+00
 -2.00682863E+00 -1.68638638E+00 -5.33444318E+00  2.04088968E+00 -5.86892413E-06
 -2.86589049E+00  3.61616114E+00  1.69880627E+00 -2.86590958E+00  3.61611491E+00
 -1.69888930E+00  7.31236812E+00 -5.63414274E-01  5.31743937E-06  5.77731913E+00
  1.90254339E+00 -1.67877907E+00  5.77730046E+00  1.90250698E+00  1.67882678E+00
Num ILSW                                   I              100
ILSW                                       I   N=         100
           0           1           0           0           2           0
           0           0           0           0           0          -1
           0           0           0           0           0           0
           0           0           0           0           1           0
           1           0           0           0           0           0
           0           0      100000           0          -1           0
           0           0           0           0           0           0
           0           0           0           1           1           0
           0           0           1           0           0           0
           0           0           4          40           0           0
           0           0           0           0           0           0
           0           0           0           0           0           0
           0           0           0           0           0           0
           0           0           0           0           0           0
           0           0           0           0           0           0
           0           0           0           0           0           0
           0           0           0           0
Num RLSW                                   I               40
RLSW                                       R   N=          40
  1.00000000E+00  1.00000000E+00  1.00000000E+00  1.00000000E+00  1.00000000E+00
  0.00000000E+00  0.00000000E+00  1.00000000E+00  0.00000000E+00  0.00000000E+00
  0.00000000E+00  0.00000000E+00  1.00000000E+00  0.00000000E+00  0.00000000E+00
  0.00000000E+00  0.00000000E+00  1.00000000E+00  0.00000000E+00  0.00000000E+00
  0.00000000E+00  0.00000000E+00  1.00000000E+00  0.00000000E+00  0.00000000E+00
  0.00000000E+00  0.00000000E+00  1.00000000E+00  0.00000000E+00  0.00000000E+00
  0.00000000E+00  0.00000000E+00  0.00000000E+00  0.00000000E+00  0.00000000E+00
  0.00000000E+00  0.00000000E+00  0.00000000E+00  1.00000000E+00  1.00000000E+00
MxBond                                     I                4
NBond                                      I   N=          15
           4           2           1           1           4           4
           4           1           1           1           1           1
           1           1           1
IBond                                      I   N=          60
           2           3           4           6           1           5
           0           0           1           0           0           0
           1           0           0           0           2           7
           8           9           1          10          11          12
           5          13          14          15           5           0
           0           0           5           0           0           0
           6           0           0           0           6           0
           0           0           6           0           0           0
           7           0           0           0           7           0
           0           0           7           0           0           0
RBond                                      R   N=          60
  1.00000000E+00  2.00000000E+00  2.00000000E+00  1.00000000E+00  1.00000000E+00
  1.00000000E+00  0.00000000E+00  0.00000000E+00  2.00000000E+00  0.00000000E+00
  0.00000000E+00  0.00000000E+00  2.00000000E+00  0.00000000E+00  0.00000000E+00
  0.00000000E+00  1.00000000E+00  1.00000000E+00  1.00000000E+00  1.00000000E+00
  1.00000000E+00  1.00000000E+00  1.00000000E+00  1.00000000E+00  1.00000000E+00
  1.00000000E+00  1.00000000E+00  1.00000000E+00  1.00000000E+00  0.00000000E+00
  0.00000000E+00  0.00000000E+00  1.00000000E+00  0.00000000E+00  0.00000000E+00
  0.00000000E+00  1.00000000E+00  0.00000000E+00  0.00000000E+00  0.00000000E+00
  1.00000000E+00  0.00000000E+00  0.00000000E+00  0.00000000E+00  1.00000000E+00
  0.00000000E+00  0.00000000E+00  0.00000000E+00  1.00000000E+00  0.00000000E+00
  0.00000000E+00  0.00000000E+00  1.00000000E+00  0.00000000E+00  0.00000000E+00
  0.00000000E+00  1.00000000E+00  0.00000000E+00  0.00000000E+00  0.00000000E+00
Virial Ratio                               R      2.002092887161292E+00
SCF Energy                                 R     -7.402809006586556E+02
MP2 Energy                                 R     -7.413592616480474E+02
Total Energy                               R     -7.413592616480474E+02
Post-SCF wavefunction norm                 R      1.635258275164225E+00
RMS Force                                  R      3.388762003357052E-06
RMS Density                                R      1.404102862255068E-09
External E-field                           R   N=          35
  0.00000000E+00  0.00000000E+00  0.00000000E+00  0.00000000E+00  0.00000000E+00
  0.00000000E+00  0.00000000E+00  0.00000000E+00  0.00000000E+00  0.00000000E+00
  0.00000000E+00  0.00000000E+00  0.00000000E+00  0.00000000E+00  0.00000000E+00
  0.00000000E+00  0.00000000E+00  0.00000000E+00  0.00000000E+00  0.00000000E+00
  0.00000000E+00  0.00000000E+00  0.00000000E+00  0.00000000E+00  0.00000000E+00
  0.00000000E+00  0.00000000E+00  0.00000000E+00  0.00000000E+00  0.00000000E+00
  0.00000000E+00  0.00000000E+00  0.00000000E+00  0.00000000E+00  0.00000000E+00
IOpCl                                      I                0
IROHF                                      I                0
Alpha Orbital Energies                     R   N=         125
 -9.22310256E+01 -2.06294170E+01 -2.05673809E+01 -2.05673586E+01 -1.13078491E+01
 -1.12843280E+01 -1.12375315E+01 -9.20064747E+00 -6.88694545E+00 -6.88599025E+00
 -6.88540278E+00 -1.49164989E+00 -1.38218936E+00 -1.34460340E+00 -1.07440996E+00
 -1.03001563E+00 -8.81569955E-01 -8.31373357E-01 -7.29090212E-01 -6.97565096E-01
 -6.89783578E-01 -6.55569738E-01 -6.22849968E-01 -6.07065689E-01 -6.03247308E-01
 -5.62746542E-01 -5.61871735E-01 -5.44105833E-01 -5.01252389E-01 -4.99959408E-01
 -4.88643329E-01 -4.72711192E-01 -4.61427462E-01  2.18455717E-01  2.24432162E-01
  2.35724550E-01  2.58367859E-01  2.58967158E-01  2.83350949E-01  2.86738454E-01
  2.90983477E-01  3.08831520E-01  3.13820843E-01  3.21675297E-01  3.45199412E-01
  3.60840280E-01  4.10711388E-01  5.55926884E-01  5.77802634E-01  5.93223761E-01
  6.24904648E-01  6.81711900E-01  7.22329260E-01  7.33103420E-01  7.49158506E-01
  7.71986063E-01  7.92201234E-01  8.37905154E-01  9.09517496E-01  9.21821160E-01
  9.52173190E-01  1.00947753E+00  1.04496149E+00  1.05309049E+00  1.09970526E+00
  1.11874173E+00  1.13171529E+00  1.13263791E+00  1.14393457E+00  1.16537829E+00
  1.16663662E+00  1.19762389E+00  1.20591864E+00  1.24939847E+00  1.29574986E+00
  1.29581110E+00  1.32305362E+00  1.36447452E+00  1.37956356E+00  1.42482106E+00
  1.49250538E+00  1.50042738E+00  1.54091430E+00  1.58241572E+00  1.66052377E+00
  1.67795290E+00  1.71160035E+00  1.83284219E+00  1.90152604E+00  1.96182205E+00
  1.96879229E+00  2.00818560E+00  2.04920456E+00  2.05438935E+00  2.10067689E+00
  2.10450681E+00  2.14423834E+00  2.19540744E+00  2.19784480E+00  2.25678601E+00
  2.30887730E+00  2.36382923E+00  2.40351135E+00  2.42865103E+00  2.46738254E+00
  2.46865628E+00  2.52137372E+00  2.53549023E+00  2.58394785E+00  2.62791854E+00
  2.66265087E+00  2.69122501E+00  2.69310816E+00  2.84380122E+00  2.94992239E+00
  3.12344171E+00  3.17812853E+00  3.17940816E+00  4.24857916E+00  4.25580955E+00
  4.34399249E+00  4.45142568E+00  4.59054757E+00  4.62675403E+00  4.81451656E+00
Alpha MO coefficients                      R   N=       15625
  9.96270772E-01  1.42117260E-02  3.15529840E-05  5.66222997E-06 -1.35230549E-10
 -1.99394704E-02 -5.15121045E-05 -2.66216729E-05  3.54752636E-10  1.82137670E-03
  3.14549031E-05  6.25463763E-05 -3.65743911E-10  6.89872090E-03  6.91077717E-03
  6.93944396E-03  7.45868453E-06  1.66509739E-10  4.55377432E-10 -5.20544384E-06
 -1.48988469E-05 -7.84410959E-06  2.93694788E-05 -2.31693634E-11  3.97407118E-04
 -1.10368754E-04 -2.39568423E-04  1.79377622E-09 -8.65879650E-05 -1.38794001E-05
 -3.29868006E-05 -7.51593887E-05  6.00657887E-10  1.53305190E-10  1.61399973E-05
  1.41339729E-05 -1.37235311E-05 -4.00696023E-05  8.55305487E-05  2.33246874E-04
  4.03250875E-05  1.02057614E-04 -2.39395890E-04  4.64776541E-05  3.62294889E-07
 -8.40240012E-05 -1.54040784E-05  2.23245757E-05  8.87676423E-05  1.61400339E-05
  1.41340756E-05 -1.37237494E-05 -4.00717228E-05 -8.55293851E-05  2.33246668E-04
  4.03257187E-05  1.02063547E-04  2.39392758E-04  4.64776395E-05  3.58815085E-07
 -8.40201362E-05 -1.54048995E-05 -2.23248188E-05 -8.87699962E-05 -6.79833828E-06
 -5.27016772E-06  4.77569019E-05 -3.88609582E-06  2.17584139E-10 -9.21596562E-05
  3.76974105E-05 -1.80550443E-04 -2.69611730E-09 -4.62674725E-05 -2.13706271E-05
 -2.09731502E-05  2.13066162E-05 -3.11216390E-10 -7.82896641E-10 -1.64976512E-05
  2.95328466E-06  5.35847219E-05 -8.36807332E-05  8.99577284E-10  6.26827037E-04
  2.31186524E-06 -4.78125932E-05  3.09064432E-10 -4.46848183E-05 -6.53871320E-05
 -3.58715537E-05  2.65071523E-05 -3.21558625E-10  3.41956185E-10 -9.58499855E-06
 -3.56912241E-05  6.91127581E-06 -1.51240091E-06  3.04114309E-10  2.16597311E-04
 -1.10119713E-04  1.99263789E-05 -8.28492627E-10 -4.42681138E-06 -2.62592237E-05
 -1.47863950E-05  5.41255215E-06  6.52759562E-11 -4.01035378E-10  1.07668859E-05
 -1.29653632E-04  1.07683452E-05 -1.29655834E-04 -5.05066729E-05 -1.88249057E-04
 -4.16544963E-05 -1.88630263E-04 -4.16544748E-05 -1.88630655E-04 -1.53516114E-06
  1.30935280E-05 -1.34518800E-05 -2.68794073E-05 -1.34509289E-05 -2.68806059E-05
  9.18231534E-06 -2.88690312E-05 -8.16241111E-05 -3.61912030E-05  6.65433497E-10
  1.05236463E-04  4.00793818E-04  1.90328225E-04 -3.51450468E-09 -4.68491366E-04
 -9.37393499E-05 -3.28124275E-04 -7.09984413E-10  3.06773293E-04  3.41470100E-05
 -2.87268840E-05  1.32549712E-04 -2.68456670E-09 -1.18366739E-09  9.94662541E-01
  2.11333839E-02 -2.61201522E-04 -1.15027274E-03  6.40629878E-09  3.91860175E-03
  4.49224175E-05  7.33960762E-04 -3.39218282E-09 -4.25898795E-03 -4.11244642E-03
 -3.86358703E-03  1.07266472E-05  2.65792021E-09  1.59954035E-09 -1.59647568E-04
  1.13119940E-06 -1.43747538E-05 -1.57688391E-05 -6.58552073E-06  3.84135618E-05
 -1.47974307E-05  6.64749225E-05  1.00285141E-06 -2.26991903E-05  4.73190943E-06
  7.04584465E-06 -1.84809377E-05  1.49083604E-05 -4.46866823E-06 -1.59647822E-04
  1.13257275E-06 -1.43748390E-05 -1.57687417E-05  6.58584982E-06  3.84055294E-05
 -1.47977678E-05  6.64739501E-05 -1.00480605E-06 -2.26983899E-05  4.73285489E-06
  7.04680820E-06 -1.84812649E-05 -1.49078805E-05  4.46879381E-06 -2.58996780E-05
  8.67767483E-05 -2.54451581E-04  2.40488465E-04 -2.64692985E-10  4.03992325E-04
 -5.18339070E-05  1.27217314E-05  8.06189501E-09  1.00987564E-04  4.40575212E-05
 -5.47123276E-05 -1.07735609E-04 -2.70020284E-10  2.41348136E-10  8.67116530E-07
  1.84073386E-05  3.11546967E-05  6.51044398E-06 -5.47490753E-10  1.99506299E-04
 -1.68760570E-04 -1.47435194E-04  5.15176603E-09 -2.98461583E-05  1.46964460E-05
 -7.88821369E-06  1.34197734E-05 -1.32516169E-10 -4.89923552E-10  1.11318810E-05
  9.95323482E-05 -1.50171098E-05  2.36305630E-05  3.70683911E-10 -2.00522901E-04
  3.22645163E-04 -1.27428135E-04 -2.99353513E-09 -5.87166758E-05  1.90962570E-05
 -3.64427930E-06 -7.19678562E-06 -2.15430347E-10  4.01292004E-10 -3.93555555E-05
 -7.58887403E-05 -3.93539958E-05 -7.58820706E-05 -1.83357255E-05 -1.43171851E-04
  2.90220529E-05  3.56108848E-05  2.90219185E-05  3.56135231E-05 -1.32465190E-05
 -1.52725678E-04  5.13327894E-05 -2.78561512E-07  5.13325251E-05 -2.74252986E-07
  5.10778920E-09 -2.15052678E-08 -1.63752253E-10  3.18429358E-09  2.12321890E-05
  1.91774515E-07 -1.05579963E-08 -5.69350489E-08 -4.24660324E-04 -2.44148323E-09
  2.18200093E-08  6.68230668E-08  4.95098815E-04 -4.01519984E-08 -4.38720323E-08
 -4.57229204E-08  2.00743072E-09 -7.85176124E-06 -1.02777122E-05  4.73042940E-08
  9.87042149E-09  1.58544616E-09  3.61727905E-09  2.50509373E-05 -3.44992938E-08
  2.29354482E-08  1.46345117E-09 -4.19001087E-05  7.67706687E-11  7.12862737E-10
  2.33369372E-09 -6.87756606E-09 -2.05750981E-05 -1.89651607E-05 -7.03210291E-01
 -1.47696340E-02 -1.47805988E-04 -4.75239319E-04  8.77712886E-04 -2.98340944E-03
  3.82325526E-05  1.35018390E-04 -2.90031248E-04  2.80550310E-03  2.81666161E-03
  2.83070100E-03  1.07423753E-05 -1.73278963E-05 -4.71142892E-05  7.03491917E-01
  1.47755775E-02  1.47871509E-04  4.75461451E-04  8.78042635E-04  2.98447809E-03
 -3.82617655E-05 -1.35110663E-04 -2.90158944E-04 -2.80660929E-03 -2.81776615E-03
 -2.83183962E-03 -1.07453460E-05 -1.73329465E-05 -4.71261178E-05 -1.28721918E-10
 -9.54968950E-10 -2.08886641E-09  6.15928926E-10  1.14869979E-05  1.31021735E-08
  1.17165866E-08 -1.23505897E-08 -5.89403868E-05 -3.05561830E-10 -1.31067718E-09
  2.77587005E-10  2.50772078E-09 -3.04730464E-07  3.54818803E-06  5.01470960E-10
  7.06272697E-09 -1.98071340E-09  4.16481229E-09  1.73584587E-05 -1.71389407E-08
 -1.17202728E-08  1.81572767E-08 -6.45308176E-05 -1.89466494E-09 -6.47935110E-09
 -2.31864787E-09  2.43500869E-09  1.83813092E-06 -1.65514115E-05  1.49610877E-11
  7.83942683E-10  6.26489402E-10  5.84826866E-10  9.03087429E-07 -4.33513134E-09
  4.49439864E-10  2.86113548E-09  1.03320975E-05 -4.76682366E-10 -1.13565464E-09
  1.39463802E-10 -3.51780801E-10 -2.80623832E-06 -2.12989337E-07 -1.02206523E-05
  5.44440031E-05  1.02263891E-05 -5.44727753E-05  1.53354758E-09 -1.42977128E-09