
    -----------------------------------------------------------------------
          Psi4: An Open-Source Ab Initio Electronic Structure Package
                               Psi4 1.3.2 release

                         Git: Rev {HEAD} ecbda83 


    R. M. Parrish, L. A. Burns, D. G. A. Smith, A. C. Simmonett,
    A. E. DePrince III, E. G. Hohenstein, U. Bozkaya, A. Yu. Sokolov,
    R. Di Remigio, R. M. Richard, J. F. Gonthier, A. M. James,
    H. R. McAlexander, A. Kumar, M. Saitow, X. Wang, B. P. Pritchard,
    P. Verma, H. F. Schaefer III, K. Patkowski, R. A. King, E. F. Valeev,
    F. A. Evangelista, J. M. Turney, T. D. Crawford, and C. D. Sherrill,
    J. Chem. Theory Comput. 13(7) pp 3185--3197 (2017).
    (doi: 10.1021/acs.jctc.7b00174)


                         Additional Contributions by
    P. Kraus, H. Kruse, M. H. Lechner, M. C. Schieber, R. A. Shaw,
    A. Alenaizan, R. Galvelis, Z. L. Glick, S. Lehtola, and J. P. Misiewicz

    -----------------------------------------------------------------------


    Psi4 started on: Tuesday, 03 November 2020 09:23PM

    Process ID: 11441
    Host:       node37.bme.utexas.edu
    PSIDATADIR: /home/xy3866/psi4conda/share/psi4
    Memory:     500.0 MiB
    Threads:    8
    
  ==> Input File <==

--------------------------------------------------------------------------
#psi4
#
memory 32 gb

molecule  {
0 1
  O        2.1588955    -1.2005479     0.0070593
  O        2.0147220     1.0703310     0.0037530
  C       -2.3333640     0.6373300    -0.0064140
  C       -2.8929490    -0.7786760    -0.0059160
  C       -0.8407100     0.7390270    -0.0031060
  C        0.0270291    -0.3119375     0.0002156
  C        1.4732850    -0.0238670     0.0030520
  H       -2.7101490     1.1874440    -0.8789970
  H       -2.7141290     1.1896330     0.8630350
  H       -3.9853730    -0.7577330    -0.0084480
  H       -2.5694230    -1.3301270     0.8805270
  H       -2.5653610    -1.3323610    -0.8894680
  H       -0.4156920     1.7426300    -0.0033930
  H       -0.2913660    -1.3244520     0.0007550
  H        3.1211320    -0.9203150     0.0096400
units angstrom
no_reorient  #important for SAPT in psi4, default
symmetry c1  #important for SAPT in psi4, default
}

set PROPERTIES_ORIGIN ["COM"]
properties('MP2/aug-cc-pvtz', properties = ['dipole'])
--------------------------------------------------------------------------

  Memory set to  29.802 GiB by Python driver.
    SCF Algorithm Type (re)set to DF.

*** tstart() called on node37.bme.utexas.edu
*** at Tue Nov  3 21:23:32 2020

   => Loading Basis Set <=

    Name: AUG-CC-PVTZ
    Role: ORBITAL
    Keyword: BASIS
    atoms 1-2  entry O          line   327 file /home/xy3866/psi4conda/share/psi4/basis/aug-cc-pvtz.gbs 
    atoms 3-7  entry C          line   235 file /home/xy3866/psi4conda/share/psi4/basis/aug-cc-pvtz.gbs 
    atoms 8-15 entry H          line    36 file /home/xy3866/psi4conda/share/psi4/basis/aug-cc-pvtz.gbs 


         ---------------------------------------------------------
                                   SCF
               by Justin Turney, Rob Parrish, Andy Simmonett
                          and Daniel G. A. Smith
                              RHF Reference
                        8 Threads,  30517 MiB Core
         ---------------------------------------------------------

  ==> Geometry <==

    Molecular point group: c1
    Full point group: C1

    Geometry (in Angstrom), charge = 0, multiplicity = 1:

       Center              X                  Y                   Z               Mass       
    ------------   -----------------  -----------------  -----------------  -----------------
         O            2.161585416676    -1.195573877144     0.007055643581    15.994914619570
         O            2.017411916676     1.075305022856     0.003749343581    15.994914619570
         C           -2.330674083324     0.642304022856    -0.006417656419    12.000000000000
         C           -2.890259083324    -0.773701977144    -0.005919656419    12.000000000000
         C           -0.838020083324     0.744001022856    -0.003109656419    12.000000000000
         C            0.029719016676    -0.306963477144     0.000211943581    12.000000000000
         C            1.475974916676    -0.018892977144     0.003048343581    12.000000000000
         H           -2.707459083324     1.192418022856    -0.879000656419     1.007825032230
         H           -2.711439083324     1.194607022856     0.863031343581     1.007825032230
         H           -3.982683083324    -0.752758977144    -0.008451656419     1.007825032230
         H           -2.566733083324    -1.325152977144     0.880523343581     1.007825032230
         H           -2.562671083324    -1.327386977144    -0.889471656419     1.007825032230
         H           -0.413002083324     1.747604022856    -0.003396656419     1.007825032230
         H           -0.288676083324    -1.319477977144     0.000751343581     1.007825032230
         H            3.123821916676    -0.915340977144     0.009636343581     1.007825032230

  Running in c1 symmetry.

  Rotational constants: A =      0.21909  B =      0.04244  C =      0.03603 [cm^-1]
  Rotational constants: A =   6568.00409  B =   1272.41707  C =   1080.07731 [MHz]
  Nuclear repulsion =  285.218106498000736

  Charge       = 0
  Multiplicity = 1
  Electrons    = 54
  Nalpha       = 27
  Nbeta        = 27

  ==> Algorithm <==

  SCF Algorithm Type is DF.
  DIIS enabled.
  MOM disabled.
  Fractional occupation disabled.
  Guess Type is SAD.
  Energy threshold   = 1.00e-10
  Density threshold  = 1.00e-10
  Integral threshold = 0.00e+00

  ==> Primary Basis <==

  Basis Set: AUG-CC-PVTZ
    Blend: AUG-CC-PVTZ
    Number of shells: 170
    Number of basis function: 506
    Number of Cartesian functions: 585
    Spherical Harmonics?: true
    Max angular momentum: 3

   => Loading Basis Set <=

    Name: (AUG-CC-PVTZ AUX)
    Role: JKFIT
    Keyword: DF_BASIS_SCF
    atoms 1-2  entry O          line   286 file /home/xy3866/psi4conda/share/psi4/basis/aug-cc-pvtz-jkfit.gbs 
    atoms 3-7  entry C          line   162 file /home/xy3866/psi4conda/share/psi4/basis/aug-cc-pvtz-jkfit.gbs 
    atoms 8-15 entry H          line    70 file /home/xy3866/psi4conda/share/psi4/basis/aug-cc-pvtz-jkfit.gbs 

  ==> Pre-Iterations <==

   -------------------------------------------------------
    Irrep   Nso     Nmo     Nalpha   Nbeta   Ndocc  Nsocc
   -------------------------------------------------------
     A        506     506       0       0       0       0
   -------------------------------------------------------
    Total     506     506      27      27      27       0
   -------------------------------------------------------

  ==> Integral Setup <==

  DFHelper Memory: AOs need 2.046 GiB; user supplied 22.352 GiB. Using in-core AOs.

  ==> MemDFJK: Density-Fitted J/K Matrices <==

    J tasked:                   Yes
    K tasked:                   Yes
    wK tasked:                   No
    OpenMP threads:               8
    Memory [MiB]:             22888
    Algorithm:                 Disk
    Schwarz Cutoff:           1E-12
    Mask sparsity (%):       5.7617
    Fitting Condition:        1E-10

   => Auxiliary Basis Set <=

  Basis Set: (AUG-CC-PVTZ AUX)
    Blend: AUG-CC-PVTZ-JKFIT
    Number of shells: 322
    Number of basis function: 1096
    Number of Cartesian functions: 1357
    Spherical Harmonics?: true
    Max angular momentum: 4

  Minimum eigenvalue in the overlap matrix is 3.5479390510E-06.
  Using Symmetric Orthogonalization.

  SCF Guess: Superposition of Atomic Densities via on-the-fly atomic UHF.

  ==> Iterations <==

                           Total Energy        Delta E     RMS |[F,P]|

   @DF-RHF iter SAD:  -342.73585855130142   -3.42736e+02   0.00000e+00 
   @DF-RHF iter   1:  -343.59334913916933   -8.57491e-01   1.41410e-03 DIIS
   @DF-RHF iter   2:  -343.79331098765698   -1.99962e-01   7.91927e-04 DIIS
   @DF-RHF iter   3:  -343.85147110815410   -5.81601e-02   1.49935e-04 DIIS
   @DF-RHF iter   4:  -343.85507697049241   -3.60586e-03   7.05862e-05 DIIS
   @DF-RHF iter   5:  -343.85581705489233   -7.40084e-04   1.46050e-05 DIIS
   @DF-RHF iter   6:  -343.85586999983110   -5.29449e-05   6.95840e-06 DIIS
   @DF-RHF iter   7:  -343.85588097340724   -1.09736e-05   2.29739e-06 DIIS
   @DF-RHF iter   8:  -343.85588308749141   -2.11408e-06   9.60738e-07 DIIS
   @DF-RHF iter   9:  -343.85588344147010   -3.53979e-07   3.02159e-07 DIIS
   @DF-RHF iter  10:  -343.85588348305231   -4.15822e-08   1.08036e-07 DIIS
   @DF-RHF iter  11:  -343.85588348681898   -3.76667e-09   3.11488e-08 DIIS
   @DF-RHF iter  12:  -343.85588348716396   -3.44983e-10   1.55719e-08 DIIS
   @DF-RHF iter  13:  -343.85588348722308   -5.91172e-11   4.27611e-09 DIIS
   @DF-RHF iter  14:  -343.85588348723167   -8.58336e-12   1.84371e-09 DIIS
   @DF-RHF iter  15:  -343.85588348723314   -1.47793e-12   5.78856e-10 DIIS
   @DF-RHF iter  16:  -343.85588348723320   -5.68434e-14   1.67900e-10 DIIS
   @DF-RHF iter  17:  -343.85588348723348   -2.84217e-13   6.20853e-11 DIIS
  Energy and wave function converged.


  ==> Post-Iterations <==

    Orbital Energies [Eh]
    ---------------------

    Doubly Occupied:                                                      

       1A    -20.612028     2A    -20.540825     3A    -11.385101  
       4A    -11.271588     5A    -11.247418     6A    -11.240004  
       7A    -11.228697     8A     -1.450054     9A     -1.347315  
      10A     -1.108465    11A     -1.022513    12A     -0.915777  
      13A     -0.837420    14A     -0.741222    15A     -0.701963  
      16A     -0.693745    17A     -0.631708    18A     -0.620269  
      19A     -0.615713    20A     -0.598857    21A     -0.571353  
      22A     -0.514839    23A     -0.511311    24A     -0.506914  
      25A     -0.482487    26A     -0.451302    27A     -0.375783  

    Virtual:                                                              

      28A      0.026141    29A      0.034124    30A      0.037259  
      31A      0.040290    32A      0.049074    33A      0.060792  
      34A      0.061054    35A      0.074385    36A      0.086521  
      37A      0.089222    38A      0.097273    39A      0.100192  
      40A      0.113018    41A      0.117536    42A      0.125769  
      43A      0.126656    44A      0.127528    45A      0.139981  
      46A      0.140007    47A      0.142895    48A      0.143795  
      49A      0.158158    50A      0.165554    51A      0.166004  
      52A      0.175591    53A      0.188405    54A      0.204452  
      55A      0.210808    56A      0.217427    57A      0.225733  
      58A      0.230698    59A      0.237033    60A      0.241367  
      61A      0.244548    62A      0.245373    63A      0.262089  
      64A      0.264749    65A      0.271992    66A      0.277672  
      67A      0.281432    68A      0.294550    69A      0.309830  
      70A      0.318091    71A      0.320428    72A      0.325903  
      73A      0.331198    74A      0.339728    75A      0.341581  
      76A      0.347510    77A      0.355915    78A      0.361675  
      79A      0.365128    80A      0.370827    81A      0.374303  
      82A      0.382890    83A      0.389452    84A      0.390063  
      85A      0.405478    86A      0.411374    87A      0.414270  
      88A      0.418206    89A      0.438408    90A      0.439694  
      91A      0.442655    92A      0.443240    93A      0.449990  
      94A      0.451018    95A      0.465054    96A      0.465978  
      97A      0.472206    98A      0.478646    99A      0.485932  
     100A      0.489019   101A      0.490579   102A      0.496540  
     103A      0.506630   104A      0.508726   105A      0.513251  
     106A      0.520968   107A      0.529290   108A      0.535305  
     109A      0.545563   110A      0.548854   111A      0.557809  
     112A      0.571655   113A      0.583198   114A      0.588924  
     115A      0.596679   116A      0.610427   117A      0.611658  
     118A      0.617959   119A      0.637834   120A      0.648074  
     121A      0.654606   122A      0.659430   123A      0.678594  
     124A      0.680938   125A      0.702026   126A      0.711593  
     127A      0.718763   128A      0.741191   129A      0.751435  
     130A      0.763857   131A      0.768315   132A      0.785963  
     133A      0.792364   134A      0.799024   135A      0.818156  
     136A      0.822349   137A      0.827049   138A      0.829728  
     139A      0.841281   140A      0.851147   141A      0.858045  
     142A      0.862258   143A      0.867807   144A      0.868697  
     145A      0.875667   146A      0.893929   147A      0.896466  
     148A      0.903546   149A      0.906714   150A      0.911712  
     151A      0.922629   152A      0.930781   153A      0.930819  
     154A      0.942365   155A      0.963514   156A      0.964128  
     157A      0.964208   158A      0.981477   159A      0.989181  
     160A      0.991928   161A      1.008875   162A      1.009790  
     163A      1.010629   164A      1.016090   165A      1.021757  
     166A      1.026144   167A      1.034348   168A      1.044591  
     169A      1.046183   170A      1.057484   171A      1.065388  
     172A      1.075153   173A      1.079168   174A      1.083692  
     175A      1.089740   176A      1.093266   177A      1.103040  
     178A      1.117749   179A      1.123995   180A      1.128644  
     181A      1.148768   182A      1.153378   183A      1.161224  
     184A      1.164537   185A      1.179294   186A      1.180594  
     187A      1.189184   188A      1.203255   189A      1.226103  
     190A      1.227095   191A      1.229711   192A      1.240482  
     193A      1.250874   194A      1.252215   195A      1.257489  
     196A      1.274204   197A      1.275486   198A      1.279356  
     199A      1.304292   200A      1.305442   201A      1.313371  
     202A      1.353626   203A      1.369107   204A      1.373577  
     205A      1.375702   206A      1.385411   207A      1.419775  
     208A      1.423606   209A      1.426629   210A      1.436586  
     211A      1.446524   212A      1.458798   213A      1.468797  
     214A      1.486011   215A      1.488163   216A      1.504486  
     217A      1.511140   218A      1.525080   219A      1.546078  
     220A      1.552522   221A      1.560290   222A      1.583829  
     223A      1.584852   224A      1.608299   225A      1.616712  
     226A      1.635368   227A      1.646837   228A      1.650484  
     229A      1.655237   230A      1.671873   231A      1.673587  
     232A      1.676575   233A      1.693539   234A      1.711494  
     235A      1.726382   236A      1.733248   237A      1.741045  
     238A      1.744830   239A      1.753230   240A      1.773644  
     241A      1.778295   242A      1.802691   243A      1.803915  
     244A      1.823988   245A      1.841369   246A      1.853595  
     247A      1.862286   248A      1.871190   249A      1.871646  
     250A      1.888851   251A      1.901921   252A      1.909060  
     253A      1.912147   254A      1.934247   255A      1.938920  
     256A      1.967274   257A      1.993686   258A      2.005062  
     259A      2.008937   260A      2.016131   261A      2.029260  
     262A      2.029701   263A      2.039002   264A      2.052903  
     265A      2.059537   266A      2.099463   267A      2.116054  
     268A      2.127985   269A      2.150119   270A      2.161231  
     271A      2.174564   272A      2.199224   273A      2.220180  
     274A      2.240313   275A      2.249211   276A      2.252513  
     277A      2.271590   278A      2.279270   279A      2.301833  
     280A      2.302999   281A      2.325422   282A      2.343341  
     283A      2.351858   284A      2.365235   285A      2.381380  
     286A      2.385663   287A      2.394033   288A      2.416044  
     289A      2.434674   290A      2.435865   291A      2.480647  
     292A      2.505995   293A      2.514967   294A      2.521031  
     295A      2.530538   296A      2.573301   297A      2.587394  
     298A      2.600724   299A      2.619733   300A      2.637476  
     301A      2.660295   302A      2.663371   303A      2.698706  
     304A      2.734363   305A      2.750488   306A      2.800403  
     307A      2.814220   308A      2.861193   309A      2.878786  
     310A      2.912619   311A      2.924180   312A      2.961580  
     313A      3.009247   314A      3.020590   315A      3.039701  
     316A      3.082122   317A      3.106114   318A      3.128310  
     319A      3.143053   320A      3.157166   321A      3.258274  
     322A      3.269095   323A      3.314189   324A      3.335884  
     325A      3.353244   326A      3.373447   327A      3.379973  
     328A      3.405013   329A      3.410338   330A      3.443866  
     331A      3.448268   332A      3.463425   333A      3.483206  
     334A      3.487329   335A      3.521854   336A      3.549042  
     337A      3.560177   338A      3.578437   339A      3.590954  
     340A      3.609435   341A      3.621582   342A      3.622979  
     343A      3.654607   344A      3.657726   345A      3.681364  
     346A      3.686106   347A      3.699274   348A      3.699435  
     349A      3.727052   350A      3.752716   351A      3.758344  
     352A      3.769333   353A      3.792136   354A      3.807039  
     355A      3.820680   356A      3.845842   357A      3.847007  
     358A      3.863036   359A      3.900024   360A      3.902603  
     361A      3.913623   362A      3.918632   363A      3.957352  
     364A      3.972171   365A      3.978526   366A      4.005300  
     367A      4.006544   368A      4.028182   369A      4.040102  
     370A      4.049405   371A      4.068777   372A      4.069282  
     373A      4.087333   374A      4.119526   375A      4.127986  
     376A      4.145334   377A      4.153944   378A      4.167619  
     379A      4.198078   380A      4.219465   381A      4.224795  
     382A      4.240213   383A      4.253233   384A      4.261684  
     385A      4.273458   386A      4.291075   387A      4.299743  
     388A      4.306628   389A      4.342416   390A      4.343122  
     391A      4.401023   392A      4.421469   393A      4.435390  
     394A      4.453377   395A      4.458318   396A      4.483095  
     397A      4.490013   398A      4.517863   399A      4.539887  
     400A      4.542573   401A      4.595040   402A      4.599753  
     403A      4.634423   404A      4.639379   405A      4.645894  
     406A      4.683264   407A      4.723883   408A      4.748848  
     409A      4.766370   410A      4.774591   411A      4.794526  
     412A      4.810207   413A      4.824129   414A      4.833613  
     415A      4.855009   416A      4.872044   417A      4.890455  
     418A      4.931268   419A      4.940397   420A      4.955253  
     421A      4.963786   422A      4.981578   423A      5.047172  
     424A      5.054540   425A      5.074048   426A      5.117949  
     427A      5.135090   428A      5.146446   429A      5.180876  
     430A      5.185046   431A      5.209879   432A      5.236962  
     433A      5.252398   434A      5.263006   435A      5.305392  
     436A      5.309458   437A      5.329551   438A      5.334282  
     439A      5.344928   440A      5.374127   441A      5.419167  
     442A      5.439430   443A      5.458983   444A      5.473808  
     445A      5.501412   446A      5.509098   447A      5.526945  
     448A      5.537767   449A      5.605183   450A      5.609794  
     451A      5.673756   452A      5.710809   453A      5.715128  
     454A      5.758075   455A      5.865838   456A      5.889964  
     457A      5.925925   458A      5.978372   459A      6.038581  
     460A      6.097695   461A      6.162537   462A      6.193958  
     463A      6.221071   464A      6.229643   465A      6.276120  
     466A      6.346745   467A      6.445534   468A      6.552570  
     469A      6.581723   470A      6.610236   471A      6.659946  
     472A      6.672248   473A      6.719841   474A      6.763373  
     475A      6.827182   476A      6.830305   477A      6.855576  
     478A      6.861370   479A      6.878828   480A      6.906365  
     481A      7.028275   482A      7.039913   483A      7.162186  
     484A      7.195202   485A      7.256155   486A      7.340548  
     487A      7.372389   488A      7.383732   489A      7.427347  
     490A      7.580451   491A      7.591869   492A      7.629088  
     493A      7.679853   494A      7.753855   495A      7.879822  
     496A      7.971345   497A      8.084403   498A      8.287855  
     499A      8.485193   500A     14.998476   501A     15.920162  
     502A     16.800694   503A     17.727178   504A     18.161901  
     505A     19.274934   506A     19.960855  

    Final Occupation by Irrep:
              A 
    DOCC [    27 ]

  @DF-RHF Final Energy:  -343.85588348723348

   => Energetics <=

    Nuclear Repulsion Energy =            285.2181064980007363
    One-Electron Energy =               -1033.6986341218407688
    Two-Electron Energy =                 404.6246441366066051
    Total Energy =                       -343.8558834872334842

Computation Completed

*** tstop() called on node37.bme.utexas.edu at Tue Nov  3 21:24:20 2020
Module time:
	user time   =     180.49 seconds =       3.01 minutes
	system time =      39.14 seconds =       0.65 minutes
	total time  =         48 seconds =       0.80 minutes
Total time:
	user time   =     180.49 seconds =       3.01 minutes
	system time =      39.14 seconds =       0.65 minutes
	total time  =         48 seconds =       0.80 minutes
   => Loading Basis Set <=

    Name: (AUG-CC-PVTZ AUX)
    Role: RIFIT
    Keyword: DF_BASIS_MP2
    atoms 1-2  entry O          line   264 file /home/xy3866/psi4conda/share/psi4/basis/aug-cc-pvtz-ri.gbs 
    atoms 3-7  entry C          line   148 file /home/xy3866/psi4conda/share/psi4/basis/aug-cc-pvtz-ri.gbs 
    atoms 8-15 entry H          line    30 file /home/xy3866/psi4conda/share/psi4/basis/aug-cc-pvtz-ri.gbs 


*** tstart() called on node37.bme.utexas.edu
*** at Tue Nov  3 21:24:20 2020


  //>>>>>>>>>>>>>>>>>>>>>>>>>>>>>>>>>>>//
  //               DFMP2               //
  //<<<<<<<<<<<<<<<<<<<<<<<<<<<<<<<<<<<//

	 --------------------------------------------------------
	                          DF-MP2                         
	      2nd-Order Density-Fitted Moller-Plesset Theory     
	              RMP2 Wavefunction,   8 Threads             
	                                                         
	        Rob Parrish, Justin Turney, Andy Simmonett,      
	           Ed Hohenstein, and C. David Sherrill          
	 --------------------------------------------------------

   => Auxiliary Basis Set <=

  Basis Set: (AUG-CC-PVTZ AUX)
    Blend: AUG-CC-PVTZ-RI
    Number of shells: 308
    Number of basis function: 1110
    Number of Cartesian functions: 1392
    Spherical Harmonics?: true
    Max angular momentum: 4

	 --------------------------------------------------------
	                 NBF =   506, NAUX =  1110
	 --------------------------------------------------------
	   CLASS    FOCC     OCC    AOCC    AVIR     VIR    FVIR
	   PAIRS       0      27      27     479     479       0
	 --------------------------------------------------------

  DFHelper Memory: AOs need 2.046 GiB; user supplied 22.352 GiB. Using in-core AOs.


         ------------------------------------------------------------
                                     CPHF                           
                                  Rob Parrish                       
         ------------------------------------------------------------

  ==> Geometry <==

    Molecular point group: c1
    Full point group: C1

    Geometry (in Angstrom), charge = 0, multiplicity = 1:

       Center              X                  Y                   Z               Mass       
    ------------   -----------------  -----------------  -----------------  -----------------
         O            2.161585416676    -1.195573877144     0.007055643581    15.994914619570
         O            2.017411916676     1.075305022856     0.003749343581    15.994914619570
         C           -2.330674083324     0.642304022856    -0.006417656419    12.000000000000
         C           -2.890259083324    -0.773701977144    -0.005919656419    12.000000000000
         C           -0.838020083324     0.744001022856    -0.003109656419    12.000000000000
         C            0.029719016676    -0.306963477144     0.000211943581    12.000000000000
         C            1.475974916676    -0.018892977144     0.003048343581    12.000000000000
         H           -2.707459083324     1.192418022856    -0.879000656419     1.007825032230
         H           -2.711439083324     1.194607022856     0.863031343581     1.007825032230
         H           -3.982683083324    -0.752758977144    -0.008451656419     1.007825032230
         H           -2.566733083324    -1.325152977144     0.880523343581     1.007825032230
         H           -2.562671083324    -1.327386977144    -0.889471656419     1.007825032230
         H           -0.413002083324     1.747604022856    -0.003396656419     1.007825032230
         H           -0.288676083324    -1.319477977144     0.000751343581     1.007825032230
         H            3.123821916676    -0.915340977144     0.009636343581     1.007825032230

  Nuclear repulsion =  285.218106498000736
  Reference energy  = -343.855883487233484

  ==> Basis Set <==

  Basis Set: AUG-CC-PVTZ
    Blend: AUG-CC-PVTZ
    Number of shells: 170
    Number of basis function: 506
    Number of Cartesian functions: 585
    Spherical Harmonics?: true
    Max angular momentum: 3

  ==> CGRSolver (by Rob Parrish) <==

   Number of roots    =         1
   Preconditioning    =    JACOBI
   Convergence cutoff =     1E-06
   Maximum iterations =       100

  ==> CPHFRHamiltonian (by Rob Parrish) <== 

  ==> MemDFJK: Density-Fitted J/K Matrices <==

    J tasked:                   Yes
    K tasked:                   Yes
    wK tasked:                   No
    OpenMP threads:               8
    Memory [MiB]:             22888
    Algorithm:                 Disk
    Schwarz Cutoff:           1E-12
    Mask sparsity (%):       5.7617
    Fitting Condition:        1E-10

   => Auxiliary Basis Set <=

  Basis Set: (AUG-CC-PVTZ AUX)
    Blend: AUG-CC-PVTZ-JKFIT
    Number of shells: 322
    Number of basis function: 1096
    Number of Cartesian functions: 1357
    Spherical Harmonics?: true
    Max angular momentum: 4

  ==> CPHF Iterations <==

  => Iterations <=

             Iter  Converged  Remaining    Residual
  CGR           1          0          1   1.164E-01
  CGR           2          0          1   3.716E-02
  CGR           3          0          1   1.592E-02
  CGR           4          0          1   5.759E-03
  CGR           5          0          1   2.704E-03
  CGR           6          0          1   8.545E-04
  CGR           7          0          1   2.254E-04
  CGR           8          0          1   9.136E-05
  CGR           9          0          1   3.046E-05
  CGR          10          0          1   1.158E-05
  CGR          11          0          1   4.087E-06
  CGR          12          0          1   1.031E-06
  CGR          13          1          0   2.701E-07

    CGRSolver converged.

	-----------------------------------------------------------
	 ==================> DF-MP2 Energies <==================== 
	-----------------------------------------------------------
	 Reference Energy          =    -343.8558834872334842 [Eh]
	 Singles Energy            =      -0.0000000000000000 [Eh]
	 Same-Spin Energy          =      -0.3413005493708233 [Eh]
	 Opposite-Spin Energy      =      -1.1008650960614399 [Eh]
	 Correlation Energy        =      -1.4421656454322633 [Eh]
	 Total Energy              =    -345.2980491326657670 [Eh]
	-----------------------------------------------------------
	 ================> DF-SCS-MP2 Energies <================== 
	-----------------------------------------------------------
	 SCS Same-Spin Scale       =       0.3333333333333333 [-]
	 SCS Opposite-Spin Scale   =       1.2000000000000000 [-]
	 SCS Same-Spin Energy      =      -0.1137668497902744 [Eh]
	 SCS Opposite-Spin Energy  =      -1.3210381152737278 [Eh]
	 SCS Correlation Energy    =      -1.4348049650640022 [Eh]
	 SCS Total Energy          =    -345.2906884522975020 [Eh]
	-----------------------------------------------------------



Properties will be evaluated at   0.000000,  -0.000000,   0.000000 [a0]

Properties computed using the MP2 density matrix

  Nuclear Dipole Moment: [e a0]
     X:   -11.3316      Y:    -1.4119      Z:    -0.0247

  Electronic Dipole Moment: [e a0]
     X:    10.6229      Y:     1.0514      Z:     0.0234

  Dipole Moment: [e a0]
     X:    -0.7087      Y:    -0.3605      Z:    -0.0013     Total:     0.7952

  Dipole Moment: [D]
     X:    -1.8014      Y:    -0.9164      Z:    -0.0033     Total:     2.0211


*** tstop() called on node37.bme.utexas.edu at Tue Nov  3 21:25:49 2020
Module time:
	user time   =     433.41 seconds =       7.22 minutes
	system time =      53.96 seconds =       0.90 minutes
	total time  =         89 seconds =       1.48 minutes
Total time:
	user time   =     614.06 seconds =      10.23 minutes
	system time =      93.10 seconds =       1.55 minutes
	total time  =        137 seconds =       2.28 minutes

    Psi4 stopped on: Tuesday, 03 November 2020 09:25PM
    Psi4 wall time for execution: 0:02:17.40

*** Psi4 exiting successfully. Buy a developer a beer!
