
    -----------------------------------------------------------------------
          Psi4: An Open-Source Ab Initio Electronic Structure Package
                               Psi4 1.3.2 release

                         Git: Rev {HEAD} ecbda83 


    R. M. Parrish, L. A. Burns, D. G. A. Smith, A. C. Simmonett,
    A. E. DePrince III, E. G. Hohenstein, U. Bozkaya, A. Yu. Sokolov,
    R. Di Remigio, R. M. Richard, J. F. Gonthier, A. M. James,
    H. R. McAlexander, A. Kumar, M. Saitow, X. Wang, B. P. Pritchard,
    P. Verma, H. F. Schaefer III, K. Patkowski, R. A. King, E. F. Valeev,
    F. A. Evangelista, J. M. Turney, T. D. Crawford, and C. D. Sherrill,
    J. Chem. Theory Comput. 13(7) pp 3185--3197 (2017).
    (doi: 10.1021/acs.jctc.7b00174)


                         Additional Contributions by
    P. Kraus, H. Kruse, M. H. Lechner, M. C. Schieber, R. A. Shaw,
    A. Alenaizan, R. Galvelis, Z. L. Glick, S. Lehtola, and J. P. Misiewicz

    -----------------------------------------------------------------------


    Psi4 started on: Monday, 02 November 2020 04:52PM

    Process ID: 25459
    Host:       node37.bme.utexas.edu
    PSIDATADIR: /home/xy3866/psi4conda/share/psi4
    Memory:     500.0 MiB
    Threads:    8
    
  ==> Input File <==

--------------------------------------------------------------------------
#psi4
#
memory 32 gb

molecule  {
0 1
  O        2.1793270    -1.1884030     0.0070830
  O        2.0147220     1.0703310     0.0037530
  C       -2.3333640     0.6373300    -0.0064140
  C       -2.8929490    -0.7786760    -0.0059160
  C       -0.8407100     0.7390270    -0.0031060
  C        0.0222220    -0.2866530     0.0001530
  C        1.4732850    -0.0238670     0.0030520
  H       -2.7101490     1.1874440    -0.8789970
  H       -2.7141290     1.1896330     0.8630350
  H       -3.9853730    -0.7577330    -0.0084480
  H       -2.5694230    -1.3301270     0.8805270
  H       -2.5653610    -1.3323610    -0.8894680
  H       -0.4156920     1.7426300    -0.0033930
  H       -0.4523633    -1.4431104     0.0005454
  H        3.1211320    -0.9203150     0.0096400
units angstrom
no_reorient  #important for SAPT in psi4, default
symmetry c1  #important for SAPT in psi4, default
}

set PROPERTIES_ORIGIN ["COM"]
properties('MP2/aug-cc-pvtz', properties = ['dipole'])
--------------------------------------------------------------------------

  Memory set to  29.802 GiB by Python driver.
    SCF Algorithm Type (re)set to DF.

*** tstart() called on node37.bme.utexas.edu
*** at Mon Nov  2 16:52:37 2020

   => Loading Basis Set <=

    Name: AUG-CC-PVTZ
    Role: ORBITAL
    Keyword: BASIS
    atoms 1-2  entry O          line   327 file /home/xy3866/psi4conda/share/psi4/basis/aug-cc-pvtz.gbs 
    atoms 3-7  entry C          line   235 file /home/xy3866/psi4conda/share/psi4/basis/aug-cc-pvtz.gbs 
    atoms 8-15 entry H          line    36 file /home/xy3866/psi4conda/share/psi4/basis/aug-cc-pvtz.gbs 


         ---------------------------------------------------------
                                   SCF
               by Justin Turney, Rob Parrish, Andy Simmonett
                          and Daniel G. A. Smith
                              RHF Reference
                        8 Threads,  30517 MiB Core
         ---------------------------------------------------------

  ==> Geometry <==

    Molecular point group: c1
    Full point group: C1

    Geometry (in Angstrom), charge = 0, multiplicity = 1:

       Center              X                  Y                   Z               Mass       
    ------------   -----------------  -----------------  -----------------  -----------------
         O            2.180948898742    -1.187207833236     0.007085174131    15.994914619570
         O            2.016343898742     1.071526166764     0.003755174131    15.994914619570
         C           -2.331742101258     0.638525166764    -0.006411825869    12.000000000000
         C           -2.891327101258    -0.777480833236    -0.005913825869    12.000000000000
         C           -0.839088101258     0.740222166764    -0.003103825869    12.000000000000
         C            0.023843898742    -0.285457833236     0.000155174131    12.000000000000
         C            1.474906898742    -0.022671833236     0.003054174131    12.000000000000
         H           -2.708527101258     1.188639166764    -0.878994825869     1.007825032230
         H           -2.712507101258     1.190828166764     0.863037174131     1.007825032230
         H           -3.983751101258    -0.756537833236    -0.008445825869     1.007825032230
         H           -2.567801101258    -1.328931833236     0.880529174131     1.007825032230
         H           -2.563739101258    -1.331165833236    -0.889465825869     1.007825032230
         H           -0.414070101258     1.743825166764    -0.003390825869     1.007825032230
         H           -0.450741401258    -1.441915233236     0.000547574131     1.007825032230
         H            3.122753898742    -0.919119833236     0.009642174131     1.007825032230

  Running in c1 symmetry.

  Rotational constants: A =      0.21995  B =      0.04228  C =      0.03593 [cm^-1]
  Rotational constants: A =   6593.79114  B =   1267.55163  C =   1077.26015 [MHz]
  Nuclear repulsion =  284.798481815100843

  Charge       = 0
  Multiplicity = 1
  Electrons    = 54
  Nalpha       = 27
  Nbeta        = 27

  ==> Algorithm <==

  SCF Algorithm Type is DF.
  DIIS enabled.
  MOM disabled.
  Fractional occupation disabled.
  Guess Type is SAD.
  Energy threshold   = 1.00e-10
  Density threshold  = 1.00e-10
  Integral threshold = 0.00e+00

  ==> Primary Basis <==

  Basis Set: AUG-CC-PVTZ
    Blend: AUG-CC-PVTZ
    Number of shells: 170
    Number of basis function: 506
    Number of Cartesian functions: 585
    Spherical Harmonics?: true
    Max angular momentum: 3

   => Loading Basis Set <=

    Name: (AUG-CC-PVTZ AUX)
    Role: JKFIT
    Keyword: DF_BASIS_SCF
    atoms 1-2  entry O          line   286 file /home/xy3866/psi4conda/share/psi4/basis/aug-cc-pvtz-jkfit.gbs 
    atoms 3-7  entry C          line   162 file /home/xy3866/psi4conda/share/psi4/basis/aug-cc-pvtz-jkfit.gbs 
    atoms 8-15 entry H          line    70 file /home/xy3866/psi4conda/share/psi4/basis/aug-cc-pvtz-jkfit.gbs 

  ==> Pre-Iterations <==

   -------------------------------------------------------
    Irrep   Nso     Nmo     Nalpha   Nbeta   Ndocc  Nsocc
   -------------------------------------------------------
     A        506     506       0       0       0       0
   -------------------------------------------------------
    Total     506     506      27      27      27       0
   -------------------------------------------------------

  ==> Integral Setup <==

  DFHelper Memory: AOs need 2.045 GiB; user supplied 22.352 GiB. Using in-core AOs.

  ==> MemDFJK: Density-Fitted J/K Matrices <==

    J tasked:                   Yes
    K tasked:                   Yes
    wK tasked:                   No
    OpenMP threads:               8
    Memory [MiB]:             22888
    Algorithm:                 Disk
    Schwarz Cutoff:           1E-12
    Mask sparsity (%):       5.8007
    Fitting Condition:        1E-10

   => Auxiliary Basis Set <=

  Basis Set: (AUG-CC-PVTZ AUX)
    Blend: AUG-CC-PVTZ-JKFIT
    Number of shells: 322
    Number of basis function: 1096
    Number of Cartesian functions: 1357
    Spherical Harmonics?: true
    Max angular momentum: 4

  Minimum eigenvalue in the overlap matrix is 3.4314763819E-06.
  Using Symmetric Orthogonalization.

  SCF Guess: Superposition of Atomic Densities via on-the-fly atomic UHF.

  ==> Iterations <==

                           Total Energy        Delta E     RMS |[F,P]|

   @DF-RHF iter SAD:  -342.71050176993396   -3.42711e+02   0.00000e+00 
   @DF-RHF iter   1:  -343.57527807538150   -8.64776e-01   1.42371e-03 DIIS
   @DF-RHF iter   2:  -343.77597984567944   -2.00702e-01   8.08866e-04 DIIS
   @DF-RHF iter   3:  -343.83713313697700   -6.11533e-02   1.53062e-04 DIIS
   @DF-RHF iter   4:  -343.84082083700429   -3.68770e-03   7.23227e-05 DIIS
   @DF-RHF iter   5:  -343.84159599040146   -7.75153e-04   1.41740e-05 DIIS
   @DF-RHF iter   6:  -343.84164722061962   -5.12302e-05   6.78343e-06 DIIS
   @DF-RHF iter   7:  -343.84165731840000   -1.00978e-05   2.25104e-06 DIIS
   @DF-RHF iter   8:  -343.84165918679810   -1.86840e-06   9.13457e-07 DIIS
   @DF-RHF iter   9:  -343.84165948953694   -3.02739e-07   2.90776e-07 DIIS
   @DF-RHF iter  10:  -343.84165952550887   -3.59719e-08   9.96816e-08 DIIS
   @DF-RHF iter  11:  -343.84165952872024   -3.21137e-09   2.95100e-08 DIIS
   @DF-RHF iter  12:  -343.84165952905755   -3.37309e-10   1.49309e-08 DIIS
   @DF-RHF iter  13:  -343.84165952911445   -5.69003e-11   4.30646e-09 DIIS
   @DF-RHF iter  14:  -343.84165952912394   -9.49285e-12   1.85545e-09 DIIS
   @DF-RHF iter  15:  -343.84165952912497   -1.02318e-12   5.66791e-10 DIIS
   @DF-RHF iter  16:  -343.84165952912451    4.54747e-13   1.69743e-10 DIIS
   @DF-RHF iter  17:  -343.84165952912622   -1.70530e-12   6.19121e-11 DIIS
  Energy and wave function converged.


  ==> Post-Iterations <==

    Orbital Energies [Eh]
    ---------------------

    Doubly Occupied:                                                      

       1A    -20.610346     2A    -20.542653     3A    -11.389907  
       4A    -11.267474     5A    -11.256325     6A    -11.247670  
       7A    -11.228813     8A     -1.453609     9A     -1.349586  
      10A     -1.109967    11A     -1.021484    12A     -0.914823  
      13A     -0.843429    14A     -0.726521    15A     -0.701229  
      16A     -0.694010    17A     -0.632373    18A     -0.621234  
      19A     -0.616894    20A     -0.589775    21A     -0.556996  
      22A     -0.515356    23A     -0.512783    24A     -0.497722  
      25A     -0.483721    26A     -0.451642    27A     -0.381166  

    Virtual:                                                              

      28A      0.026293    29A      0.034300    30A      0.037075  
      31A      0.040279    32A      0.049085    33A      0.061068  
      34A      0.061101    35A      0.073912    36A      0.087760  
      37A      0.089692    38A      0.097367    39A      0.099955  
      40A      0.112778    41A      0.116859    42A      0.125427  
      43A      0.126572    44A      0.127465    45A      0.139832  
      46A      0.140156    47A      0.143004    48A      0.143866  
      49A      0.157802    50A      0.165576    51A      0.165914  
      52A      0.175348    53A      0.189043    54A      0.204078  
      55A      0.210401    56A      0.217334    57A      0.222755  
      58A      0.228396    59A      0.235934    60A      0.241752  
      61A      0.242327    62A      0.246247    63A      0.261630  
      64A      0.266042    65A      0.271890    66A      0.276742  
      67A      0.277882    68A      0.295760    69A      0.304832  
      70A      0.312515    71A      0.320829    72A      0.324701  
      73A      0.329417    74A      0.339126    75A      0.341381  
      76A      0.347236    77A      0.354872    78A      0.361548  
      79A      0.365047    80A      0.370995    81A      0.372714  
      82A      0.383256    83A      0.387820    84A      0.389841  
      85A      0.406112    86A      0.412669    87A      0.413828  
      88A      0.419349    89A      0.433579    90A      0.438027  
      91A      0.440954    92A      0.442206    93A      0.449227  
      94A      0.451975    95A      0.459307    96A      0.464984  
      97A      0.472563    98A      0.478154    99A      0.484470  
     100A      0.487897   101A      0.490179   102A      0.497672  
     103A      0.504115   104A      0.507604   105A      0.512984  
     106A      0.518215   107A      0.529827   108A      0.533372  
     109A      0.544884   110A      0.550602   111A      0.557656  
     112A      0.572477   113A      0.582008   114A      0.587217  
     115A      0.597401   116A      0.607544   117A      0.614402  
     118A      0.618958   119A      0.637371   120A      0.646921  
     121A      0.655175   122A      0.660433   123A      0.678200  
     124A      0.682501   125A      0.703718   126A      0.711952  
     127A      0.718282   128A      0.744417   129A      0.755548  
     130A      0.760997   131A      0.772308   132A      0.785926  
     133A      0.787169   134A      0.798854   135A      0.816996  
     136A      0.824184   137A      0.825827   138A      0.827969  
     139A      0.840366   140A      0.848673   141A      0.857462  
     142A      0.860759   143A      0.865634   144A      0.865818  
     145A      0.875109   146A      0.893948   147A      0.895385  
     148A      0.902638   149A      0.905944   150A      0.909482  
     151A      0.914033   152A      0.923995   153A      0.928914  
     154A      0.941575   155A      0.961960   156A      0.962829  
     157A      0.965328   158A      0.977361   159A      0.992954  
     160A      0.995769   161A      1.004807   162A      1.010936  
     163A      1.011053   164A      1.018927   165A      1.023486  
     166A      1.027762   167A      1.037854   168A      1.047325  
     169A      1.047342   170A      1.051945   171A      1.063506  
     172A      1.072498   173A      1.077787   174A      1.083904  
     175A      1.085993   176A      1.095219   177A      1.102184  
     178A      1.120626   179A      1.125025   180A      1.125888  
     181A      1.144903   182A      1.152542   183A      1.162203  
     184A      1.163248   185A      1.178282   186A      1.186451  
     187A      1.190462   188A      1.208336   189A      1.220449  
     190A      1.225229   191A      1.232968   192A      1.233396  
     193A      1.245873   194A      1.255034   195A      1.263238  
     196A      1.270395   197A      1.272367   198A      1.278528  
     199A      1.305471   200A      1.305733   201A      1.315395  
     202A      1.346139   203A      1.368325   204A      1.369418  
     205A      1.377740   206A      1.385315   207A      1.420743  
     208A      1.421533   209A      1.425246   210A      1.434590  
     211A      1.446900   212A      1.455393   213A      1.469579  
     214A      1.486118   215A      1.488511   216A      1.505140  
     217A      1.509502   218A      1.528269   219A      1.541559  
     220A      1.556229   221A      1.558242   222A      1.584092  
     223A      1.584645   224A      1.596667   225A      1.620136  
     226A      1.634963   227A      1.639594   228A      1.650137  
     229A      1.652177   230A      1.665898   231A      1.669209  
     232A      1.674935   233A      1.694373   234A      1.704375  
     235A      1.713950   236A      1.721591   237A      1.731636  
     238A      1.741431   239A      1.748290   240A      1.775402  
     241A      1.777927   242A      1.789266   243A      1.802616  
     244A      1.808034   245A      1.824796   246A      1.839921  
     247A      1.854882   248A      1.871018   249A      1.872464  
     250A      1.887516   251A      1.904953   252A      1.905816  
     253A      1.906937   254A      1.916471   255A      1.931360  
     256A      1.954049   257A      1.995750   258A      1.997721  
     259A      2.001640   260A      2.012430   261A      2.029819  
     262A      2.031892   263A      2.044938   264A      2.049566  
     265A      2.051648   266A      2.099526   267A      2.103216  
     268A      2.128650   269A      2.146849   270A      2.155063  
     271A      2.196764   272A      2.202648   273A      2.214832  
     274A      2.238946   275A      2.241751   276A      2.265831  
     277A      2.272673   278A      2.284231   279A      2.294664  
     280A      2.297871   281A      2.315747   282A      2.342748  
     283A      2.353709   284A      2.364619   285A      2.368810  
     286A      2.387485   287A      2.389149   288A      2.407274  
     289A      2.430598   290A      2.436366   291A      2.491869  
     292A      2.510760   293A      2.516047   294A      2.520389  
     295A      2.521840   296A      2.560007   297A      2.587363  
     298A      2.598306   299A      2.629467   300A      2.636085  
     301A      2.659118   302A      2.666475   303A      2.723911  
     304A      2.731483   305A      2.743303   306A      2.814174  
     307A      2.819369   308A      2.859326   309A      2.867336  
     310A      2.933433   311A      2.937216   312A      2.961568  
     313A      3.017589   314A      3.026612   315A      3.035437  
     316A      3.076459   317A      3.100554   318A      3.120996  
     319A      3.145739   320A      3.242055   321A      3.263960  
     322A      3.271251   323A      3.296005   324A      3.329756  
     325A      3.355037   326A      3.366929   327A      3.377470  
     328A      3.405365   329A      3.408989   330A      3.422576  
     331A      3.433250   332A      3.453084   333A      3.471988  
     334A      3.484718   335A      3.523727   336A      3.549398  
     337A      3.558864   338A      3.569947   339A      3.596297  
     340A      3.608519   341A      3.611970   342A      3.644276  
     343A      3.648471   344A      3.649499   345A      3.676850  
     346A      3.683400   347A      3.697648   348A      3.702155  
     349A      3.726907   350A      3.753581   351A      3.753613  
     352A      3.772994   353A      3.792533   354A      3.808342  
     355A      3.820676   356A      3.832113   357A      3.844951  
     358A      3.865805   359A      3.893552   360A      3.898452  
     361A      3.921009   362A      3.923197   363A      3.957184  
     364A      3.957637   365A      3.979350   366A      4.009106  
     367A      4.012092   368A      4.016085   369A      4.035939  
     370A      4.040466   371A      4.067370   372A      4.081168  
     373A      4.100945   374A      4.120645   375A      4.126686  
     376A      4.130828   377A      4.165257   378A      4.172606  
     379A      4.189119   380A      4.213273   381A      4.225960  
     382A      4.231895   383A      4.241721   384A      4.244686  
     385A      4.248772   386A      4.275057   387A      4.298240  
     388A      4.312097   389A      4.324092   390A      4.335560  
     391A      4.399214   392A      4.408020   393A      4.427869  
     394A      4.434587   395A      4.451125   396A      4.475872  
     397A      4.493617   398A      4.509388   399A      4.524315  
     400A      4.557157   401A      4.584382   402A      4.602419  
     403A      4.621155   404A      4.635515   405A      4.641723  
     406A      4.678528   407A      4.702761   408A      4.726395  
     409A      4.735098   410A      4.766039   411A      4.777876  
     412A      4.802515   413A      4.806106   414A      4.812396  
     415A      4.842050   416A      4.847525   417A      4.895402  
     418A      4.896040   419A      4.921975   420A      4.933676  
     421A      4.950221   422A      4.959989   423A      4.994286  
     424A      5.055663   425A      5.063436   426A      5.068296  
     427A      5.077386   428A      5.119949   429A      5.142618  
     430A      5.177593   431A      5.208319   432A      5.219312  
     433A      5.222193   434A      5.239724   435A      5.248756  
     436A      5.257068   437A      5.322495   438A      5.335566  
     439A      5.350792   440A      5.363860   441A      5.400581  
     442A      5.417095   443A      5.430595   444A      5.451412  
     445A      5.460633   446A      5.488447   447A      5.507473  
     448A      5.536243   449A      5.559899   450A      5.598130  
     451A      5.609276   452A      5.682799   453A      5.715751  
     454A      5.728548   455A      5.787799   456A      5.890559  
     457A      5.893588   458A      5.949760   459A      6.026506  
     460A      6.065651   461A      6.098436   462A      6.173667  
     463A      6.193762   464A      6.216473   465A      6.221478  
     466A      6.321915   467A      6.381741   468A      6.509661  
     469A      6.563500   470A      6.607648   471A      6.630765  
     472A      6.670864   473A      6.716988   474A      6.720199  
     475A      6.804858   476A      6.830805   477A      6.854986  
     478A      6.857716   479A      6.884049   480A      6.911510  
     481A      7.022808   482A      7.036950   483A      7.182292  
     484A      7.220747   485A      7.282613   486A      7.337251  
     487A      7.373403   488A      7.382587   489A      7.396511  
     490A      7.574877   491A      7.590556   492A      7.619272  
     493A      7.672802   494A      7.739668   495A      7.879519  
     496A      7.974224   497A      8.079704   498A      8.277835  
     499A      8.534703   500A     15.146622   501A     15.725847  
     502A     16.366365   503A     17.963157   504A     18.276956  
     505A     19.301987   506A     19.623863  

    Final Occupation by Irrep:
              A 
    DOCC [    27 ]

  @DF-RHF Final Energy:  -343.84165952912622

   => Energetics <=

    Nuclear Repulsion Energy =            284.7984818151008426
    One-Electron Energy =               -1032.8452661311732754
    Two-Electron Energy =                 404.2051247869462713
    Total Energy =                       -343.8416595291262183

Computation Completed

*** tstop() called on node37.bme.utexas.edu at Mon Nov  2 16:53:31 2020
Module time:
	user time   =     198.73 seconds =       3.31 minutes
	system time =      43.81 seconds =       0.73 minutes
	total time  =         54 seconds =       0.90 minutes
Total time:
	user time   =     198.73 seconds =       3.31 minutes
	system time =      43.81 seconds =       0.73 minutes
	total time  =         54 seconds =       0.90 minutes
   => Loading Basis Set <=

    Name: (AUG-CC-PVTZ AUX)
    Role: RIFIT
    Keyword: DF_BASIS_MP2
    atoms 1-2  entry O          line   264 file /home/xy3866/psi4conda/share/psi4/basis/aug-cc-pvtz-ri.gbs 
    atoms 3-7  entry C          line   148 file /home/xy3866/psi4conda/share/psi4/basis/aug-cc-pvtz-ri.gbs 
    atoms 8-15 entry H          line    30 file /home/xy3866/psi4conda/share/psi4/basis/aug-cc-pvtz-ri.gbs 


*** tstart() called on node37.bme.utexas.edu
*** at Mon Nov  2 16:53:31 2020


  //>>>>>>>>>>>>>>>>>>>>>>>>>>>>>>>>>>>//
  //               DFMP2               //
  //<<<<<<<<<<<<<<<<<<<<<<<<<<<<<<<<<<<//

	 --------------------------------------------------------
	                          DF-MP2                         
	      2nd-Order Density-Fitted Moller-Plesset Theory     
	              RMP2 Wavefunction,   8 Threads             
	                                                         
	        Rob Parrish, Justin Turney, Andy Simmonett,      
	           Ed Hohenstein, and C. David Sherrill          
	 --------------------------------------------------------

   => Auxiliary Basis Set <=

  Basis Set: (AUG-CC-PVTZ AUX)
    Blend: AUG-CC-PVTZ-RI
    Number of shells: 308
    Number of basis function: 1110
    Number of Cartesian functions: 1392
    Spherical Harmonics?: true
    Max angular momentum: 4

	 --------------------------------------------------------
	                 NBF =   506, NAUX =  1110
	 --------------------------------------------------------
	   CLASS    FOCC     OCC    AOCC    AVIR     VIR    FVIR
	   PAIRS       0      27      27     479     479       0
	 --------------------------------------------------------

  DFHelper Memory: AOs need 2.045 GiB; user supplied 22.352 GiB. Using in-core AOs.


         ------------------------------------------------------------
                                     CPHF                           
                                  Rob Parrish                       
         ------------------------------------------------------------

  ==> Geometry <==

    Molecular point group: c1
    Full point group: C1

    Geometry (in Angstrom), charge = 0, multiplicity = 1:

       Center              X                  Y                   Z               Mass       
    ------------   -----------------  -----------------  -----------------  -----------------
         O            2.180948898742    -1.187207833236     0.007085174131    15.994914619570
         O            2.016343898742     1.071526166764     0.003755174131    15.994914619570
         C           -2.331742101258     0.638525166764    -0.006411825869    12.000000000000
         C           -2.891327101258    -0.777480833236    -0.005913825869    12.000000000000
         C           -0.839088101258     0.740222166764    -0.003103825869    12.000000000000
         C            0.023843898742    -0.285457833236     0.000155174131    12.000000000000
         C            1.474906898742    -0.022671833236     0.003054174131    12.000000000000
         H           -2.708527101258     1.188639166764    -0.878994825869     1.007825032230
         H           -2.712507101258     1.190828166764     0.863037174131     1.007825032230
         H           -3.983751101258    -0.756537833236    -0.008445825869     1.007825032230
         H           -2.567801101258    -1.328931833236     0.880529174131     1.007825032230
         H           -2.563739101258    -1.331165833236    -0.889465825869     1.007825032230
         H           -0.414070101258     1.743825166764    -0.003390825869     1.007825032230
         H           -0.450741401258    -1.441915233236     0.000547574131     1.007825032230
         H            3.122753898742    -0.919119833236     0.009642174131     1.007825032230

  Nuclear repulsion =  284.798481815100843
  Reference energy  = -343.841659529126218

  ==> Basis Set <==

  Basis Set: AUG-CC-PVTZ
    Blend: AUG-CC-PVTZ
    Number of shells: 170
    Number of basis function: 506
    Number of Cartesian functions: 585
    Spherical Harmonics?: true
    Max angular momentum: 3

  ==> CGRSolver (by Rob Parrish) <==

   Number of roots    =         1
   Preconditioning    =    JACOBI
   Convergence cutoff =     1E-06
   Maximum iterations =       100

  ==> CPHFRHamiltonian (by Rob Parrish) <== 

  ==> MemDFJK: Density-Fitted J/K Matrices <==

    J tasked:                   Yes
    K tasked:                   Yes
    wK tasked:                   No
    OpenMP threads:               8
    Memory [MiB]:             22888
    Algorithm:                 Disk
    Schwarz Cutoff:           1E-12
    Mask sparsity (%):       5.8007
    Fitting Condition:        1E-10

   => Auxiliary Basis Set <=

  Basis Set: (AUG-CC-PVTZ AUX)
    Blend: AUG-CC-PVTZ-JKFIT
    Number of shells: 322
    Number of basis function: 1096
    Number of Cartesian functions: 1357
    Spherical Harmonics?: true
    Max angular momentum: 4

  ==> CPHF Iterations <==

  => Iterations <=

             Iter  Converged  Remaining    Residual
  CGR           1          0          1   1.167E-01
  CGR           2          0          1   3.714E-02
  CGR           3          0          1   1.556E-02
  CGR           4          0          1   5.606E-03
  CGR           5          0          1   2.612E-03
  CGR           6          0          1   8.357E-04
  CGR           7          0          1   2.273E-04
  CGR           8          0          1   9.319E-05
  CGR           9          0          1   3.025E-05
  CGR          10          0          1   1.168E-05
  CGR          11          0          1   4.031E-06
  CGR          12          1          0   9.937E-07

    CGRSolver converged.

	-----------------------------------------------------------
	 ==================> DF-MP2 Energies <==================== 
	-----------------------------------------------------------
	 Reference Energy          =    -343.8416595291262183 [Eh]
	 Singles Energy            =      -0.0000000000000000 [Eh]
	 Same-Spin Energy          =      -0.3414909051136071 [Eh]
	 Opposite-Spin Energy      =      -1.1015268620405456 [Eh]
	 Correlation Energy        =      -1.4430177671541529 [Eh]
	 Total Energy              =    -345.2846772962803925 [Eh]
	-----------------------------------------------------------
	 ================> DF-SCS-MP2 Energies <================== 
	-----------------------------------------------------------
	 SCS Same-Spin Scale       =       0.3333333333333333 [-]
	 SCS Opposite-Spin Scale   =       1.2000000000000000 [-]
	 SCS Same-Spin Energy      =      -0.1138303017045357 [Eh]
	 SCS Opposite-Spin Energy  =      -1.3218322344486546 [Eh]
	 SCS Correlation Energy    =      -1.4356625361531903 [Eh]
	 SCS Total Energy          =    -345.2773220652794066 [Eh]
	-----------------------------------------------------------



Properties will be evaluated at  -0.000000,  -0.000000,  -0.000000 [a0]

Properties computed using the MP2 density matrix

  Nuclear Dipole Moment: [e a0]
     X:   -11.4904      Y:    -1.5515      Z:    -0.0248

  Electronic Dipole Moment: [e a0]
     X:    10.7731      Y:     1.2059      Z:     0.0235

  Dipole Moment: [e a0]
     X:    -0.7173      Y:    -0.3456      Z:    -0.0013     Total:     0.7962

  Dipole Moment: [D]
     X:    -1.8232      Y:    -0.8785      Z:    -0.0034     Total:     2.0238


*** tstop() called on node37.bme.utexas.edu at Mon Nov  2 16:55:01 2020
Module time:
	user time   =     440.31 seconds =       7.34 minutes
	system time =      52.52 seconds =       0.88 minutes
	total time  =         90 seconds =       1.50 minutes
Total time:
	user time   =     639.19 seconds =      10.65 minutes
	system time =      96.33 seconds =       1.61 minutes
	total time  =        144 seconds =       2.40 minutes

    Psi4 stopped on: Monday, 02 November 2020 04:55PM
    Psi4 wall time for execution: 0:02:24.09

*** Psi4 exiting successfully. Buy a developer a beer!
