opt=Tight                                                               
Freq      RMP2-FC                                                     6-31G(d)            
Number of atoms                            I                8
Info1-9                                    I   N=           9
          17          17        1002           0           0         100
           6           2           1
Charge                                     I               -1
Multiplicity                               I                1
Number of electrons                        I               40
Number of alpha electrons                  I               20
Number of beta electrons                   I               20
Number of basis functions                  I               81
Number of independent functions            I               81
Number of point charges in /Mol/           I                0
Number of translation vectors              I                0
Atomic numbers                             I   N=           8
           8           8           6           6           1           1
           8           1
Nuclear charges                            R   N=           8
  8.00000000E+00  8.00000000E+00  6.00000000E+00  6.00000000E+00  1.00000000E+00
  1.00000000E+00  8.00000000E+00  1.00000000E+00
Current cartesian coordinates              R   N=          24
 -3.26419863E+00 -1.06400257E+00 -1.88887462E-07 -8.10202044E-01  2.48256600E+00
 -2.56122634E-06 -1.19549891E+00  1.06883599E-01 -1.04896028E-06  1.24076171E+00
 -1.50162628E+00  1.80906721E-06  1.23424947E+00 -2.73364622E+00 -1.67115072E+00
  1.23424710E+00 -2.73363243E+00  1.67116522E+00  3.41090083E+00  9.08563589E-02
 -1.11856573E-06  2.56792533E+00  1.76037645E+00  1.18910240E-05
Force Field                                I                0
Int Atom Types                             I   N=           8
           0           0           0           0           0           0
           0           0
MM charges                                 R   N=           8
  0.00000000E+00  0.00000000E+00  0.00000000E+00  0.00000000E+00  0.00000000E+00
  0.00000000E+00  0.00000000E+00  0.00000000E+00
Integer atomic weights                     I   N=           8
          16          16          12          12           1           1
          16           1
Real atomic weights                        R   N=           8
  1.59949146E+01  1.59949146E+01  1.20000000E+01  1.20000000E+01  1.00782504E+00
  1.00782504E+00  1.59949146E+01  1.00782504E+00
Atom fragment info                         I   N=           8
           0           0           0           0           0           0
           0           0
Atom residue num                           I   N=           8
           0           0           0           0           0           0
           0           0
Nuclear spins                              I   N=           8
           0           0           0           0           1           1
           0           1
Nuclear ZEff                               R   N=           8
 -5.60000000E+00 -5.60000000E+00 -3.60000000E+00 -3.60000000E+00 -1.00000000E+00
 -1.00000000E+00 -5.60000000E+00 -1.00000000E+00
Nuclear QMom                               R   N=           8
  0.00000000E+00  0.00000000E+00  0.00000000E+00  0.00000000E+00  0.00000000E+00
  0.00000000E+00  0.00000000E+00  0.00000000E+00
Nuclear GFac                               R   N=           8
  0.00000000E+00  0.00000000E+00  0.00000000E+00  0.00000000E+00  2.79284600E+00
  2.79284600E+00  0.00000000E+00  2.79284600E+00
MicOpt                                     I   N=           8
          -1          -1          -1          -1          -1          -1
          -1          -1
Number of contracted shells                I               26
Number of primitive shells                 I               67
Pure/Cartesian d shells                    I                1
Pure/Cartesian f shells                    I                0
Highest angular momentum                   I                2
Largest degree of contraction              I                6
Shell types                                I   N=          26
           0          -1          -1           2           0          -1
          -1           2           0          -1          -1           2
           0          -1          -1           2           0           0
           0           0           0          -1          -1           2
           0           0
Number of primitives per shell             I   N=          26
           6           3           1           1           6           3
           1           1           6           3           1           1
           6           3           1           1           3           1
           3           1           6           3           1           1
           3           1
Shell to atom map                          I   N=          26
           1           1           1           1           2           2
           2           2           3           3           3           3
           4           4           4           4           5           5
           6           6           7           7           7           7
           8           8
Primitive exponents                        R   N=          67
  5.48467166E+03  8.25234946E+02  1.88046958E+02  5.29645000E+01  1.68975704E+01
  5.79963534E+00  1.55396162E+01  3.59993359E+00  1.01376175E+00  2.70005823E-01
  8.00000000E-01  5.48467166E+03  8.25234946E+02  1.88046958E+02  5.29645000E+01
  1.68975704E+01  5.79963534E+00  1.55396162E+01  3.59993359E+00  1.01376175E+00
  2.70005823E-01  8.00000000E-01  3.04752488E+03  4.57369518E+02  1.03948685E+02
  2.92101553E+01  9.28666296E+00  3.16392696E+00  7.86827235E+00  1.88128854E+00
  5.44249258E-01  1.68714478E-01  8.00000000E-01  3.04752488E+03  4.57369518E+02
  1.03948685E+02  2.92101553E+01  9.28666296E+00  3.16392696E+00  7.86827235E+00
  1.88128854E+00  5.44249258E-01  1.68714478E-01  8.00000000E-01  1.87311370E+01
  2.82539436E+00  6.40121692E-01  1.61277759E-01  1.87311370E+01  2.82539436E+00
  6.40121692E-01  1.61277759E-01  5.48467166E+03  8.25234946E+02  1.88046958E+02
  5.29645000E+01  1.68975704E+01  5.79963534E+00  1.55396162E+01  3.59993359E+00
  1.01376175E+00  2.70005823E-01  8.00000000E-01  1.87311370E+01  2.82539436E+00
  6.40121692E-01  1.61277759E-01
Contraction coefficients                   R   N=          67
  1.83107443E-03  1.39501722E-02  6.84450781E-02  2.32714336E-01  4.70192898E-01
  3.58520853E-01 -1.10777550E-01 -1.48026263E-01  1.13076702E+00  1.00000000E+00
  1.00000000E+00  1.83107443E-03  1.39501722E-02  6.84450781E-02  2.32714336E-01
  4.70192898E-01  3.58520853E-01 -1.10777550E-01 -1.48026263E-01  1.13076702E+00
  1.00000000E+00  1.00000000E+00  1.83473713E-03  1.40373228E-02  6.88426223E-02
  2.32184443E-01  4.67941348E-01  3.62311985E-01 -1.19332420E-01 -1.60854152E-01
  1.14345644E+00  1.00000000E+00  1.00000000E+00  1.83473713E-03  1.40373228E-02
  6.88426223E-02  2.32184443E-01  4.67941348E-01  3.62311985E-01 -1.19332420E-01
 -1.60854152E-01  1.14345644E+00  1.00000000E+00  1.00000000E+00  3.34946043E-02
  2.34726953E-01  8.13757326E-01  1.00000000E+00  3.34946043E-02  2.34726953E-01
  8.13757326E-01  1.00000000E+00  1.83107443E-03  1.39501722E-02  6.84450781E-02
  2.32714336E-01  4.70192898E-01  3.58520853E-01 -1.10777550E-01 -1.48026263E-01
  1.13076702E+00  1.00000000E+00  1.00000000E+00  3.34946043E-02  2.34726953E-01
  8.13757326E-01  1.00000000E+00
P(S=P) Contraction coefficients            R   N=          67
  0.00000000E+00  0.00000000E+00  0.00000000E+00  0.00000000E+00  0.00000000E+00
  0.00000000E+00  7.08742682E-02  3.39752839E-01  7.27158577E-01  1.00000000E+00
  0.00000000E+00  0.00000000E+00  0.00000000E+00  0.00000000E+00  0.00000000E+00
  0.00000000E+00  0.00000000E+00  7.08742682E-02  3.39752839E-01  7.27158577E-01
  1.00000000E+00  0.00000000E+00  0.00000000E+00  0.00000000E+00  0.00000000E+00
  0.00000000E+00  0.00000000E+00  0.00000000E+00  6.89990666E-02  3.16423961E-01
  7.44308291E-01  1.00000000E+00  0.00000000E+00  0.00000000E+00  0.00000000E+00
  0.00000000E+00  0.00000000E+00  0.00000000E+00  0.00000000E+00  6.89990666E-02
  3.16423961E-01  7.44308291E-01  1.00000000E+00  0.00000000E+00  0.00000000E+00
  0.00000000E+00  0.00000000E+00  0.00000000E+00  0.00000000E+00  0.00000000E+00
  0.00000000E+00  0.00000000E+00  0.00000000E+00  0.00000000E+00  0.00000000E+00
  0.00000000E+00  0.00000000E+00  0.00000000E+00  7.08742682E-02  3.39752839E-01
  7.27158577E-01  1.00000000E+00  0.00000000E+00  0.00000000E+00  0.00000000E+00
  0.00000000E+00  0.00000000E+00
Coordinates of each shell                  R   N=          78
 -3.26419863E+00 -1.06400257E+00 -1.88887462E-07 -3.26419863E+00 -1.06400257E+00
 -1.88887462E-07 -3.26419863E+00 -1.06400257E+00 -1.88887462E-07 -3.26419863E+00
 -1.06400257E+00 -1.88887462E-07 -8.10202044E-01  2.48256600E+00 -2.56122634E-06
 -8.10202044E-01  2.48256600E+00 -2.56122634E-06 -8.10202044E-01  2.48256600E+00
 -2.56122634E-06 -8.10202044E-01  2.48256600E+00 -2.56122634E-06 -1.19549891E+00
  1.06883599E-01 -1.04896028E-06 -1.19549891E+00  1.06883599E-01 -1.04896028E-06
 -1.19549891E+00  1.06883599E-01 -1.04896028E-06 -1.19549891E+00  1.06883599E-01
 -1.04896028E-06  1.24076171E+00 -1.50162628E+00  1.80906721E-06  1.24076171E+00
 -1.50162628E+00  1.80906721E-06  1.24076171E+00 -1.50162628E+00  1.80906721E-06
  1.24076171E+00 -1.50162628E+00  1.80906721E-06  1.23424947E+00 -2.73364622E+00
 -1.67115072E+00  1.23424947E+00 -2.73364622E+00 -1.67115072E+00  1.23424710E+00
 -2.73363243E+00  1.67116522E+00  1.23424710E+00 -2.73363243E+00  1.67116522E+00
  3.41090083E+00  9.08563589E-02 -1.11856573E-06  3.41090083E+00  9.08563589E-02
 -1.11856573E-06  3.41090083E+00  9.08563589E-02 -1.11856573E-06  3.41090083E+00
  9.08563589E-02 -1.11856573E-06  2.56792533E+00  1.76037645E+00  1.18910240E-05
  2.56792533E+00  1.76037645E+00  1.18910240E-05
Constraint Structure                       R   N=          24
 -3.26419863E+00 -1.06400257E+00 -1.88887462E-07 -8.10202044E-01  2.48256600E+00
 -2.56122634E-06 -1.19549891E+00  1.06883599E-01 -1.04896028E-06  1.24076171E+00
 -1.50162628E+00  1.80906721E-06  1.23424947E+00 -2.73364622E+00 -1.67115072E+00
  1.23424710E+00 -2.73363243E+00  1.67116522E+00  3.41090083E+00  9.08563589E-02
 -1.11856573E-06  2.56792533E+00  1.76037645E+00  1.18910240E-05
Num ILSW                                   I              100
ILSW                                       I   N=         100
           0           1           0           0           2           0
           0           0           0           0           0          -1
           0           0           0           0           0           0
           0           0           0           0           1           0
           1           0           0           0           0           0
           0           0      100000           0          -1           0
           0           0           0           0           0           0
           0           0           0           1           1           0
           0           0           1           0           0           0
           0           0           4          40           0           0
           0           0           0           0           0           0
           0           0           0           0           0           0
           0           0           0           0           0           0
           0           0           0           0           0           0
           0           0           0           0           0           0
           0           0           0           0           0           0
           0           0           0           0
Num RLSW                                   I               40
RLSW                                       R   N=          40
  1.00000000E+00  1.00000000E+00  1.00000000E+00  1.00000000E+00  1.00000000E+00
  0.00000000E+00  0.00000000E+00  1.00000000E+00  0.00000000E+00  0.00000000E+00
  0.00000000E+00  0.00000000E+00  1.00000000E+00  0.00000000E+00  0.00000000E+00
  0.00000000E+00  0.00000000E+00  1.00000000E+00  0.00000000E+00  0.00000000E+00
  0.00000000E+00  0.00000000E+00  1.00000000E+00  0.00000000E+00  0.00000000E+00
  0.00000000E+00  0.00000000E+00  1.00000000E+00  0.00000000E+00  0.00000000E+00
  0.00000000E+00  0.00000000E+00  0.00000000E+00  0.00000000E+00  0.00000000E+00
  0.00000000E+00  0.00000000E+00  0.00000000E+00  1.00000000E+00  1.00000000E+00
MxBond                                     I                4
NBond                                      I   N=           8
           1           1           3           4           1           1
           2           1
IBond                                      I   N=          32
           3           0           0           0           3           0
           0           0           1           2           4           0
           3           5           6           7           4           0
           0           0           4           0           0           0
           4           8           0           0           7           0
           0           0
RBond                                      R   N=          32
  2.00000000E+00  0.00000000E+00  0.00000000E+00  0.00000000E+00  2.00000000E+00
  0.00000000E+00  0.00000000E+00  0.00000000E+00  2.00000000E+00  2.00000000E+00
  1.00000000E+00  0.00000000E+00  1.00000000E+00  1.00000000E+00  1.00000000E+00
  1.00000000E+00  1.00000000E+00  0.00000000E+00  0.00000000E+00  0.00000000E+00
  1.00000000E+00  0.00000000E+00  0.00000000E+00  0.00000000E+00  1.00000000E+00
  1.00000000E+00  0.00000000E+00  0.00000000E+00  1.00000000E+00  0.00000000E+00
  0.00000000E+00  0.00000000E+00
Virial Ratio                               R      2.003057146256753E+00
SCF Energy                                 R     -3.021880529250672E+02
MP2 Energy                                 R     -3.029828144769380E+02
Total Energy                               R     -3.029828144769380E+02
Post-SCF wavefunction norm                 R      1.569998914015233E+00
RMS Force                                  R      1.814174593539238E-05
RMS Density                                R      1.347576864653587E-09
External E-field                           R   N=          35
  0.00000000E+00  0.00000000E+00  0.00000000E+00  0.00000000E+00  0.00000000E+00
  0.00000000E+00  0.00000000E+00  0.00000000E+00  0.00000000E+00  0.00000000E+00
  0.00000000E+00  0.00000000E+00  0.00000000E+00  0.00000000E+00  0.00000000E+00
  0.00000000E+00  0.00000000E+00  0.00000000E+00  0.00000000E+00  0.00000000E+00
  0.00000000E+00  0.00000000E+00  0.00000000E+00  0.00000000E+00  0.00000000E+00
  0.00000000E+00  0.00000000E+00  0.00000000E+00  0.00000000E+00  0.00000000E+00
  0.00000000E+00  0.00000000E+00  0.00000000E+00  0.00000000E+00  0.00000000E+00
IOpCl                                      I                0
IROHF                                      I                0
Alpha Orbital Energies                     R   N=          81
 -2.05364369E+01 -2.04857361E+01 -2.04777225E+01 -1.13201953E+01 -1.12560311E+01
 -1.35950620E+00 -1.31842246E+00 -1.24579463E+00 -9.22688038E-01 -7.17935564E-01
 -6.51611880E-01 -6.19738885E-01 -5.98304736E-01 -5.50762427E-01 -5.25977166E-01
 -5.16500471E-01 -4.27461043E-01 -3.96108736E-01 -3.77603460E-01 -3.76390072E-01
  2.43977102E-01  2.82651350E-01  3.16938060E-01  3.68600148E-01  4.09285122E-01
  4.82010084E-01  5.30051974E-01  6.29310906E-01  7.96456727E-01  8.10225219E-01
  8.46598801E-01  8.80276173E-01  9.37366417E-01  9.68934573E-01  1.01258663E+00
  1.07320949E+00  1.12293504E+00  1.14664137E+00  1.15990278E+00  1.22213824E+00
  1.24382546E+00  1.26142557E+00  1.31474472E+00  1.34551519E+00  1.41031085E+00
  1.41806159E+00  1.44976440E+00  1.55764426E+00  1.65359586E+00  1.75655225E+00
  1.77688642E+00  1.82156553E+00  1.91876870E+00  2.04166892E+00  2.08373870E+00
  2.10176023E+00  2.11870935E+00  2.14173190E+00  2.17008908E+00  2.24470195E+00
  2.28306901E+00  2.29416732E+00  2.38633821E+00  2.45752828E+00  2.52009345E+00
  2.57081608E+00  2.72022582E+00  2.81834321E+00  2.82002911E+00  2.84002063E+00
  3.09092463E+00  3.12883772E+00  3.24231471E+00  3.29023438E+00  3.39343269E+00
  3.53314593E+00  4.20260371E+00  4.35980529E+00  4.59925011E+00  4.64844152E+00
  4.93117356E+00
Alpha MO coefficients                      R   N=        6561
  2.34615924E-06 -8.21326182E-05  8.65797805E-07  2.78145145E-06 -2.20280944E-11
  5.60882339E-04  1.80783143E-04  4.48934856E-05  2.01110806E-10 -2.82915696E-05
 -5.74657104E-05 -5.31459341E-05  2.25053485E-05 -1.39635469E-12  6.34453026E-11
 -1.06434815E-04  3.18598554E-05 -1.79866863E-05 -1.15313462E-06 -1.33512740E-10
 -2.52193704E-04  3.13617097E-05  8.12963097E-05  5.47394444E-10  1.98918864E-06
  6.48661329E-06  8.15343649E-06  1.22115282E-05  1.65210193E-11 -4.74187857E-11
 -2.08086152E-06  3.74602864E-05 -2.26575818E-05  1.44263517E-05 -4.64373581E-11
 -4.27829360E-04  1.60178460E-04  5.03564085E-04 -1.50262412E-09 -8.63662087E-05
 -9.51482884E-06 -1.17247409E-05 -3.75436219E-06 -1.20898715E-10  1.01901734E-10
 -2.42326153E-05  2.21129529E-04  3.14061321E-04  2.12274529E-04 -8.59515656E-10
  2.95379804E-04 -4.25803236E-04  5.00833625E-05  3.86427751E-09  2.82784769E-05
 -1.25475129E-05 -7.29440068E-05  4.06402457E-05 -1.43926047E-11 -2.99565056E-10
 -2.49256877E-05 -4.40747449E-05 -2.49269283E-05 -4.40777557E-05  9.94656072E-01
  2.11536239E-02 -1.17803804E-03  2.28082114E-04  7.90356312E-09  4.01516881E-03
  5.85558538E-04 -9.24795077E-05 -3.69976155E-09 -4.11802755E-03 -4.13667427E-03
 -3.84578613E-03 -7.94666064E-05  1.21912437E-09 -1.45663704E-09  3.96860260E-04
 -3.40752359E-04 -1.93314682E-03 -9.41082064E-05  1.65823950E-05 -2.72692964E-05
  3.83665363E-11  3.39907298E-04  1.64069980E-04  5.05313888E-05 -1.83435854E-10
  9.58171310E-05 -1.12042055E-04 -6.56490373E-05 -1.94853078E-05 -2.91447781E-11
  1.80126525E-11  9.94679589E-01  2.09744471E-02 -1.33069222E-04 -1.25267070E-03
  1.31730884E-09  4.26375190E-03  4.86218705E-05  1.85423025E-04  2.37927593E-11
 -3.91432955E-03 -3.82873336E-03 -4.05360470E-03  2.76853164E-07  4.87725442E-11
 -1.78627425E-10 -7.70957999E-06  4.99798139E-04  4.21944258E-05  1.67857504E-04
 -2.10960892E-10 -3.79715398E-04  1.71426554E-04 -2.12073017E-04  4.46602469E-10
 -9.56162779E-05 -5.30793585E-04 -5.90961389E-05 -1.53237879E-04  1.02842748E-10
  2.90320574E-10 -2.97261309E-06  1.10270724E-05  2.58343119E-05 -3.31973159E-05
 -1.02629771E-10  2.80808338E-05  9.71978899E-05 -1.51673407E-05  4.36571678E-10
  6.98228320E-06 -6.06645862E-05 -2.24656302E-05  4.64399780E-05 -1.10352088E-10
  5.26967285E-12  6.52200008E-06 -3.06627371E-05  6.52195353E-06 -3.06633001E-05
  1.05020004E-04 -1.79259714E-05  4.00378546E-06 -1.97277532E-05 -2.57173507E-10
  1.47189505E-04  2.36184286E-05  1.22996175E-04  1.00450375E-09 -5.05837169E-05
 -2.04307971E-05 -2.24759788E-05 -4.42188113E-06 -1.39344767E-10  3.29474244E-10
 -2.55334801E-05 -2.65468199E-04  9.94685034E-01  2.10043053E-02  1.15375947E-03
  6.56828960E-04 -5.20217288E-10  4.25426920E-03 -1.16122620E-04 -4.37087146E-05
  2.34104787E-11 -3.77549692E-03 -3.87090360E-03 -4.04368679E-03  7.03437292E-05
 -6.03824072E-11 -7.01233232E-11  1.91205996E-03 -5.79098105E-06  2.65822813E-05
 -8.15048640E-06 -1.04880443E-11  2.65707353E-04  1.66321526E-05 -1.35988130E-04
  1.26392309E-10 -8.19309509E-05  4.62956809E-05 -7.96894084E-05 -9.48982213E-05
  8.66927095E-11 -8.90956141E-11 -6.27175954E-06  5.12160199E-04 -9.48080870E-05
 -7.66627122E-05  7.26948682E-12 -3.78441504E-04  3.37980187E-04  8.93044626E-07
  1.11448906E-10 -4.70293028E-04 -2.34538842E-04 -5.28352479E-05 -3.18349686E-04
  2.57595556E-10  1.14559571E-10 -1.25599498E-07  2.15331721E-05  3.35388576E-05
  1.44017188E-06 -3.50790545E-11 -2.65485117E-05  1.09912854E-04 -4.18441832E-06
  1.72800803E-10 -6.79768524E-05  2.19920662E-05 -2.06789212E-05  4.23375306E-06
 -4.67457096E-11 -9.41587119E-11  1.43833233E-05 -3.32201607E-05  1.43833627E-05
 -3.32203957E-05 -1.73819797E-05  1.95269390E-05 -7.63656198E-06 -3.95450195E-06
 -4.24987612E-11 -8.74565001E-05  3.97765008E-05  2.99468219E-05  1.88705983E-10
 -4.94483231E-06  2.67445581E-05  1.44833079E-05  5.27668963E-06 -5.31408988E-11
  7.01098977E-11 -1.20806213E-05 -4.82094587E-05 -2.06541891E-04  5.61197420E-04
  1.20540163E-04  1.68655755E-04 -1.91356544E-10 -2.40847871E-03 -1.15340707E-03
 -1.41724670E-03  1.56188753E-09 -1.18147088E-04  5.25331925E-05  4.14254934E-04
 -2.69848674E-04  2.59737068E-10  4.12346973E-10 -1.99632943E-04  4.71698455E-04
 -9.62264006E-05 -1.48511755E-04  1.04101061E-10 -1.56478670E-03  8.50253609E-04
  1.34052105E-03 -7.22343282E-10  1.33124121E-04 -3.52444087E-04  3.92763495E-04
 -1.46320785E-04 -1.39328074E-10  5.04973119E-10  9.95913399E-01  2.58498910E-02
 -2.66280763E-04  2.65743527E-04  7.85266655E-10 -6.05354519E-03 -3.59549639E-03
  1.78090148E-03 -3.37163988E-09 -9.63977126E-04 -6.81171642E-04 -2.24622469E-03
  6.11410125E-04 -1.47649575E-10 -1.19802781E-09  4.17743151E-03  1.64515518E-04
 -2.45379455E-06 -8.43483236E-05  3.83684130E-10  3.82463479E-03 -1.67988449E-03
  1.28874134E-03 -4.45337054E-09 -4.82220907E-04 -3.20858953E-04 -1.59371519E-04
  1.56546181E-04 -1.55064922E-10  4.91533822E-10 -1.73519427E-04  2.82275323E-04
 -1.73519549E-04  2.82278559E-04 -1.86402998E-05 -1.26339746E-04  7.03683748E-05
  1.81115119E-05  2.65117355E-10  8.78891883E-05 -1.10931622E-04 -1.55687909E-04
 -8.18731689E-10  5.01355147E-05 -6.38899929E-05 -1.52254232E-04 -8.73864260E-06
  1.92803888E-10 -6.75179710E-10  5.00423212E-05  2.46723927E-04 -5.53333076E-05
 -3.13927234E-04 -5.17321487E-05  9.18311643E-06 -3.24250740E-11  1.21663093E-03
  2.93522748E-04  3.39472581E-04 -3.84528173E-11 -6.01562523E-05 -1.01573385E-04
 -2.98507945E-04  3.82634295E-05  1.31014131E-10 -2.64041221E-10 -3.05148680E-05
 -2.16932904E-04 -3.48473371E-06  5.35869881E-05 -6.90930203E-11  4.67238383E-04
 -2.70867985E-04 -2.18664512E-04  3.95981828E-10 -5.11196062E-05  7.61803950E-06
 -2.16816756E-04  7.70845161E-07  1.18631258E-10 -3.50044148E-10 -4.52826379E-03
 -1.67729932E-04  1.16996675E-04 -8.67048931E-05  4.53526034E-10  3.50611051E-03
  2.35868062E-03 -1.09910554E-03  1.19142978E-09 -4.55343294E-04 -3.31356275E-04
 -2.00968501E-04  8.28643822E-05 -2.01607832E-10  2.13455301E-10  9.95855153E-01
  2.76659439E-02  5.58705764E-04  4.08723295E-04  1.18988411E-09 -1.45335605E-02
  1.14123601E-03 -3.89774731E-04 -8.91674482E-09 -1.52657764E-03 -1.54588932E-03
 -1.56872549E-03  1.34794354E-04 -2.86083578E-10  1.49502433E-09  1.51835243E-04
  2.60895717E-03  1.51837896E-04  2.60896387E-03 -1.58680105E-04  8.30578807E-05
 -1.23617408E-04 -4.81866181E-05  1.09101212E-10  1.74989064E-03  6.91101457E-05
 -9.48045175E-05  6.38145340E-11 -5.48251624E-04 -3.58418192E-04  5.41127381E-05
 -4.27287997E-04  8.78590025E-10  1.27636437E-10  5.77293324E-05  2.30609636E-04
 -9.40986801E-02  2.06689647E-01  5.93955742E-02  3.71648447E-02 -1.95681990E-08
  1.89719640E-01  2.06133522E-02  1.92204425E-02 -1.81207561E-08  6.34050870E-03
  2.77144990E-03 -2.38888944E-05  6.80526422E-03 -3.88296115E-09 -2.54401489E-09
 -1.14669727E-01  2.49783733E-01 -6.74173987E-03 -7.93484825E-02  7.12142609E-08
  2.39187523E-01 -2.48231469E-03 -3.23021089E-02  5.50779301E-08  4.67199425E-04
  1.09594373E-02 -1.29571735E-03  2.45940142E-03  1.29925151E-08 -1.54835109E-08
 -1.09749540E-01  2.09817029E-01 -3.05287591E-02  4.16805905E-02 -9.27264797E-10
  7.09307846E-02  2.19519429E-02 -1.42065871E-02  3.06082118E-08  3.95125326E-03
  1.42359070E-02 -1.74612178E-02  1.42135602E-02 -1.12522583E-09 -2.45826514E-08
 -5.45249322E-02  1.02539555E-01  1.76026527E-02  4.90805343E-02 -4.63982290E-08
  2.67714827E-02  4.34556494E-03 -2.23114794E-03  4.47332974E-08  1.13910594E-02
  5.88861299E-03 -3.23908376E-03  5.07068294E-03 -1.07090489E-08 -8.46619587E-09
  1.85647950E-02  1.55274756E-03  1.85648328E-02  1.55271300E-03 -1.12509678E-01
  2.51387075E-01 -5.64691208E-02  8.88848774E-03  2.96349307E-07  2.39918790E-01
 -3.02363279E-02  7.83080825E-03  1.87140831E-07  1.04397843E-02  1.09374730E-02
 -9.99416569E-04 -2.14378129E-03 -7.82858914E-08  8.82450221E-08  6.83399749E-02
 -5.17641087E-03  1.01296268E-01 -2.18706737E-01 -5.66105398E-02 -3.61468616E-02
  2.54114475E-08 -2.21316350E-01 -2.60323108E-02 -1.78099567E-02  2.34548647E-09
 -6.08092170E-03 -1.06319060E-03  1.84289756E-03 -6.64826877E-03  3.32249571E-09
  2.37133240E-09  6.25847692E-02 -1.35926108E-01  2.06977243E-02  4.21178632E-02
 -1.98232760E-08 -1.37642149E-01  1.29714731E-02  2.32332050E-02 -1.22296509E-08
  2.43141698E-03 -6.83227480E-03  1.36885680E-03 -3.74381382E-03  5.47034278E-09
  7.83839608E-09  7.26294695E-02 -1.40134795E-01  8.19456825E-02 -1.07437480E-02
  3.57475864E-09 -2.15366672E-02 -9.60716977E-03  5.66989446E-03  2.12642376E-08
 -4.15067045E-04 -5.20274168E-03  1.15957048E-02 -1.59212060E-02  1.52150527E-08
  1.29852297E-08 -4.61360588E-02  8.42637714E-02  7.81236231E-02  4.16912418E-02
 -2.72006116E-08  3.41147681E-02  4.12575652E-03 -3.26347323E-03 -1.27885319E-09
  6.12912424E-03  4.10070597E-03 -4.21760043E-03  1.75646354E-02 -3.07454817E-08
 -3.47965031E-09  1.49396857E-02  5.50626427E-04  1.49397147E-02  5.50626168E-04
 -1.65200844E-01  3.66489480E-01 -6.63513341E-02  1.14027004E-02  4.28648048E-07
  3.71308554E-01 -4.12998598E-02  1.22019450E-02  2.97098929E-07  1.15942611E-02
  1.49920913E-02 -2.84915327E-03 -3.37447211E-03 -1.09325056E-07  1.33180423E-07
  8.84394700E-02 -1.07214283E-02  1.45521554E-01 -3.13831022E-01 -6.86363500E-02
 -2.38562878E-02  1.41064387E-08 -3.31649048E-01 -3.01439788E-02 -6.00352731E-03
  8.00540968E-09 -7.55157007E-03  2.45904028E-03  2.80801686E-03 -3.41570286E-03
  2.90241271E-09  1.03647623E-09 -1.54493756E-01  3.31717281E-01  1.44465862E-03
 -7.31875189E-02  5.70466612E-08  3.62714579E-01  6.89778725E-03 -3.64953103E-02
  5.19030839E-08 -2.95486978E-03  8.12501766E-03 -4.14491654E-03 -1.46103895E-03
  1.25507662E-08 -1.48837682E-08  8.11135867E-04 -2.48381726E-03  1.34866941E-01
  2.02223584E-01 -1.28809801E-07 -5.37160895E-03 -1.19386369E-02 -1.78956713E-02
 -3.72150054E-09 -2.63183227E-02  2.61753364E-02  6.11599653E-05 -1.00572594E-02
  9.45110803E-09 -1.40045438E-08  1.40509015E-02 -2.67611874E-02 -9.47540094E-03
  7.42259069E-04 -1.74377456E-09 -9.69808411E-03  8.10482012E-03  9.27894133E-03
  3.77888959E-08 -4.01539326E-03  1.03177515E-03  1.83694136E-05 -3.92795097E-03
  6.24082651E-09 -6.67018492E-09 -7.45872676E-03 -2.26755497E-03 -7.45873185E-03
 -2.26760371E-03  3.45855475E-02 -7.67726495E-02  8.08086577E-03  3.25039089E-03
 -7.94926896E-08 -8.76779605E-02  4.63930200E-03  1.52551232E-03 -9.14143451E-08
 -7.20506071E-04 -3.40253729E-03  3.03192328E-04 -4.93325966E-04  2.26067453E-08
 -2.76682354E-08 -8.84949785E-03  8.41385171E-03  4.34825129E-02 -9.40036700E-02
  4.45185818E-02 -2.53790638E-02  5.71126024E-08 -1.26662351E-01  1.99595711E-02
 -9.15429783E-03  2.09918161E-08  4.92145786E-03 -1.82904182E-03  1.02827006E-03
 -7.46238349E-04  3.12744283E-09  4.12017744E-09  3.29057831E-02 -7.15745025E-02
  2.31497124E-02 -3.41840017E-02  3.33490754E-08 -1.02589268E-01  8.49901918E-03
 -1.57306975E-02  2.09167523E-08 -2.47874393E-03  3.75221067E-03  6.15144869E-05
 -2.40316974E-03 -3.15595524E-09 -6.05138585E-09 -5.49155809E-02  1.19007576E-01
  1.47595646E-01 -9.42092520E-02  1.68485229E-07  7.57610273E-02  3.16384326E-02
 -1.31813873E-02  2.86773676E-08  7.23331824E-03  4.63632533E-04 -3.26790985E-03
 -1.68915414E-02  2.49907179E-08 -1.45857596E-08 -1.67126190E-01  3.26120447E-01
 -8.23406715E-02 -3.54232976E-02  1.48228517E-07  3.12385308E-01 -3.27064727E-02
 -1.66220119E-02  2.07166611E-07 -6.64207918E-04  4.51437021E-03  1.20798855E-02
 -1.05739436E-02 -1.45551344E-08  5.60445037E-08  1.26910297E-01  3.42577649E-02
  1.26910236E-01  3.42576279E-02  6.47085877E-02 -1.43418475E-01 -7.75369049E-02
 -1.25224827E-01 -2.46994159E-07 -2.05387181E-01 -3.73710566E-02 -6.69035263E-02
 -1.67584142E-07  1.04536564E-02 -8.07958347E-03 -3.08798217E-04  1.49852888E-02
  1.67473721E-08 -1.26167801E-07 -7.27677397E-02 -2.10781670E-02  4.52513999E-02
 -1.02455943E-01  1.33922835E-01  1.53769328E-02  1.45497940E-07 -1.47252414E-01
  8.22524467E-02  1.85058147E-02  6.70665526E-08  9.23357928E-03 -2.77665763E-03
 -2.04207721E-03  4.71757279E-03  9.79587285E-09  7.05346725E-09  6.12980181E-02
 -1.39648153E-01  7.94554264E-02 -1.57329786E-01  3.69653364E-07 -2.01968197E-01
  4.69899504E-02 -9.94380445E-02  2.58344427E-07 -2.15395089E-03  1.17156041E-02
 -3.57830329E-03 -4.12380108E-03  1.86145087E-08 -3.97418987E-08 -9.86444233E-02
  2.16848858E-01  1.17760718E-01 -6.89024436E-02  3.41010808E-07  1.59583643E-01
  6.85337540E-02 -3.93775065E-02  1.69520645E-07  4.81838031E-03 -3.45146984E-03
 -8.14948128E-03  5.85921695E-05  2.60855202E-08 -4.35526994E-09  3.69943607E-02
 -6.96980536E-02 -2.12215620E-01  1.62767581E-01  6.02389919E-07 -8.49411079E-02
 -5.62286776E-02  6.81007176E-02  3.53884058E-07  3.88620146E-03  4.12063636E-03
 -1.14883345E-02 -1.67156820E-02  6.73344051E-08 -1.04199790E-07 -8.04575644E-02
 -4.84651913E-02 -8.04563706E-02 -4.84646985E-02  1.28310100E-02 -3.31122437E-02
 -5.29062505E-02  2.81077583E-01  1.07666635E-06 -3.43418606E-02 -3.56260275E-02
  1.79575387E-01  7.41289380E-07  1.58530745E-03  6.46144071E-03 -4.64178469E-03
 -2.45765794E-02 -1.24706070E-07  2.09891174E-07  1.33771598E-01  3.07852862E-02
 -5.72857588E-02  1.23362241E-01 -1.48790796E-01 -2.11270105E-01  8.54694994E-07
  2.21042660E-01 -8.90716741E-02 -1.40991483E-01  5.58281850E-07 -8.15323989E-03
 -8.39864995E-03  1.50525421E-03 -1.61070962E-02  6.88625572E-08  3.85106075E-08
 -5.35713255E-02  1.13578340E-01  1.90092791E-01  2.45564702E-01  7.86247250E-07