
    -----------------------------------------------------------------------
          Psi4: An Open-Source Ab Initio Electronic Structure Package
                               Psi4 1.3.2 release

                         Git: Rev {HEAD} ecbda83 


    R. M. Parrish, L. A. Burns, D. G. A. Smith, A. C. Simmonett,
    A. E. DePrince III, E. G. Hohenstein, U. Bozkaya, A. Yu. Sokolov,
    R. Di Remigio, R. M. Richard, J. F. Gonthier, A. M. James,
    H. R. McAlexander, A. Kumar, M. Saitow, X. Wang, B. P. Pritchard,
    P. Verma, H. F. Schaefer III, K. Patkowski, R. A. King, E. F. Valeev,
    F. A. Evangelista, J. M. Turney, T. D. Crawford, and C. D. Sherrill,
    J. Chem. Theory Comput. 13(7) pp 3185--3197 (2017).
    (doi: 10.1021/acs.jctc.7b00174)


                         Additional Contributions by
    P. Kraus, H. Kruse, M. H. Lechner, M. C. Schieber, R. A. Shaw,
    A. Alenaizan, R. Galvelis, Z. L. Glick, S. Lehtola, and J. P. Misiewicz

    -----------------------------------------------------------------------


    Psi4 started on: Tuesday, 03 November 2020 04:03PM

    Process ID: 1808
    Host:       node142.bme.utexas.edu
    PSIDATADIR: /home/xy3866/psi4conda/share/psi4
    Memory:     500.0 MiB
    Threads:    8
    
  ==> Input File <==

--------------------------------------------------------------------------
#psi4
#
memory 32 gb

molecule  {
0 1
  C       -1.1499320    -0.2219830     0.0000330
  C       -0.5541220     1.0203030    -0.0000280
  N        0.7974550     0.7643250     0.0000120
  C        0.9604690    -0.5917710     0.0000050
  N       -0.2047340    -1.2229890    -0.0000280
  H        1.5354100     1.4569660     0.0000450
  H       -2.2072180    -0.4498140     0.0000570
  H       -0.9513210     2.0245130    -0.0000550
  H        2.1158628    -1.1469317     0.0000014
units angstrom
no_reorient  #important for SAPT in psi4, default
symmetry c1  #important for SAPT in psi4, default
}

set PROPERTIES_ORIGIN ["COM"]
properties('MP2/aug-cc-pvtz', properties = ['dipole'])
--------------------------------------------------------------------------

  Memory set to  29.802 GiB by Python driver.
    SCF Algorithm Type (re)set to DF.

*** tstart() called on node142.bme.utexas.edu
*** at Tue Nov  3 16:03:20 2020

   => Loading Basis Set <=

    Name: AUG-CC-PVTZ
    Role: ORBITAL
    Keyword: BASIS
    atoms 1-2, 4 entry C          line   235 file /home/xy3866/psi4conda/share/psi4/basis/aug-cc-pvtz.gbs 
    atoms 3, 5   entry N          line   281 file /home/xy3866/psi4conda/share/psi4/basis/aug-cc-pvtz.gbs 
    atoms 6-9    entry H          line    36 file /home/xy3866/psi4conda/share/psi4/basis/aug-cc-pvtz.gbs 


         ---------------------------------------------------------
                                   SCF
               by Justin Turney, Rob Parrish, Andy Simmonett
                          and Daniel G. A. Smith
                              RHF Reference
                        8 Threads,  30517 MiB Core
         ---------------------------------------------------------

  ==> Geometry <==

    Molecular point group: c1
    Full point group: C1

    Geometry (in Angstrom), charge = 0, multiplicity = 1:

       Center              X                  Y                   Z               Mass       
    ------------   -----------------  -----------------  -----------------  -----------------
         C           -1.148072516456    -0.191931365315     0.000033812353    12.000000000000
         C           -0.552262516456     1.050354634685    -0.000027187647    12.000000000000
         N            0.799314483544     0.794376634685     0.000012812353    14.003074004430
         C            0.962328483544    -0.561719365315     0.000005812353    12.000000000000
         N           -0.202874516456    -1.192937365315    -0.000027187647    14.003074004430
         H            1.537269483544     1.487017634685     0.000045812353     1.007825032230
         H           -2.205358516456    -0.419762365315     0.000057812353     1.007825032230
         H           -0.949461516456     2.054564634685    -0.000054187647     1.007825032230
         H            2.117722283544    -1.116880065315     0.000002212353     1.007825032230

  Running in c1 symmetry.

  Rotational constants: A =      0.31969  B =      0.31078  C =      0.15759 [cm^-1]
  Rotational constants: A =   9584.11144  B =   9317.02652  C =   4724.34098 [MHz]
  Nuclear repulsion =  161.985752535295518

  Charge       = 0
  Multiplicity = 1
  Electrons    = 36
  Nalpha       = 18
  Nbeta        = 18

  ==> Algorithm <==

  SCF Algorithm Type is DF.
  DIIS enabled.
  MOM disabled.
  Fractional occupation disabled.
  Guess Type is SAD.
  Energy threshold   = 1.00e-10
  Density threshold  = 1.00e-10
  Integral threshold = 0.00e+00

  ==> Primary Basis <==

  Basis Set: AUG-CC-PVTZ
    Blend: AUG-CC-PVTZ
    Number of shells: 106
    Number of basis function: 322
    Number of Cartesian functions: 375
    Spherical Harmonics?: true
    Max angular momentum: 3

   => Loading Basis Set <=

    Name: (AUG-CC-PVTZ AUX)
    Role: JKFIT
    Keyword: DF_BASIS_SCF
    atoms 1-2, 4 entry C          line   162 file /home/xy3866/psi4conda/share/psi4/basis/aug-cc-pvtz-jkfit.gbs 
    atoms 3, 5   entry N          line   224 file /home/xy3866/psi4conda/share/psi4/basis/aug-cc-pvtz-jkfit.gbs 
    atoms 6-9    entry H          line    70 file /home/xy3866/psi4conda/share/psi4/basis/aug-cc-pvtz-jkfit.gbs 

  ==> Pre-Iterations <==

   -------------------------------------------------------
    Irrep   Nso     Nmo     Nalpha   Nbeta   Ndocc  Nsocc
   -------------------------------------------------------
     A        322     322       0       0       0       0
   -------------------------------------------------------
    Total     322     322      18      18      18       0
   -------------------------------------------------------

  ==> Integral Setup <==

  DFHelper Memory: AOs need 0.572 GiB; user supplied 22.352 GiB. Using in-core AOs.

  ==> MemDFJK: Density-Fitted J/K Matrices <==

    J tasked:                   Yes
    K tasked:                   Yes
    wK tasked:                   No
    OpenMP threads:               8
    Memory [MiB]:             22888
    Algorithm:                 Core
    Schwarz Cutoff:           1E-12
    Mask sparsity (%):       0.4784
    Fitting Condition:        1E-10

   => Auxiliary Basis Set <=

  Basis Set: (AUG-CC-PVTZ AUX)
    Blend: AUG-CC-PVTZ-JKFIT
    Number of shells: 206
    Number of basis function: 704
    Number of Cartesian functions: 875
    Spherical Harmonics?: true
    Max angular momentum: 4

  Minimum eigenvalue in the overlap matrix is 7.1253548441E-06.
  Using Symmetric Orthogonalization.

  SCF Guess: Superposition of Atomic Densities via on-the-fly atomic UHF.

  ==> Iterations <==

                           Total Energy        Delta E     RMS |[F,P]|

   @DF-RHF iter SAD:  -224.39791184392618   -2.24398e+02   0.00000e+00 
   @DF-RHF iter   1:  -224.72394341389568   -3.26032e-01   1.59768e-03 DIIS
   @DF-RHF iter   2:  -224.83075079591035   -1.06807e-01   9.38501e-04 DIIS
   @DF-RHF iter   3:  -224.87073502239011   -3.99842e-02   1.67275e-04 DIIS
   @DF-RHF iter   4:  -224.87246636761873   -1.73135e-03   7.82879e-05 DIIS
   @DF-RHF iter   5:  -224.87278292592504   -3.16558e-04   1.33165e-05 DIIS
   @DF-RHF iter   6:  -224.87280227020500   -1.93443e-05   5.48924e-06 DIIS
   @DF-RHF iter   7:  -224.87280566501190   -3.39481e-06   2.33647e-06 DIIS
   @DF-RHF iter   8:  -224.87280644306432   -7.78052e-07   8.69555e-07 DIIS
   @DF-RHF iter   9:  -224.87280659807317   -1.55009e-07   2.62211e-07 DIIS
   @DF-RHF iter  10:  -224.87280660974525   -1.16721e-08   1.11653e-07 DIIS
   @DF-RHF iter  11:  -224.87280661210224   -2.35698e-09   4.36700e-08 DIIS
   @DF-RHF iter  12:  -224.87280661247578   -3.73547e-10   1.35526e-08 DIIS
   @DF-RHF iter  13:  -224.87280661250483   -2.90470e-11   4.76885e-09 DIIS
   @DF-RHF iter  14:  -224.87280661250742   -2.58638e-12   2.04450e-09 DIIS
   @DF-RHF iter  15:  -224.87280661250827   -8.52651e-13   6.49943e-10 DIIS
   @DF-RHF iter  16:  -224.87280661250847   -1.98952e-13   2.97773e-10 DIIS
   @DF-RHF iter  17:  -224.87280661250853   -5.68434e-14   7.81789e-11 DIIS
  Energy and wave function converged.


  ==> Post-Iterations <==

    Orbital Energies [Eh]
    ---------------------

    Doubly Occupied:                                                      

       1A    -15.628089     2A    -15.550328     3A    -11.319943  
       4A    -11.264436     5A    -11.247432     6A     -1.340506  
       7A     -1.167669     8A     -1.000668     9A     -0.824764  
      10A     -0.798119    11A     -0.735904    12A     -0.607522  
      13A     -0.599389    14A     -0.592041    15A     -0.549562  
      16A     -0.439072    17A     -0.402542    18A     -0.320620  

    Virtual:                                                              

      19A      0.021045    20A      0.034274    21A      0.041308  
      22A      0.051850    23A      0.072249    24A      0.084745  
      25A      0.104362    26A      0.105725    27A      0.108712  
      28A      0.111347    29A      0.117500    30A      0.126534  
      31A      0.129443    32A      0.140759    33A      0.152789  
      34A      0.157330    35A      0.176872    36A      0.191949  
      37A      0.193982    38A      0.198474    39A      0.205032  
      40A      0.222152    41A      0.226721    42A      0.239099  
      43A      0.253431    44A      0.270725    45A      0.274812  
      46A      0.289514    47A      0.296362    48A      0.311344  
      49A      0.319884    50A      0.321978    51A      0.331757  
      52A      0.337624    53A      0.339749    54A      0.359708  
      55A      0.369728    56A      0.379406    57A      0.384619  
      58A      0.396861    59A      0.408631    60A      0.422594  
      61A      0.433566    62A      0.443737    63A      0.447389  
      64A      0.465300    65A      0.469764    66A      0.473223  
      67A      0.488165    68A      0.489857    69A      0.492344  
      70A      0.495975    71A      0.506215    72A      0.515163  
      73A      0.525025    74A      0.538526    75A      0.574489  
      76A      0.582851    77A      0.595944    78A      0.610832  
      79A      0.625996    80A      0.649003    81A      0.667567  
      82A      0.672211    83A      0.690486    84A      0.700779  
      85A      0.702852    86A      0.714491    87A      0.717864  
      88A      0.741247    89A      0.746198    90A      0.777044  
      91A      0.792900    92A      0.795729    93A      0.806062  
      94A      0.837662    95A      0.858497    96A      0.861475  
      97A      0.873603    98A      0.885018    99A      0.920482  
     100A      0.929833   101A      0.932494   102A      0.940504  
     103A      0.944726   104A      0.948142   105A      0.955335  
     106A      0.977366   107A      0.989859   108A      1.002524  
     109A      1.017758   110A      1.019862   111A      1.024349  
     112A      1.035391   113A      1.035498   114A      1.059681  
     115A      1.067086   116A      1.068401   117A      1.088649  
     118A      1.102168   119A      1.112515   120A      1.130780  
     121A      1.140603   122A      1.160913   123A      1.170281  
     124A      1.172311   125A      1.183271   126A      1.197803  
     127A      1.219138   128A      1.220373   129A      1.254591  
     130A      1.266928   131A      1.286409   132A      1.292614  
     133A      1.316160   134A      1.338394   135A      1.359077  
     136A      1.390346   137A      1.398398   138A      1.404411  
     139A      1.416538   140A      1.449660   141A      1.463642  
     142A      1.471268   143A      1.474154   144A      1.477042  
     145A      1.504446   146A      1.516709   147A      1.554902  
     148A      1.558320   149A      1.583897   150A      1.608525  
     151A      1.654382   152A      1.659918   153A      1.665784  
     154A      1.680587   155A      1.728486   156A      1.739894  
     157A      1.747872   158A      1.781601   159A      1.802928  
     160A      1.818268   161A      1.820728   162A      1.851534  
     163A      1.882756   164A      1.905713   165A      1.941346  
     166A      1.964556   167A      2.006066   168A      2.008016  
     169A      2.018237   170A      2.029519   171A      2.060849  
     172A      2.071342   173A      2.077506   174A      2.091223  
     175A      2.139209   176A      2.146810   177A      2.162225  
     178A      2.163392   179A      2.233262   180A      2.243260  
     181A      2.248024   182A      2.280154   183A      2.309850  
     184A      2.342836   185A      2.345100   186A      2.360599  
     187A      2.428903   188A      2.452796   189A      2.457767  
     190A      2.461626   191A      2.510692   192A      2.542597  
     193A      2.547793   194A      2.575835   195A      2.603290  
     196A      2.675574   197A      2.677948   198A      2.742303  
     199A      2.752482   200A      2.831775   201A      2.850945  
     202A      2.950633   203A      3.010955   204A      3.026286  
     205A      3.070027   206A      3.097270   207A      3.110164  
     208A      3.234699   209A      3.265512   210A      3.273392  
     211A      3.319477   212A      3.349993   213A      3.355175  
     214A      3.463219   215A      3.466280   216A      3.489665  
     217A      3.524907   218A      3.561242   219A      3.562951  
     220A      3.624933   221A      3.645782   222A      3.654238  
     223A      3.686880   224A      3.699139   225A      3.721224  
     226A      3.736161   227A      3.751313   228A      3.768899  
     229A      3.780923   230A      3.798229   231A      3.824740  
     232A      3.865872   233A      3.879179   234A      3.891204  
     235A      3.915547   236A      3.972873   237A      3.992828  
     238A      4.044083   239A      4.067171   240A      4.080689  
     241A      4.095627   242A      4.125543   243A      4.126760  
     244A      4.151307   245A      4.156079   246A      4.173006  
     247A      4.213492   248A      4.223716   249A      4.246985  
     250A      4.272682   251A      4.283342   252A      4.347391  
     253A      4.384244   254A      4.389159   255A      4.412079  
     256A      4.415741   257A      4.484985   258A      4.496007  
     259A      4.511231   260A      4.567810   261A      4.596347  
     262A      4.620135   263A      4.664398   264A      4.726310  
     265A      4.764697   266A      4.768869   267A      4.803707  
     268A      4.868803   269A      4.883071   270A      4.936362  
     271A      4.942192   272A      4.960036   273A      5.026602  
     274A      5.051453   275A      5.058103   276A      5.125399  
     277A      5.142443   278A      5.235898   279A      5.261018  
     280A      5.315338   281A      5.373475   282A      5.385363  
     283A      5.388071   284A      5.472830   285A      5.493988  
     286A      5.497862   287A      5.594496   288A      5.628235  
     289A      5.630304   290A      5.679994   291A      5.716550  
     292A      5.734810   293A      5.765663   294A      5.779754  
     295A      5.813288   296A      5.835360   297A      5.858989  
     298A      5.893140   299A      5.928414   300A      6.052188  
     301A      6.083914   302A      6.180108   303A      6.214965  
     304A      6.224636   305A      6.357059   306A      6.399394  
     307A      6.415830   308A      6.521815   309A      6.615709  
     310A      6.661172   311A      6.742057   312A      6.816874  
     313A      6.957284   314A      6.994961   315A      7.094014  
     316A      7.378251   317A      7.760980   318A     15.407976  
     319A     16.167362   320A     17.156911   321A     17.609253  
     322A     18.180875  

    Final Occupation by Irrep:
              A 
    DOCC [    18 ]

  @DF-RHF Final Energy:  -224.87280661250853

   => Energetics <=

    Nuclear Repulsion Energy =            161.9857525352955179
    One-Electron Energy =                -624.9399088549334920
    Two-Electron Energy =                 238.0813497071294194
    Total Energy =                       -224.8728066125085263

Computation Completed

*** tstop() called on node142.bme.utexas.edu at Tue Nov  3 16:03:34 2020
Module time:
	user time   =      72.97 seconds =       1.22 minutes
	system time =       3.95 seconds =       0.07 minutes
	total time  =         14 seconds =       0.23 minutes
Total time:
	user time   =      72.97 seconds =       1.22 minutes
	system time =       3.95 seconds =       0.07 minutes
	total time  =         14 seconds =       0.23 minutes
   => Loading Basis Set <=

    Name: (AUG-CC-PVTZ AUX)
    Role: RIFIT
    Keyword: DF_BASIS_MP2
    atoms 1-2, 4 entry C          line   148 file /home/xy3866/psi4conda/share/psi4/basis/aug-cc-pvtz-ri.gbs 
    atoms 3, 5   entry N          line   206 file /home/xy3866/psi4conda/share/psi4/basis/aug-cc-pvtz-ri.gbs 
    atoms 6-9    entry H          line    30 file /home/xy3866/psi4conda/share/psi4/basis/aug-cc-pvtz-ri.gbs 


*** tstart() called on node142.bme.utexas.edu
*** at Tue Nov  3 16:03:34 2020


  //>>>>>>>>>>>>>>>>>>>>>>>>>>>>>>>>>>>//
  //               DFMP2               //
  //<<<<<<<<<<<<<<<<<<<<<<<<<<<<<<<<<<<//

	 --------------------------------------------------------
	                          DF-MP2                         
	      2nd-Order Density-Fitted Moller-Plesset Theory     
	              RMP2 Wavefunction,   8 Threads             
	                                                         
	        Rob Parrish, Justin Turney, Andy Simmonett,      
	           Ed Hohenstein, and C. David Sherrill          
	 --------------------------------------------------------

   => Auxiliary Basis Set <=

  Basis Set: (AUG-CC-PVTZ AUX)
    Blend: AUG-CC-PVTZ-RI
    Number of shells: 196
    Number of basis function: 714
    Number of Cartesian functions: 900
    Spherical Harmonics?: true
    Max angular momentum: 4

	 --------------------------------------------------------
	                 NBF =   322, NAUX =   714
	 --------------------------------------------------------
	   CLASS    FOCC     OCC    AOCC    AVIR     VIR    FVIR
	   PAIRS       0      18      18     304     304       0
	 --------------------------------------------------------

  DFHelper Memory: AOs need 0.572 GiB; user supplied 22.352 GiB. Using in-core AOs.


         ------------------------------------------------------------
                                     CPHF                           
                                  Rob Parrish                       
         ------------------------------------------------------------

  ==> Geometry <==

    Molecular point group: c1
    Full point group: C1

    Geometry (in Angstrom), charge = 0, multiplicity = 1:

       Center              X                  Y                   Z               Mass       
    ------------   -----------------  -----------------  -----------------  -----------------
         C           -1.148072516456    -0.191931365315     0.000033812353    12.000000000000
         C           -0.552262516456     1.050354634685    -0.000027187647    12.000000000000
         N            0.799314483544     0.794376634685     0.000012812353    14.003074004430
         C            0.962328483544    -0.561719365315     0.000005812353    12.000000000000
         N           -0.202874516456    -1.192937365315    -0.000027187647    14.003074004430
         H            1.537269483544     1.487017634685     0.000045812353     1.007825032230
         H           -2.205358516456    -0.419762365315     0.000057812353     1.007825032230
         H           -0.949461516456     2.054564634685    -0.000054187647     1.007825032230
         H            2.117722283544    -1.116880065315     0.000002212353     1.007825032230

  Nuclear repulsion =  161.985752535295518
  Reference energy  = -224.872806612508526

  ==> Basis Set <==

  Basis Set: AUG-CC-PVTZ
    Blend: AUG-CC-PVTZ
    Number of shells: 106
    Number of basis function: 322
    Number of Cartesian functions: 375
    Spherical Harmonics?: true
    Max angular momentum: 3

  ==> CGRSolver (by Rob Parrish) <==

   Number of roots    =         1
   Preconditioning    =    JACOBI
   Convergence cutoff =     1E-06
   Maximum iterations =       100

  ==> CPHFRHamiltonian (by Rob Parrish) <== 

  ==> MemDFJK: Density-Fitted J/K Matrices <==

    J tasked:                   Yes
    K tasked:                   Yes
    wK tasked:                   No
    OpenMP threads:               8
    Memory [MiB]:             22888
    Algorithm:                 Core
    Schwarz Cutoff:           1E-12
    Mask sparsity (%):       0.4784
    Fitting Condition:        1E-10

   => Auxiliary Basis Set <=

  Basis Set: (AUG-CC-PVTZ AUX)
    Blend: AUG-CC-PVTZ-JKFIT
    Number of shells: 206
    Number of basis function: 704
    Number of Cartesian functions: 875
    Spherical Harmonics?: true
    Max angular momentum: 4

  ==> CPHF Iterations <==

  => Iterations <=

             Iter  Converged  Remaining    Residual
  CGR           1          0          1   1.016E-01
  CGR           2          0          1   3.609E-02
  CGR           3          0          1   1.764E-02
  CGR           4          0          1   6.599E-03
  CGR           5          0          1   1.830E-03
  CGR           6          0          1   8.350E-04
  CGR           7          0          1   2.938E-04
  CGR           8          0          1   1.116E-04
  CGR           9          0          1   4.515E-05
  CGR          10          0          1   1.408E-05
  CGR          11          0          1   3.366E-06
  CGR          12          0          1   1.016E-06
  CGR          13          1          0   2.012E-07

    CGRSolver converged.

	-----------------------------------------------------------
	 ==================> DF-MP2 Energies <==================== 
	-----------------------------------------------------------
	 Reference Energy          =    -224.8728066125085263 [Eh]
	 Singles Energy            =      -0.0000000000000000 [Eh]
	 Same-Spin Energy          =      -0.2443122370001476 [Eh]
	 Opposite-Spin Energy      =      -0.7441758438328029 [Eh]
	 Correlation Energy        =      -0.9884880808329506 [Eh]
	 Total Energy              =    -225.8612946933414776 [Eh]
	-----------------------------------------------------------
	 ================> DF-SCS-MP2 Energies <================== 
	-----------------------------------------------------------
	 SCS Same-Spin Scale       =       0.3333333333333333 [-]
	 SCS Opposite-Spin Scale   =       1.2000000000000000 [-]
	 SCS Same-Spin Energy      =      -0.0814374123333825 [Eh]
	 SCS Opposite-Spin Energy  =      -0.8930110125993634 [Eh]
	 SCS Correlation Energy    =      -0.9744484249327460 [Eh]
	 SCS Total Energy          =    -225.8472550374412720 [Eh]
	-----------------------------------------------------------



Properties will be evaluated at  -0.000000,   0.000000,   0.000000 [a0]

Properties computed using the MP2 density matrix

  Nuclear Dipole Moment: [e a0]
     X:     0.4672      Y:     1.8807      Z:     0.0000

  Electronic Dipole Moment: [e a0]
     X:     0.2187      Y:    -0.5467      Z:    -0.0000

  Dipole Moment: [e a0]
     X:     0.6858      Y:     1.3341      Z:     0.0000     Total:     1.5000

  Dipole Moment: [D]
     X:     1.7432      Y:     3.3908      Z:     0.0001     Total:     3.8127


*** tstop() called on node142.bme.utexas.edu at Tue Nov  3 16:04:02 2020
Module time:
	user time   =     143.77 seconds =       2.40 minutes
	system time =       4.31 seconds =       0.07 minutes
	total time  =         28 seconds =       0.47 minutes
Total time:
	user time   =     217.61 seconds =       3.63 minutes
	system time =       8.31 seconds =       0.14 minutes
	total time  =         42 seconds =       0.70 minutes

    Psi4 stopped on: Tuesday, 03 November 2020 04:04PM
    Psi4 wall time for execution: 0:00:42.82

*** Psi4 exiting successfully. Buy a developer a beer!
