17852300                                                                
Freq      RMP2-FC                                                     6-31G(d)            
Number of atoms                            I               13
Info1-9                                    I   N=           9
          25          23        1002           0           0         100
           6           2           1
Charge                                     I                0
Multiplicity                               I                1
Number of electrons                        I               52
Number of alpha electrons                  I               26
Number of beta electrons                   I               26
Number of basis functions                  I              117
Number of independent functions            I              117
Number of point charges in /Mol/           I                0
Number of translation vectors              I                0
Atomic numbers                             I   N=          13
           8           7           7           6           6           6
           6           1           1           1           1           1
           1
Nuclear charges                            R   N=          13
  8.00000000E+00  7.00000000E+00  7.00000000E+00  6.00000000E+00  6.00000000E+00
  6.00000000E+00  6.00000000E+00  1.00000000E+00  1.00000000E+00  1.00000000E+00
  1.00000000E+00  1.00000000E+00  1.00000000E+00
Current cartesian coordinates              R   N=          39
 -2.76040543E+00 -1.28194474E+00 -2.08010890E-05  1.58073841E+00 -1.99296219E+00
 -5.75993930E-05  3.87257674E+00 -8.47957536E-01 -1.64857062E-04 -3.78056527E-01
 -3.37340201E-01 -5.83428853E-05  6.62319595E-01  2.06608573E+00 -1.16889440E-04
  3.29106205E+00  1.62329157E+00 -1.86961641E-04 -4.66759012E+00  6.35248583E-01
  4.40985517E-04 -3.12116061E-01  3.85825165E+00 -1.24975639E-04  1.46359334E+00
 -3.90177772E+00 -3.25908874E-05  4.80369079E+00  2.99995622E+00 -2.51637092E-04
 -6.46406962E+00 -3.67755575E-01  5.85295126E-04 -4.51397596E+00  1.81497408E+00
 -1.69108393E+00 -4.51349514E+00  1.81463321E+00  1.69215869E+00
Force Field                                I                0
Int Atom Types                             I   N=          13
           0           0           0           0           0           0
           0           0           0           0           0           0
           0
MM charges                                 R   N=          13
  0.00000000E+00  0.00000000E+00  0.00000000E+00  0.00000000E+00  0.00000000E+00
  0.00000000E+00  0.00000000E+00  0.00000000E+00  0.00000000E+00  0.00000000E+00
  0.00000000E+00  0.00000000E+00  0.00000000E+00
Integer atomic weights                     I   N=          13
          16          14          14          12          12          12
          12           1           1           1           1           1
           1
Real atomic weights                        R   N=          13
  1.59949146E+01  1.40030740E+01  1.40030740E+01  1.20000000E+01  1.20000000E+01
  1.20000000E+01  1.20000000E+01  1.00782504E+00  1.00782504E+00  1.00782504E+00
  1.00782504E+00  1.00782504E+00  1.00782504E+00
Atom fragment info                         I   N=          13
           0           0           0           0           0           0
           0           0           0           0           0           0
           0
Atom residue num                           I   N=          13
           0           0           0           0           0           0
           0           0           0           0           0           0
           0
Nuclear spins                              I   N=          13
           0           2           2           0           0           0
           0           1           1           1           1           1
           1
Nuclear ZEff                               R   N=          13
 -5.60000000E+00 -4.55000000E+00 -4.55000000E+00 -3.60000000E+00 -3.60000000E+00
 -3.60000000E+00 -3.60000000E+00 -1.00000000E+00 -1.00000000E+00 -1.00000000E+00
 -1.00000000E+00 -1.00000000E+00 -1.00000000E+00
Nuclear QMom                               R   N=          13
  0.00000000E+00  2.04400000E+00  2.04400000E+00  0.00000000E+00  0.00000000E+00
  0.00000000E+00  0.00000000E+00  0.00000000E+00  0.00000000E+00  0.00000000E+00
  0.00000000E+00  0.00000000E+00  0.00000000E+00
Nuclear GFac                               R   N=          13
  0.00000000E+00  4.03761000E-01  4.03761000E-01  0.00000000E+00  0.00000000E+00
  0.00000000E+00  0.00000000E+00  2.79284600E+00  2.79284600E+00  2.79284600E+00
  2.79284600E+00  2.79284600E+00  2.79284600E+00
MicOpt                                     I   N=          13
          -1          -1          -1          -1          -1          -1
          -1          -1          -1          -1          -1          -1
          -1
Number of contracted shells                I               40
Number of primitive shells                 I              101
Pure/Cartesian d shells                    I                1
Pure/Cartesian f shells                    I                0
Highest angular momentum                   I                2
Largest degree of contraction              I                6
Shell types                                I   N=          40
           0          -1          -1           2           0          -1
          -1           2           0          -1          -1           2
           0          -1          -1           2           0          -1
          -1           2           0          -1          -1           2
           0          -1          -1           2           0           0
           0           0           0           0           0           0
           0           0           0           0
Number of primitives per shell             I   N=          40
           6           3           1           1           6           3
           1           1           6           3           1           1
           6           3           1           1           6           3
           1           1           6           3           1           1
           6           3           1           1           3           1
           3           1           3           1           3           1
           3           1           3           1
Shell to atom map                          I   N=          40
           1           1           1           1           2           2
           2           2           3           3           3           3
           4           4           4           4           5           5
           5           5           6           6           6           6
           7           7           7           7           8           8
           9           9          10          10          11          11
          12          12          13          13
Primitive exponents                        R   N=         101
  5.48467166E+03  8.25234946E+02  1.88046958E+02  5.29645000E+01  1.68975704E+01
  5.79963534E+00  1.55396162E+01  3.59993359E+00  1.01376175E+00  2.70005823E-01
  8.00000000E-01  4.17351146E+03  6.27457911E+02  1.42902093E+02  4.02343293E+01
  1.28202129E+01  4.39043701E+00  1.16263619E+01  2.71627981E+00  7.72218397E-01
  2.12031498E-01  8.00000000E-01  4.17351146E+03  6.27457911E+02  1.42902093E+02
  4.02343293E+01  1.28202129E+01  4.39043701E+00  1.16263619E+01  2.71627981E+00
  7.72218397E-01  2.12031498E-01  8.00000000E-01  3.04752488E+03  4.57369518E+02
  1.03948685E+02  2.92101553E+01  9.28666296E+00  3.16392696E+00  7.86827235E+00
  1.88128854E+00  5.44249258E-01  1.68714478E-01  8.00000000E-01  3.04752488E+03
  4.57369518E+02  1.03948685E+02  2.92101553E+01  9.28666296E+00  3.16392696E+00
  7.86827235E+00  1.88128854E+00  5.44249258E-01  1.68714478E-01  8.00000000E-01
  3.04752488E+03  4.57369518E+02  1.03948685E+02  2.92101553E+01  9.28666296E+00
  3.16392696E+00  7.86827235E+00  1.88128854E+00  5.44249258E-01  1.68714478E-01
  8.00000000E-01  3.04752488E+03  4.57369518E+02  1.03948685E+02  2.92101553E+01
  9.28666296E+00  3.16392696E+00  7.86827235E+00  1.88128854E+00  5.44249258E-01
  1.68714478E-01  8.00000000E-01  1.87311370E+01  2.82539436E+00  6.40121692E-01
  1.61277759E-01  1.87311370E+01  2.82539436E+00  6.40121692E-01  1.61277759E-01
  1.87311370E+01  2.82539436E+00  6.40121692E-01  1.61277759E-01  1.87311370E+01
  2.82539436E+00  6.40121692E-01  1.61277759E-01  1.87311370E+01  2.82539436E+00
  6.40121692E-01  1.61277759E-01  1.87311370E+01  2.82539436E+00  6.40121692E-01
  1.61277759E-01
Contraction coefficients                   R   N=         101
  1.83107443E-03  1.39501722E-02  6.84450781E-02  2.32714336E-01  4.70192898E-01
  3.58520853E-01 -1.10777550E-01 -1.48026263E-01  1.13076702E+00  1.00000000E+00
  1.00000000E+00  1.83477216E-03  1.39946270E-02  6.85865518E-02  2.32240873E-01
  4.69069948E-01  3.60455199E-01 -1.14961182E-01 -1.69117479E-01  1.14585195E+00
  1.00000000E+00  1.00000000E+00  1.83477216E-03  1.39946270E-02  6.85865518E-02
  2.32240873E-01  4.69069948E-01  3.60455199E-01 -1.14961182E-01 -1.69117479E-01
  1.14585195E+00  1.00000000E+00  1.00000000E+00  1.83473713E-03  1.40373228E-02
  6.88426223E-02  2.32184443E-01  4.67941348E-01  3.62311985E-01 -1.19332420E-01
 -1.60854152E-01  1.14345644E+00  1.00000000E+00  1.00000000E+00  1.83473713E-03
  1.40373228E-02  6.88426223E-02  2.32184443E-01  4.67941348E-01  3.62311985E-01
 -1.19332420E-01 -1.60854152E-01  1.14345644E+00  1.00000000E+00  1.00000000E+00
  1.83473713E-03  1.40373228E-02  6.88426223E-02  2.32184443E-01  4.67941348E-01
  3.62311985E-01 -1.19332420E-01 -1.60854152E-01  1.14345644E+00  1.00000000E+00
  1.00000000E+00  1.83473713E-03  1.40373228E-02  6.88426223E-02  2.32184443E-01
  4.67941348E-01  3.62311985E-01 -1.19332420E-01 -1.60854152E-01  1.14345644E+00
  1.00000000E+00  1.00000000E+00  3.34946043E-02  2.34726953E-01  8.13757326E-01
  1.00000000E+00  3.34946043E-02  2.34726953E-01  8.13757326E-01  1.00000000E+00
  3.34946043E-02  2.34726953E-01  8.13757326E-01  1.00000000E+00  3.34946043E-02
  2.34726953E-01  8.13757326E-01  1.00000000E+00  3.34946043E-02  2.34726953E-01
  8.13757326E-01  1.00000000E+00  3.34946043E-02  2.34726953E-01  8.13757326E-01
  1.00000000E+00
P(S=P) Contraction coefficients            R   N=         101
  0.00000000E+00  0.00000000E+00  0.00000000E+00  0.00000000E+00  0.00000000E+00
  0.00000000E+00  7.08742682E-02  3.39752839E-01  7.27158577E-01  1.00000000E+00
  0.00000000E+00  0.00000000E+00  0.00000000E+00  0.00000000E+00  0.00000000E+00
  0.00000000E+00  0.00000000E+00  6.75797439E-02  3.23907296E-01  7.40895140E-01
  1.00000000E+00  0.00000000E+00  0.00000000E+00  0.00000000E+00  0.00000000E+00
  0.00000000E+00  0.00000000E+00  0.00000000E+00  6.75797439E-02  3.23907296E-01
  7.40895140E-01  1.00000000E+00  0.00000000E+00  0.00000000E+00  0.00000000E+00
  0.00000000E+00  0.00000000E+00  0.00000000E+00  0.00000000E+00  6.89990666E-02
  3.16423961E-01  7.44308291E-01  1.00000000E+00  0.00000000E+00  0.00000000E+00
  0.00000000E+00  0.00000000E+00  0.00000000E+00  0.00000000E+00  0.00000000E+00
  6.89990666E-02  3.16423961E-01  7.44308291E-01  1.00000000E+00  0.00000000E+00
  0.00000000E+00  0.00000000E+00  0.00000000E+00  0.00000000E+00  0.00000000E+00
  0.00000000E+00  6.89990666E-02  3.16423961E-01  7.44308291E-01  1.00000000E+00
  0.00000000E+00  0.00000000E+00  0.00000000E+00  0.00000000E+00  0.00000000E+00
  0.00000000E+00  0.00000000E+00  6.89990666E-02  3.16423961E-01  7.44308291E-01
  1.00000000E+00  0.00000000E+00  0.00000000E+00  0.00000000E+00  0.00000000E+00
  0.00000000E+00  0.00000000E+00  0.00000000E+00  0.00000000E+00  0.00000000E+00
  0.00000000E+00  0.00000000E+00  0.00000000E+00  0.00000000E+00  0.00000000E+00
  0.00000000E+00  0.00000000E+00  0.00000000E+00  0.00000000E+00  0.00000000E+00
  0.00000000E+00  0.00000000E+00  0.00000000E+00  0.00000000E+00  0.00000000E+00
  0.00000000E+00
Coordinates of each shell                  R   N=         120
 -2.76040543E+00 -1.28194474E+00 -2.08010890E-05 -2.76040543E+00 -1.28194474E+00
 -2.08010890E-05 -2.76040543E+00 -1.28194474E+00 -2.08010890E-05 -2.76040543E+00
 -1.28194474E+00 -2.08010890E-05  1.58073841E+00 -1.99296219E+00 -5.75993930E-05
  1.58073841E+00 -1.99296219E+00 -5.75993930E-05  1.58073841E+00 -1.99296219E+00
 -5.75993930E-05  1.58073841E+00 -1.99296219E+00 -5.75993930E-05  3.87257674E+00
 -8.47957536E-01 -1.64857062E-04  3.87257674E+00 -8.47957536E-01 -1.64857062E-04
  3.87257674E+00 -8.47957536E-01 -1.64857062E-04  3.87257674E+00 -8.47957536E-01
 -1.64857062E-04 -3.78056527E-01 -3.37340201E-01 -5.83428853E-05 -3.78056527E-01
 -3.37340201E-01 -5.83428853E-05 -3.78056527E-01 -3.37340201E-01 -5.83428853E-05
 -3.78056527E-01 -3.37340201E-01 -5.83428853E-05  6.62319595E-01  2.06608573E+00
 -1.16889440E-04  6.62319595E-01  2.06608573E+00 -1.16889440E-04  6.62319595E-01
  2.06608573E+00 -1.16889440E-04  6.62319595E-01  2.06608573E+00 -1.16889440E-04
  3.29106205E+00  1.62329157E+00 -1.86961641E-04  3.29106205E+00  1.62329157E+00
 -1.86961641E-04  3.29106205E+00  1.62329157E+00 -1.86961641E-04  3.29106205E+00
  1.62329157E+00 -1.86961641E-04 -4.66759012E+00  6.35248583E-01  4.40985517E-04
 -4.66759012E+00  6.35248583E-01  4.40985517E-04 -4.66759012E+00  6.35248583E-01
  4.40985517E-04 -4.66759012E+00  6.35248583E-01  4.40985517E-04 -3.12116061E-01
  3.85825165E+00 -1.24975639E-04 -3.12116061E-01  3.85825165E+00 -1.24975639E-04
  1.46359334E+00 -3.90177772E+00 -3.25908874E-05  1.46359334E+00 -3.90177772E+00
 -3.25908874E-05  4.80369079E+00  2.99995622E+00 -2.51637092E-04  4.80369079E+00
  2.99995622E+00 -2.51637092E-04 -6.46406962E+00 -3.67755575E-01  5.85295126E-04
 -6.46406962E+00 -3.67755575E-01  5.85295126E-04 -4.51397596E+00  1.81497408E+00
 -1.69108393E+00 -4.51397596E+00  1.81497408E+00 -1.69108393E+00 -4.51349514E+00
  1.81463321E+00  1.69215869E+00 -4.51349514E+00  1.81463321E+00  1.69215869E+00
Constraint Structure                       R   N=          39
 -2.76040543E+00 -1.28194474E+00 -2.08010890E-05  1.58073841E+00 -1.99296219E+00
 -5.75993930E-05  3.87257674E+00 -8.47957536E-01 -1.64857062E-04 -3.78056527E-01
 -3.37340201E-01 -5.83428853E-05  6.62319595E-01  2.06608573E+00 -1.16889440E-04
  3.29106205E+00  1.62329157E+00 -1.86961641E-04 -4.66759012E+00  6.35248583E-01
  4.40985517E-04 -3.12116061E-01  3.85825165E+00 -1.24975639E-04  1.46359334E+00
 -3.90177772E+00 -3.25908874E-05  4.80369079E+00  2.99995622E+00 -2.51637092E-04
 -6.46406962E+00 -3.67755575E-01  5.85295126E-04 -4.51397596E+00  1.81497408E+00
 -1.69108393E+00 -4.51349514E+00  1.81463321E+00  1.69215869E+00
Num ILSW                                   I              100
ILSW                                       I   N=         100
           0           1           0           1           2           0
           0           0           0           0           0          -1
           0           0           0           0           0           0
           0           0           0           0           1           0
           1           0           0           0           0           0
           0           0      100000           0          -1           0
           0           0           0           0           0           0
           0           0           0           1           1           0
           0           0           1           0           0           0
           0           0           4          40           0           0
           0           0           0           0           0           0
           0           0           0           0           0           0
           0           0           0           0           0           0
           0           0           0           0           0           0
           0           0           0           0           0           0
           0           0           0           0           0           0
           0           0           0           0
Num RLSW                                   I               40
RLSW                                       R   N=          40
  1.00000000E+00  1.00000000E+00  1.00000000E+00  1.00000000E+00  1.00000000E+00
  0.00000000E+00  0.00000000E+00  1.00000000E+00  0.00000000E+00  0.00000000E+00
  0.00000000E+00  0.00000000E+00  1.00000000E+00  0.00000000E+00  0.00000000E+00
  0.00000000E+00  0.00000000E+00  1.00000000E+00  0.00000000E+00  0.00000000E+00
  0.00000000E+00  0.00000000E+00  1.00000000E+00  0.00000000E+00  0.00000000E+00
  0.00000000E+00  0.00000000E+00  1.00000000E+00  0.00000000E+00  0.00000000E+00
  0.00000000E+00  0.00000000E+00  0.00000000E+00  0.00000000E+00  0.00000000E+00
  0.00000000E+00  0.00000000E+00  0.00000000E+00  1.00000000E+00  1.00000000E+00
MxBond                                     I                4
NBond                                      I   N=          13
           2           3           2           3           3           3
           4           1           1           1           1           1
           1
IBond                                      I   N=          52
           4           7           0           0           3           4
           9           0           2           6           0           0
           1           2           5           0           4           6
           8           0           3           5          10           0
           1          11          12          13           5           0
           0           0           2           0           0           0
           6           0           0           0           7           0
           0           0           7           0           0           0
           7           0           0           0
RBond                                      R   N=          52
  1.00000000E+00  1.00000000E+00  0.00000000E+00  0.00000000E+00  1.50000000E+00
  1.50000000E+00  1.00000000E+00  0.00000000E+00  1.50000000E+00  1.50000000E+00
  0.00000000E+00  0.00000000E+00  1.00000000E+00  1.50000000E+00  1.50000000E+00
  0.00000000E+00  1.50000000E+00  1.50000000E+00  1.00000000E+00  0.00000000E+00
  1.50000000E+00  1.50000000E+00  1.00000000E+00  0.00000000E+00  1.00000000E+00
  1.00000000E+00  1.00000000E+00  1.00000000E+00  1.00000000E+00  0.00000000E+00
  0.00000000E+00  0.00000000E+00  1.00000000E+00  0.00000000E+00  0.00000000E+00
  0.00000000E+00  1.00000000E+00  0.00000000E+00  0.00000000E+00  0.00000000E+00
  1.00000000E+00  0.00000000E+00  0.00000000E+00  0.00000000E+00  1.00000000E+00
  0.00000000E+00  0.00000000E+00  0.00000000E+00  1.00000000E+00  0.00000000E+00
  0.00000000E+00  0.00000000E+00
Virial Ratio                               R      2.002858848261215E+00
SCF Energy                                 R     -3.386712452761948E+02
MP2 Energy                                 R     -3.396879658875246E+02
Total Energy                               R     -3.396879658875246E+02
Post-SCF wavefunction norm                 R      1.632964394665872E+00
RMS Force                                  R      1.684419086495338E-06
RMS Density                                R      8.877816519714463E-10
External E-field                           R   N=          35
  0.00000000E+00  0.00000000E+00  0.00000000E+00  0.00000000E+00  0.00000000E+00
  0.00000000E+00  0.00000000E+00  0.00000000E+00  0.00000000E+00  0.00000000E+00
  0.00000000E+00  0.00000000E+00  0.00000000E+00  0.00000000E+00  0.00000000E+00
  0.00000000E+00  0.00000000E+00  0.00000000E+00  0.00000000E+00  0.00000000E+00
  0.00000000E+00  0.00000000E+00  0.00000000E+00  0.00000000E+00  0.00000000E+00
  0.00000000E+00  0.00000000E+00  0.00000000E+00  0.00000000E+00  0.00000000E+00
  0.00000000E+00  0.00000000E+00  0.00000000E+00  0.00000000E+00  0.00000000E+00
IOpCl                                      I                0
IROHF                                      I                0
Alpha Orbital Energies                     R   N=         117
 -2.06159750E+01 -1.56321598E+01 -1.55792740E+01 -1.13403143E+01 -1.13007054E+01
 -1.12537659E+01 -1.12178447E+01 -1.43660144E+00 -1.35271666E+00 -1.08746973E+00
 -1.04427523E+00 -9.60141500E-01 -8.14093794E-01 -7.95801697E-01 -7.51147791E-01
 -6.75288999E-01 -6.46330154E-01 -6.21144217E-01 -5.94860411E-01 -5.94743702E-01
 -5.77261660E-01 -5.23606383E-01 -5.02237444E-01 -4.47289700E-01 -3.60350824E-01
 -3.18481092E-01  1.89361649E-01  2.34516893E-01  2.39429363E-01  2.56184936E-01
  2.72005579E-01  2.97723125E-01  3.09946985E-01  3.14227173E-01  3.25756473E-01
  3.98785375E-01  4.32929892E-01  4.86721150E-01  5.17354193E-01  5.86556440E-01
  6.53150213E-01  7.32281816E-01  7.47518166E-01  7.63133106E-01  7.87060296E-01
  7.91444574E-01  8.36401827E-01  8.47744014E-01  8.55398022E-01  8.93260816E-01
  8.97302804E-01  9.39953408E-01  9.58348435E-01  1.01642694E+00  1.05716693E+00
  1.08664387E+00  1.08958503E+00  1.09865299E+00  1.11323091E+00  1.11990838E+00
  1.14681370E+00  1.17087966E+00  1.19100416E+00  1.21073929E+00  1.23417709E+00
  1.31136056E+00  1.31444313E+00  1.33905767E+00  1.45707769E+00  1.50620222E+00
  1.54831502E+00  1.57297478E+00  1.60233836E+00  1.64526781E+00  1.67410571E+00
  1.74076344E+00  1.74800652E+00  1.78434612E+00  1.78458127E+00  1.84967724E+00
  1.92405722E+00  2.02850176E+00  2.13744299E+00  2.17192387E+00  2.24307396E+00
  2.29784962E+00  2.33860392E+00  2.37354281E+00  2.42777300E+00  2.42964134E+00
  2.45073174E+00  2.52138367E+00  2.52510158E+00  2.55508695E+00  2.60513853E+00
  2.64031366E+00  2.67454674E+00  2.73288843E+00  2.75249669E+00  2.86271975E+00
  2.90387065E+00  2.95724268E+00  2.97957344E+00  3.04784745E+00  3.10964656E+00
  3.13086418E+00  3.21124743E+00  3.34540302E+00  3.51467689E+00  3.57312716E+00
  4.18574569E+00  4.45981184E+00  4.53647515E+00  4.56402120E+00  4.72908458E+00
  4.78801589E+00  5.02737442E+00
Alpha MO coefficients                      R   N=       13689
  9.94649260E-01  2.12244809E-02  4.03634195E-04  1.27434995E-03  1.65222283E-07
  3.97707484E-03 -1.97214924E-05 -8.24309625E-04 -9.75579640E-08 -4.15517011E-03
 -4.11037886E-03 -3.85732002E-03  5.80844007E-05  4.27226412E-08 -5.16318102E-08
 -1.96455105E-05 -5.51347128E-05  1.29370720E-05 -5.60378721E-06  2.65758462E-10
  7.77339365E-04 -9.45541794E-05  1.76476956E-04 -1.88162128E-08 -9.45890810E-05
 -1.07757981E-05 -5.20019228E-05  4.07351030E-06  1.80054714E-09 -4.27311248E-09
  1.21891047E-05  4.89437150E-05  6.05292517E-07 -3.71128024E-06  1.10818962E-09
 -5.00568561E-04  1.52212535E-04 -1.21653212E-04 -2.39249149E-09  1.52521207E-05
  2.54048584E-05  2.88673077E-05  1.79304277E-05 -4.96756549E-10 -1.73591771E-09
 -1.26576137E-05  3.90640987E-04 -3.18661259E-04 -1.62145457E-04  2.09026553E-09
  1.98099733E-04 -6.95373158E-05  1.01119449E-03  3.64074288E-08 -1.32385394E-04
 -4.00001747E-05 -7.18231980E-05 -2.62745755E-05 -6.59213939E-10 -9.30884496E-10
  1.56139703E-05  8.94366059E-05  1.35212473E-05 -3.13718488E-06  1.49167292E-09
 -9.83907497E-04  2.64967702E-04  4.58645515E-04 -3.17641686E-08 -3.61797318E-05
  2.66630750E-05  2.57640279E-05 -4.83433928E-05  3.16341132E-09  4.63627342E-09
 -2.14947240E-06 -3.63658554E-06  3.04466489E-06  3.39811151E-06  5.24197840E-10
  2.71390623E-04 -1.06062863E-04 -2.90832038E-04  9.36987736E-09 -3.91665710E-06
  5.72251943E-06 -7.27704964E-06 -1.37090767E-05 -1.62752129E-10  8.84819288E-10
 -6.15257053E-06  2.51004523E-04  2.95055102E-04 -2.95389102E-04 -7.28794520E-08
 -9.23273441E-06 -4.64683795E-05  2.11631639E-04  4.00486636E-08  5.81136216E-05
  2.87927650E-05 -1.35707737E-05 -1.05653684E-04 -2.28164771E-08  2.06149920E-08
  1.32974291E-05 -2.29211334E-05  9.17395130E-06 -3.61788637E-05  1.97775685E-05
  7.70060110E-05  1.12320362E-05 -6.23890694E-05 -3.49197771E-05 -8.41105261E-05
 -3.49229101E-05 -8.41251666E-05 -1.91957634E-05 -1.25246690E-04 -2.12948370E-05
 -1.65276346E-05  2.06733484E-09  7.34898699E-04  1.18548010E-04  2.52294461E-04
 -1.88859719E-08 -8.16139711E-05 -2.67777402E-05 -9.66155313E-05  3.83158353E-05
 -2.75925822E-09 -2.79221433E-09  9.94975933E-01  2.52775215E-02  9.71325907E-05
  2.64315424E-04 -5.42839867E-08 -4.27888063E-03  3.16898378E-04 -1.67026032E-03
  7.55578774E-08 -3.45595334E-03 -3.35955630E-03 -3.31460726E-03  1.73976790E-05
  2.18397804E-09  7.28812118E-09  6.52131734E-03  2.74231314E-04 -2.45794919E-04
 -1.38393740E-04  1.15860195E-08  1.44200764E-03 -5.81535990E-04  5.66571600E-05
  1.02319879E-08 -1.60542820E-04 -1.48477850E-04 -8.19465248E-05 -4.80849806E-05
  4.63920276E-09  4.31948851E-09  1.60810108E-05  1.24534432E-04  1.49553183E-04
 -1.58913226E-04  4.54332257E-09  2.93127079E-03  2.57900584E-03 -5.36588777E-04
 -5.94267060E-08 -9.77205351E-05 -5.49017802E-05 -7.82306704E-05 -1.08563791E-05
  1.32026966E-09 -8.04731855E-10  9.41726633E-06 -1.24319177E-05  3.80389040E-05
  4.11616007E-05  1.02181978E-09 -1.29355600E-03 -7.80115188E-04  9.63007970E-04
 -2.01417199E-10  4.70533245E-05  2.00057590E-05 -1.04930306E-06  2.72360949E-06
 -1.91156879E-10 -2.30430977E-09 -7.00829534E-06 -1.14134405E-04 -3.60002665E-05
  6.63171227E-05 -1.79034633E-09  3.92424234E-04 -3.93232450E-04  3.45401476E-05
  2.31209092E-08  4.40701504E-05  4.56335430E-05 -2.25253851E-05  3.27928962E-05
 -4.62682266E-09 -4.35914103E-09 -2.33624540E-05 -9.87132380E-05 -4.56223536E-05
  6.73711117E-06  1.02260604E-08  3.42417627E-04  3.36527424E-04  8.27238135E-05
 -2.31764389E-08 -1.21706274E-05 -4.48158066E-05 -3.26872546E-05 -4.56239973E-06
  1.73151905E-10 -4.68783195E-09 -6.23941837E-05 -4.12627838E-04  1.38891519E-04
  7.17868149E-06 -7.96421738E-06  1.20270364E-04  1.09099094E-05  1.30929292E-04
 -2.91922524E-05 -4.35415426E-05 -2.91807439E-05 -4.35733168E-05 -4.57227654E-05
 -1.87596518E-04 -3.14819412E-05  6.60158300E-06  8.57325644E-10  1.27344319E-03
  4.33172324E-04 -7.75931984E-06 -1.08359232E-08 -1.13981757E-04 -1.44850237E-04
 -1.16461522E-04  1.01948891E-05  3.26988047E-09 -1.82196574E-09 -6.69367749E-03
  1.70878324E-04  1.62053269E-04  8.34331479E-05 -6.46576714E-09  1.30390380E-03
 -1.25870034E-04 -2.88727278E-04  1.38362404E-09 -5.09273048E-04 -1.87188613E-04
  1.71739525E-05 -3.14215126E-04  3.02917414E-08  1.66222061E-08  9.95239901E-01
  2.43685518E-02 -2.22238949E-03  7.07663423E-04  6.77577800E-08 -4.05340124E-03
  2.00048896E-03 -1.19224184E-03 -4.62378693E-08 -2.77154751E-03 -2.70538228E-03
 -3.04679540E-03 -4.68570100E-05 -9.60828169E-09 -6.11452812E-09 -3.56626814E-05
 -2.52471434E-04 -4.66533522E-05  3.67228836E-05  2.32191847E-09  1.35080875E-03
  1.51396176E-03  1.36857559E-03 -4.78679344E-08  7.05921956E-06  2.06134790E-05
 -8.30245893E-05  1.21010654E-05 -4.36988381E-09 -4.55215562E-09  2.77025846E-05
  8.85209649E-05 -5.58772146E-05  2.78263141E-05  2.65152422E-09 -3.36021181E-03
 -8.23037380E-04  1.74030323E-03 -6.44618737E-09  5.69888803E-06  4.01504578E-05
  2.69632205E-05 -7.32601619E-06  7.53921065E-10 -7.97566424E-10  7.45074147E-06
  2.75099700E-04  2.95334461E-05 -2.46588598E-05 -4.82214761E-10  3.79548407E-03
 -1.35460825E-03 -1.63377369E-03  6.95289809E-08 -7.73724498E-05 -5.48358925E-04
 -9.22502170E-05  7.36845097E-05 -1.90423976E-09  5.94711202E-09  1.33396444E-06
 -5.68186302E-06  6.45127958E-06 -1.33065512E-06 -3.40299276E-09  3.45480687E-05
 -4.14719094E-06 -8.44323381E-05 -6.82956183E-09  5.96313925E-06  2.11078886E-05
 -1.86519047E-06 -1.35324234E-05 -2.74246963E-09  7.33227611E-09 -5.38750145E-05
 -4.55032914E-04 -1.20715770E-04 -2.59224674E-04  3.81507863E-05  4.16373083E-04
 -3.32920365E-06 -2.93581569E-05  2.42102033E-06  3.44152225E-05  2.41775201E-06
  3.44235596E-05  3.93610806E-05  1.25558819E-03  2.31786916E-04  5.35388628E-05
  7.28455948E-09 -5.64637354E-03 -3.15527792E-03 -7.52897430E-04 -1.88537494E-08
 -5.18778464E-04  5.41450104E-04  8.40293112E-04 -3.90646765E-04  2.41881764E-08
 -2.94934826E-08 -2.78991968E-04  3.77593982E-04 -6.58639479E-05 -2.05937437E-05
 -3.61060115E-09  3.28591368E-04  1.65570001E-03 -2.46407218E-04  1.70476243E-08
 -5.35642539E-04 -3.53998246E-04  1.77021731E-04  2.67778700E-04  7.80253642E-09
  1.57965876E-08 -3.29015381E-05 -2.39442280E-04 -2.94472321E-05 -5.14491973E-05
  6.37549389E-09  6.42991598E-04 -1.99857342E-04  9.87192163E-04 -4.63521870E-08
  1.15142756E-04 -5.36943224E-05 -1.32026496E-04 -4.66266897E-05 -1.94598044E-09
  7.20387619E-10  9.95801475E-01  2.66874578E-02 -6.17415116E-04 -9.63172900E-04
  4.05319856E-08 -8.18630887E-03 -4.41360762E-03 -5.38558786E-03  9.83135922E-08
 -4.74150323E-04 -1.24223800E-03 -2.24509913E-03  2.62757033E-04 -3.62850567E-08
 -1.83397463E-08  4.77686653E-03 -2.39535415E-04 -1.65816580E-04  1.22533881E-04
  1.13109593E-08  7.67312912E-03 -7.40963179E-06 -3.67446454E-03  4.11401428E-08
 -2.30669142E-04 -3.77796029E-04 -1.46660132E-04  4.35014290E-05  5.01597304E-10
  5.07678754E-10 -8.93393016E-05 -2.12061463E-04  6.11254901E-05  5.97982334E-05
 -5.94945270E-09 -1.78876330E-03 -1.61198990E-04  1.75394058E-04  2.28517761E-08
  9.16654325E-05 -2.83678173E-05 -5.22127118E-05  9.64696045E-05 -6.59176469E-09
 -6.25027670E-09 -1.79345238E-04 -2.42247312E-04  3.69665186E-05 -7.18708153E-06
 -6.84132229E-09  1.99808400E-04  8.04428035E-04  5.20509532E-04  5.29303046E-08
  2.47062475E-04 -1.21537197E-04  5.91045064E-05 -6.68858627E-05 -1.19220335E-08
 -1.83444301E-08  5.74207906E-05  4.70432560E-04  3.80625064E-05 -2.31363873E-04
  4.06975918E-05  3.90248360E-04  1.01685739E-04  3.00975950E-04 -1.16582070E-04
 -7.94141016E-05 -1.16615286E-04 -7.94632185E-05 -8.21693973E-05  4.86568542E-04
 -1.03230417E-04  2.37357517E-04  3.13268883E-08 -4.14020616E-04 -2.50060676E-04
 -1.08379092E-03 -7.18566581E-08 -3.17257712E-04 -3.35689774E-04  3.03742702E-04
  3.75533274E-04  1.35929724E-07 -1.40898120E-07 -7.33575700E-05 -2.95677979E-04
 -1.14695884E-05 -3.73771273E-05  1.13946464E-08  3.46955795E-03 -3.41043978E-04