023_Phenol Gaussian SP Calculation on node35.bme.utexas.edu             
Freq      RMP2-FC                                                     6-31G(d)            
Number of atoms                            I               13
Info1-9                                    I   N=           9
          24          23        1002           0           0         100
           6           2           1
Charge                                     I                0
Multiplicity                               I                1
Number of electrons                        I               50
Number of alpha electrons                  I               25
Number of beta electrons                   I               25
Number of basis functions                  I              117
Number of independent functions            I              117
Number of point charges in /Mol/           I                0
Number of translation vectors              I                0
Atomic numbers                             I   N=          13
           6           6           6           6           6           6
           8           1           1           1           1           1
           1
Nuclear charges                            R   N=          13
  6.00000000E+00  6.00000000E+00  6.00000000E+00  6.00000000E+00  6.00000000E+00
  6.00000000E+00  8.00000000E+00  1.00000000E+00  1.00000000E+00  1.00000000E+00
  1.00000000E+00  1.00000000E+00  1.00000000E+00
Current cartesian coordinates              R   N=          39
  4.92644973E-01  2.27200076E+00 -5.01425725E-05 -2.14652156E+00  2.30153775E+00
  3.78092826E-05 -3.50795032E+00  4.42358844E-02 -2.81520599E-05 -2.20833489E+00
 -2.25601545E+00  3.54068249E-05  4.23884149E-01 -2.30897292E+00 -4.84285561E-05
  1.77176117E+00 -3.75895210E-02  2.83531796E-05  4.36469414E+00 -2.11985842E-01
  1.71548327E-05  1.54850859E+00  4.03935952E+00  3.46832990E-05 -3.13283461E+00
  4.10413556E+00 -3.50938385E-05 -5.56094879E+00  7.44796625E-02  6.67298989E-05
 -3.25075971E+00 -4.02676999E+00 -3.15952094E-05  1.46613732E+00 -4.07755285E+00
  1.51131642E-05  5.05944301E+00  1.49105585E+00 -3.61525677E-05
Force Field                                I                0
Int Atom Types                             I   N=          13
           0           0           0           0           0           0
           0           0           0           0           0           0
           0
MM charges                                 R   N=          13
  0.00000000E+00  0.00000000E+00  0.00000000E+00  0.00000000E+00  0.00000000E+00
  0.00000000E+00  0.00000000E+00  0.00000000E+00  0.00000000E+00  0.00000000E+00
  0.00000000E+00  0.00000000E+00  0.00000000E+00
Integer atomic weights                     I   N=          13
          12          12          12          12          12          12
          16           1           1           1           1           1
           1
Real atomic weights                        R   N=          13
  1.20000000E+01  1.20000000E+01  1.20000000E+01  1.20000000E+01  1.20000000E+01
  1.20000000E+01  1.59949146E+01  1.00782504E+00  1.00782504E+00  1.00782504E+00
  1.00782504E+00  1.00782504E+00  1.00782504E+00
Atom fragment info                         I   N=          13
           0           0           0           0           0           0
           0           0           0           0           0           0
           0
Atom residue num                           I   N=          13
           0           0           0           0           0           0
           0           0           0           0           0           0
           0
Nuclear spins                              I   N=          13
           0           0           0           0           0           0
           0           1           1           1           1           1
           1
Nuclear ZEff                               R   N=          13
 -3.60000000E+00 -3.60000000E+00 -3.60000000E+00 -3.60000000E+00 -3.60000000E+00
 -3.60000000E+00 -5.60000000E+00 -1.00000000E+00 -1.00000000E+00 -1.00000000E+00
 -1.00000000E+00 -1.00000000E+00 -1.00000000E+00
Nuclear QMom                               R   N=          13
  0.00000000E+00  0.00000000E+00  0.00000000E+00  0.00000000E+00  0.00000000E+00
  0.00000000E+00  0.00000000E+00  0.00000000E+00  0.00000000E+00  0.00000000E+00
  0.00000000E+00  0.00000000E+00  0.00000000E+00
Nuclear GFac                               R   N=          13
  0.00000000E+00  0.00000000E+00  0.00000000E+00  0.00000000E+00  0.00000000E+00
  0.00000000E+00  0.00000000E+00  2.79284600E+00  2.79284600E+00  2.79284600E+00
  2.79284600E+00  2.79284600E+00  2.79284600E+00
MicOpt                                     I   N=          13
          -1          -1          -1          -1          -1          -1
          -1          -1          -1          -1          -1          -1
          -1
Number of contracted shells                I               40
Number of primitive shells                 I              101
Pure/Cartesian d shells                    I                1
Pure/Cartesian f shells                    I                0
Highest angular momentum                   I                2
Largest degree of contraction              I                6
Shell types                                I   N=          40
           0          -1          -1           2           0          -1
          -1           2           0          -1          -1           2
           0          -1          -1           2           0          -1
          -1           2           0          -1          -1           2
           0          -1          -1           2           0           0
           0           0           0           0           0           0
           0           0           0           0
Number of primitives per shell             I   N=          40
           6           3           1           1           6           3
           1           1           6           3           1           1
           6           3           1           1           6           3
           1           1           6           3           1           1
           6           3           1           1           3           1
           3           1           3           1           3           1
           3           1           3           1
Shell to atom map                          I   N=          40
           1           1           1           1           2           2
           2           2           3           3           3           3
           4           4           4           4           5           5
           5           5           6           6           6           6
           7           7           7           7           8           8
           9           9          10          10          11          11
          12          12          13          13
Primitive exponents                        R   N=         101
  3.04752488E+03  4.57369518E+02  1.03948685E+02  2.92101553E+01  9.28666296E+00
  3.16392696E+00  7.86827235E+00  1.88128854E+00  5.44249258E-01  1.68714478E-01
  8.00000000E-01  3.04752488E+03  4.57369518E+02  1.03948685E+02  2.92101553E+01
  9.28666296E+00  3.16392696E+00  7.86827235E+00  1.88128854E+00  5.44249258E-01
  1.68714478E-01  8.00000000E-01  3.04752488E+03  4.57369518E+02  1.03948685E+02
  2.92101553E+01  9.28666296E+00  3.16392696E+00  7.86827235E+00  1.88128854E+00
  5.44249258E-01  1.68714478E-01  8.00000000E-01  3.04752488E+03  4.57369518E+02
  1.03948685E+02  2.92101553E+01  9.28666296E+00  3.16392696E+00  7.86827235E+00
  1.88128854E+00  5.44249258E-01  1.68714478E-01  8.00000000E-01  3.04752488E+03
  4.57369518E+02  1.03948685E+02  2.92101553E+01  9.28666296E+00  3.16392696E+00
  7.86827235E+00  1.88128854E+00  5.44249258E-01  1.68714478E-01  8.00000000E-01
  3.04752488E+03  4.57369518E+02  1.03948685E+02  2.92101553E+01  9.28666296E+00
  3.16392696E+00  7.86827235E+00  1.88128854E+00  5.44249258E-01  1.68714478E-01
  8.00000000E-01  5.48467166E+03  8.25234946E+02  1.88046958E+02  5.29645000E+01
  1.68975704E+01  5.79963534E+00  1.55396162E+01  3.59993359E+00  1.01376175E+00
  2.70005823E-01  8.00000000E-01  1.87311370E+01  2.82539436E+00  6.40121692E-01
  1.61277759E-01  1.87311370E+01  2.82539436E+00  6.40121692E-01  1.61277759E-01
  1.87311370E+01  2.82539436E+00  6.40121692E-01  1.61277759E-01  1.87311370E+01
  2.82539436E+00  6.40121692E-01  1.61277759E-01  1.87311370E+01  2.82539436E+00
  6.40121692E-01  1.61277759E-01  1.87311370E+01  2.82539436E+00  6.40121692E-01
  1.61277759E-01
Contraction coefficients                   R   N=         101
  1.83473713E-03  1.40373228E-02  6.88426223E-02  2.32184443E-01  4.67941348E-01
  3.62311985E-01 -1.19332420E-01 -1.60854152E-01  1.14345644E+00  1.00000000E+00
  1.00000000E+00  1.83473713E-03  1.40373228E-02  6.88426223E-02  2.32184443E-01
  4.67941348E-01  3.62311985E-01 -1.19332420E-01 -1.60854152E-01  1.14345644E+00
  1.00000000E+00  1.00000000E+00  1.83473713E-03  1.40373228E-02  6.88426223E-02
  2.32184443E-01  4.67941348E-01  3.62311985E-01 -1.19332420E-01 -1.60854152E-01
  1.14345644E+00  1.00000000E+00  1.00000000E+00  1.83473713E-03  1.40373228E-02
  6.88426223E-02  2.32184443E-01  4.67941348E-01  3.62311985E-01 -1.19332420E-01
 -1.60854152E-01  1.14345644E+00  1.00000000E+00  1.00000000E+00  1.83473713E-03
  1.40373228E-02  6.88426223E-02  2.32184443E-01  4.67941348E-01  3.62311985E-01
 -1.19332420E-01 -1.60854152E-01  1.14345644E+00  1.00000000E+00  1.00000000E+00
  1.83473713E-03  1.40373228E-02  6.88426223E-02  2.32184443E-01  4.67941348E-01
  3.62311985E-01 -1.19332420E-01 -1.60854152E-01  1.14345644E+00  1.00000000E+00
  1.00000000E+00  1.83107443E-03  1.39501722E-02  6.84450781E-02  2.32714336E-01
  4.70192898E-01  3.58520853E-01 -1.10777550E-01 -1.48026263E-01  1.13076702E+00
  1.00000000E+00  1.00000000E+00  3.34946043E-02  2.34726953E-01  8.13757326E-01
  1.00000000E+00  3.34946043E-02  2.34726953E-01  8.13757326E-01  1.00000000E+00
  3.34946043E-02  2.34726953E-01  8.13757326E-01  1.00000000E+00  3.34946043E-02
  2.34726953E-01  8.13757326E-01  1.00000000E+00  3.34946043E-02  2.34726953E-01
  8.13757326E-01  1.00000000E+00  3.34946043E-02  2.34726953E-01  8.13757326E-01
  1.00000000E+00
P(S=P) Contraction coefficients            R   N=         101
  0.00000000E+00  0.00000000E+00  0.00000000E+00  0.00000000E+00  0.00000000E+00
  0.00000000E+00  6.89990666E-02  3.16423961E-01  7.44308291E-01  1.00000000E+00
  0.00000000E+00  0.00000000E+00  0.00000000E+00  0.00000000E+00  0.00000000E+00
  0.00000000E+00  0.00000000E+00  6.89990666E-02  3.16423961E-01  7.44308291E-01
  1.00000000E+00  0.00000000E+00  0.00000000E+00  0.00000000E+00  0.00000000E+00
  0.00000000E+00  0.00000000E+00  0.00000000E+00  6.89990666E-02  3.16423961E-01
  7.44308291E-01  1.00000000E+00  0.00000000E+00  0.00000000E+00  0.00000000E+00
  0.00000000E+00  0.00000000E+00  0.00000000E+00  0.00000000E+00  6.89990666E-02
  3.16423961E-01  7.44308291E-01  1.00000000E+00  0.00000000E+00  0.00000000E+00
  0.00000000E+00  0.00000000E+00  0.00000000E+00  0.00000000E+00  0.00000000E+00
  6.89990666E-02  3.16423961E-01  7.44308291E-01  1.00000000E+00  0.00000000E+00
  0.00000000E+00  0.00000000E+00  0.00000000E+00  0.00000000E+00  0.00000000E+00
  0.00000000E+00  6.89990666E-02  3.16423961E-01  7.44308291E-01  1.00000000E+00
  0.00000000E+00  0.00000000E+00  0.00000000E+00  0.00000000E+00  0.00000000E+00
  0.00000000E+00  0.00000000E+00  7.08742682E-02  3.39752839E-01  7.27158577E-01
  1.00000000E+00  0.00000000E+00  0.00000000E+00  0.00000000E+00  0.00000000E+00
  0.00000000E+00  0.00000000E+00  0.00000000E+00  0.00000000E+00  0.00000000E+00
  0.00000000E+00  0.00000000E+00  0.00000000E+00  0.00000000E+00  0.00000000E+00
  0.00000000E+00  0.00000000E+00  0.00000000E+00  0.00000000E+00  0.00000000E+00
  0.00000000E+00  0.00000000E+00  0.00000000E+00  0.00000000E+00  0.00000000E+00
  0.00000000E+00
Coordinates of each shell                  R   N=         120
  4.92644973E-01  2.27200076E+00 -5.01425725E-05  4.92644973E-01  2.27200076E+00
 -5.01425725E-05  4.92644973E-01  2.27200076E+00 -5.01425725E-05  4.92644973E-01
  2.27200076E+00 -5.01425725E-05 -2.14652156E+00  2.30153775E+00  3.78092826E-05
 -2.14652156E+00  2.30153775E+00  3.78092826E-05 -2.14652156E+00  2.30153775E+00
  3.78092826E-05 -2.14652156E+00  2.30153775E+00  3.78092826E-05 -3.50795032E+00
  4.42358844E-02 -2.81520599E-05 -3.50795032E+00  4.42358844E-02 -2.81520599E-05
 -3.50795032E+00  4.42358844E-02 -2.81520599E-05 -3.50795032E+00  4.42358844E-02
 -2.81520599E-05 -2.20833489E+00 -2.25601545E+00  3.54068249E-05 -2.20833489E+00
 -2.25601545E+00  3.54068249E-05 -2.20833489E+00 -2.25601545E+00  3.54068249E-05
 -2.20833489E+00 -2.25601545E+00  3.54068249E-05  4.23884149E-01 -2.30897292E+00
 -4.84285561E-05  4.23884149E-01 -2.30897292E+00 -4.84285561E-05  4.23884149E-01
 -2.30897292E+00 -4.84285561E-05  4.23884149E-01 -2.30897292E+00 -4.84285561E-05
  1.77176117E+00 -3.75895210E-02  2.83531796E-05  1.77176117E+00 -3.75895210E-02
  2.83531796E-05  1.77176117E+00 -3.75895210E-02  2.83531796E-05  1.77176117E+00
 -3.75895210E-02  2.83531796E-05  4.36469414E+00 -2.11985842E-01  1.71548327E-05
  4.36469414E+00 -2.11985842E-01  1.71548327E-05  4.36469414E+00 -2.11985842E-01
  1.71548327E-05  4.36469414E+00 -2.11985842E-01  1.71548327E-05  1.54850859E+00
  4.03935952E+00  3.46832990E-05  1.54850859E+00  4.03935952E+00  3.46832990E-05
 -3.13283461E+00  4.10413556E+00 -3.50938385E-05 -3.13283461E+00  4.10413556E+00
 -3.50938385E-05 -5.56094879E+00  7.44796625E-02  6.67298989E-05 -5.56094879E+00
  7.44796625E-02  6.67298989E-05 -3.25075971E+00 -4.02676999E+00 -3.15952094E-05
 -3.25075971E+00 -4.02676999E+00 -3.15952094E-05  1.46613732E+00 -4.07755285E+00
  1.51131642E-05  1.46613732E+00 -4.07755285E+00  1.51131642E-05  5.05944301E+00
  1.49105585E+00 -3.61525677E-05  5.05944301E+00  1.49105585E+00 -3.61525677E-05
Constraint Structure                       R   N=          39
  4.92644973E-01  2.27200076E+00 -5.01425725E-05 -2.14652156E+00  2.30153775E+00
  3.78092826E-05 -3.50795032E+00  4.42358844E-02 -2.81520599E-05 -2.20833489E+00
 -2.25601545E+00  3.54068249E-05  4.23884149E-01 -2.30897292E+00 -4.84285561E-05
  1.77176117E+00 -3.75895210E-02  2.83531796E-05  4.36469414E+00 -2.11985842E-01
  1.71548327E-05  1.54850859E+00  4.03935952E+00  3.46832990E-05 -3.13283461E+00
  4.10413556E+00 -3.50938385E-05 -5.56094879E+00  7.44796625E-02  6.67298989E-05
 -3.25075971E+00 -4.02676999E+00 -3.15952094E-05  1.46613732E+00 -4.07755285E+00
  1.51131642E-05  5.05944301E+00  1.49105585E+00 -3.61525677E-05
Num ILSW                                   I              100
ILSW                                       I   N=         100
           0           1           0           0           2           0
           0           0           0           0           0          -1
           0           0           0           0           0           0
           0           0           0           0           1           0
           1           0           0           0           0           0
           0           0      100000           0          -1           0
           0           0           0           0           0           0
           0           0           0           1           1           0
           0           0           1           0           0           0
           0           0           4          40           0           0
           0           0           0           0           0           0
           0           0           0           0           0           0
           0           0           0           0           0           0
           0           0           0           0           0           0
           0           0           0           0           0           0
           0           0           0           0           0           0
           0           0           0           0
Num RLSW                                   I               40
RLSW                                       R   N=          40
  1.00000000E+00  1.00000000E+00  1.00000000E+00  1.00000000E+00  1.00000000E+00
  0.00000000E+00  0.00000000E+00  1.00000000E+00  0.00000000E+00  0.00000000E+00
  0.00000000E+00  0.00000000E+00  1.00000000E+00  0.00000000E+00  0.00000000E+00
  0.00000000E+00  0.00000000E+00  1.00000000E+00  0.00000000E+00  0.00000000E+00
  0.00000000E+00  0.00000000E+00  1.00000000E+00  0.00000000E+00  0.00000000E+00
  0.00000000E+00  0.00000000E+00  1.00000000E+00  0.00000000E+00  0.00000000E+00
  0.00000000E+00  0.00000000E+00  0.00000000E+00  0.00000000E+00  0.00000000E+00
  0.00000000E+00  0.00000000E+00  0.00000000E+00  1.00000000E+00  1.00000000E+00
MxBond                                     I                3
NBond                                      I   N=          13
           3           3           3           3           3           3
           2           1           1           1           1           1
           1
IBond                                      I   N=          39
           2           6           8           1           3           9
           2           4          10           3           5          11
           4           6          12           1           5           7
           6          13           0           1           0           0
           2           0           0           3           0           0
           4           0           0           5           0           0
           7           0           0
RBond                                      R   N=          39
  1.50000000E+00  1.50000000E+00  1.00000000E+00  1.50000000E+00  1.50000000E+00
  1.00000000E+00  1.50000000E+00  1.50000000E+00  1.00000000E+00  1.50000000E+00
  1.50000000E+00  1.00000000E+00  1.50000000E+00  1.50000000E+00  1.00000000E+00
  1.50000000E+00  1.50000000E+00  1.50000000E+00  1.50000000E+00  1.00000000E+00
  0.00000000E+00  1.00000000E+00  0.00000000E+00  0.00000000E+00  1.00000000E+00
  0.00000000E+00  0.00000000E+00  1.00000000E+00  0.00000000E+00  0.00000000E+00
  1.00000000E+00  0.00000000E+00  0.00000000E+00  1.00000000E+00  0.00000000E+00
  0.00000000E+00  1.00000000E+00  0.00000000E+00  0.00000000E+00
Virial Ratio                               R      2.002401900066184E+00
SCF Energy                                 R     -3.055555951292638E+02
MP2 Energy                                 R     -3.064909928776046E+02
Total Energy                               R     -3.064909928776046E+02
Post-SCF wavefunction norm                 R      1.628512612176771E+00
RMS Force                                  R      4.029726249076992E-06
RMS Density                                R      9.983037060528372E-10
External E-field                           R   N=          35
  0.00000000E+00  0.00000000E+00  0.00000000E+00  0.00000000E+00  0.00000000E+00
  0.00000000E+00  0.00000000E+00  0.00000000E+00  0.00000000E+00  0.00000000E+00
  0.00000000E+00  0.00000000E+00  0.00000000E+00  0.00000000E+00  0.00000000E+00
  0.00000000E+00  0.00000000E+00  0.00000000E+00  0.00000000E+00  0.00000000E+00
  0.00000000E+00  0.00000000E+00  0.00000000E+00  0.00000000E+00  0.00000000E+00
  0.00000000E+00  0.00000000E+00  0.00000000E+00  0.00000000E+00  0.00000000E+00
  0.00000000E+00  0.00000000E+00  0.00000000E+00  0.00000000E+00  0.00000000E+00
IOpCl                                      I                0
IROHF                                      I                0
Alpha Orbital Energies                     R   N=         117
 -2.05937830E+01 -1.13026712E+01 -1.12430349E+01 -1.12406303E+01 -1.12351377E+01
 -1.12280918E+01 -1.12280000E+01 -1.39536627E+00 -1.14165064E+00 -1.01542191E+00
 -9.99761821E-01 -8.40989563E-01 -8.16790536E-01 -7.25053946E-01 -6.79399363E-01
 -6.46381509E-01 -6.04641746E-01 -5.87350560E-01 -5.81420856E-01 -5.62213262E-01
 -5.12089647E-01 -4.90315452E-01 -4.76938199E-01 -3.37614810E-01 -3.09933714E-01
  1.40085513E-01  1.60210149E-01  2.17906538E-01  2.37146872E-01  2.91760063E-01
  3.05581195E-01  3.32669869E-01  3.37942180E-01  3.71972829E-01  4.30093363E-01
  4.72675207E-01  4.75188538E-01  5.26335535E-01  5.41052348E-01  6.74250187E-01
  7.20805253E-01  7.40874645E-01  7.50226075E-01  7.94134508E-01  8.14511327E-01
  8.27349713E-01  8.34021660E-01  8.36983109E-01  8.38789517E-01  8.67287737E-01
  8.77312396E-01  9.07853764E-01  9.17919109E-01  1.00206687E+00  1.00857046E+00
  1.10515159E+00  1.10964172E+00  1.11296571E+00  1.12381979E+00  1.16609372E+00
  1.18232582E+00  1.18748561E+00  1.20380256E+00  1.23920519E+00  1.24359074E+00
  1.28418710E+00  1.33998876E+00  1.35747485E+00  1.42715664E+00  1.44850078E+00
  1.50263231E+00  1.54944188E+00  1.62058900E+00  1.62907473E+00  1.70229258E+00
  1.71617216E+00  1.74319322E+00  1.77017499E+00  1.79060223E+00  1.94672324E+00
  2.03043417E+00  2.05891126E+00  2.08331360E+00  2.14766047E+00  2.17753150E+00
  2.23722488E+00  2.28442527E+00  2.28831170E+00  2.29854771E+00  2.39553779E+00
  2.43548871E+00  2.44813861E+00  2.46194167E+00  2.56444693E+00  2.57907887E+00
  2.63322942E+00  2.63795296E+00  2.73333540E+00  2.82520153E+00  2.87206375E+00
  2.90033680E+00  2.99183571E+00  2.99890036E+00  3.07546572E+00  3.07873519E+00
  3.09216659E+00  3.19388532E+00  3.30100873E+00  3.47236981E+00  3.79239482E+00
  4.35390802E+00  4.51119839E+00  4.53868847E+00  4.60061240E+00  4.75173676E+00
  4.82657521E+00  5.15100127E+00
Alpha MO coefficients                      R   N=       13689
  8.54503232E-06  9.11405902E-05 -4.65295483E-05  2.43340128E-05 -1.40976370E-09
 -9.57573474E-04 -7.82460749E-05  3.80003591E-04 -1.80098581E-08 -7.94060063E-05
 -7.14368873E-06  2.47001255E-06  4.88948402E-05 -5.28458778E-10  1.07239119E-09
 -5.11824605E-06 -2.83213551E-05  2.09741722E-05  1.36364929E-05 -1.71006729E-09
  2.49647647E-04  1.31148445E-04 -1.95305989E-04  1.06747792E-09  2.70443358E-05
 -6.76863985E-06 -1.16047825E-05  9.97128975E-06 -1.54306823E-09  1.55379889E-09
  1.39397161E-06  1.18956208E-05 -1.06843728E-06 -1.62409336E-05 -3.25390158E-10
 -1.19075306E-04 -5.13115951E-05  1.66229240E-05 -2.34521942E-09 -3.21769611E-07
 -1.05507615E-05  4.28800996E-06 -3.53050921E-06 -4.91311526E-10  2.61625365E-10
  5.84791517E-06  2.98748623E-05 -4.01049693E-06  4.09555728E-06  8.87638231E-11
 -2.93398198E-04 -1.99291832E-04 -4.93819793E-05 -1.61219299E-09  4.81245553E-06
  7.71302499E-06  1.18871259E-05 -1.50909426E-05 -1.61337835E-09  7.98149632E-10
 -7.60989196E-06  1.95907404E-06  1.53253136E-05  6.93404454E-06 -9.26361634E-10
  7.78206293E-04 -1.17600602E-04  1.49975183E-04  2.85800375E-08 -4.88740446E-05
 -2.10443649E-05 -2.47540493E-05 -3.26540710E-05 -1.58493895E-09  2.73028607E-09
 -1.25556192E-05  3.34312331E-04  3.32092819E-04 -6.34757741E-05 -1.69196423E-10
  1.63441653E-04 -1.76720787E-04  9.08652517E-04 -2.08411057E-08 -5.89683627E-05
 -3.80856604E-06 -7.21347378E-05 -1.95373360E-05  5.48655203E-10 -2.43660578E-09
  9.94644222E-01  2.11717655E-02 -7.08127989E-04  1.13486030E-03 -2.09823068E-08
  4.03479102E-03  2.47220293E-04 -6.96156016E-04  1.42575039E-08 -4.16006752E-03
 -4.11055368E-03 -3.89509119E-03 -3.20927053E-05  4.29389805E-09  7.79863916E-09
 -4.94602320E-06 -1.17174280E-05  1.44390864E-05  6.25460926E-05  9.24816482E-08
 -1.34346453E-05  1.69204845E-06 -3.01187870E-05  2.54865838E-05 -6.12698551E-05
  4.45080206E-04 -2.33671025E-04  8.30056035E-03 -2.23515687E-04  2.04857739E-05
  1.63064455E-04 -3.45868197E-09  9.71525020E-03 -2.01711945E-03 -5.36746016E-03
  4.40969921E-08 -4.28150351E-04 -3.24118321E-04 -2.35339157E-04  1.49299538E-04
 -3.63066107E-08 -1.14967283E-08  6.19482105E-05  6.13365051E-05 -8.60657531E-05
  3.09535263E-05 -1.73715566E-08 -5.15682120E-03 -1.37015787E-03  2.22376090E-03
  1.95640206E-07  9.94835176E-05  3.97416526E-05  1.10661083E-05 -3.82346761E-05
  1.62415757E-08 -3.54908317E-08 -1.96443199E-04 -2.89250400E-04 -6.38767256E-05
  3.46640750E-06 -6.19401962E-09  4.07950835E-03  2.57717382E-03  1.66475005E-05
  1.24524237E-08 -3.01449172E-05  1.69255258E-05 -1.20124170E-04  1.70696590E-06
  2.38880107E-08 -1.65535268E-10  6.11888196E-05  5.72597816E-05 -7.89191504E-05
 -3.23044881E-05 -1.83209675E-08 -5.19439703E-03 -1.51434266E-03 -2.02815479E-03
  1.95029603E-07  1.07490033E-04  3.59328523E-05  1.12766654E-05  3.89920556E-05
  1.70575305E-08  3.25512506E-08  7.46352139E-03 -2.35314290E-04  1.63918453E-05
 -1.30106750E-04 -6.61509938E-09  9.08647664E-03 -2.19743090E-03  5.07399602E-03
  3.85599697E-08 -4.44282036E-04 -2.64639488E-04 -2.34923408E-04 -1.35817575E-04
 -3.52507224E-08  1.06331997E-08  9.95781508E-01  2.71531663E-02  1.00039572E-03
 -2.31350855E-06 -8.22760063E-08 -1.55183716E-02  8.96903442E-03 -7.12019116E-04
  4.11929111E-07 -8.19305901E-04 -1.27992287E-03 -2.13760771E-03 -9.03087155E-05
 -2.27886848E-08  2.80413737E-10  4.60410643E-05  1.21888321E-03 -2.13961245E-04
  1.38251445E-05  2.77062129E-08 -5.36701680E-03  2.68505731E-03 -1.52016620E-04
 -1.44545913E-07 -5.72797109E-04  6.15212047E-04  8.35842685E-04  2.67736254E-05
  3.27639691E-08  1.42746898E-09  1.08968737E-04  1.47104418E-03 -5.45162094E-05
 -4.03946918E-04  7.84958849E-05  6.58678266E-04 -4.62863075E-05 -3.64315776E-04
  1.25710473E-04  1.41441961E-03  1.93176007E-04 -2.49104895E-04  7.29464702E-02
  1.77152503E-03  1.96450875E-04  2.25202751E-05 -3.73399992E-09  5.63537533E-03
 -2.13193185E-03 -1.55383682E-03 -5.40245017E-10 -6.48744459E-04 -4.11945867E-04
 -3.26641016E-04  5.21578016E-05  2.11122685E-08 -7.73290734E-09  9.92164577E-01
  2.75541312E-02  1.77642630E-04 -1.53646538E-04 -8.46992376E-08 -1.47559997E-02
 -1.37278175E-03  2.56132774E-03  2.77604256E-07 -1.56186934E-03 -1.70481661E-03
 -2.32295954E-03  1.39529568E-04  1.03958196E-08 -2.74695882E-08  3.91418590E-02
  8.08494300E-04 -1.27071889E-04 -1.16325907E-04 -5.95943823E-09  5.84132416E-03
  2.61316199E-03  1.20699777E-03 -1.60089934E-08 -3.58150300E-04 -5.40473742E-04
 -2.38719860E-04 -7.40392825E-05 -3.62869625E-10 -1.87370833E-08  7.41935599E-03
  1.95086896E-04  9.67697670E-06 -2.66540447E-05 -1.21427662E-08 -2.50923161E-03
 -7.65094728E-04 -1.05679292E-03  1.11058065E-07  1.36156265E-05  9.99222264E-05
 -1.87298756E-06 -1.29154312E-05  1.34762968E-08  1.49430433E-08 -4.50735936E-04
 -1.62113139E-04  1.59722715E-05 -3.81821740E-05  9.81941488E-10  1.87878134E-03
 -8.19277340E-04  9.95017889E-04 -1.96342777E-08 -2.39057967E-06 -6.50203944E-06
 -6.29877349E-05  8.50137019E-07 -6.72907189E-09  4.98083498E-09 -6.56882518E-04
 -3.48296944E-05  1.41471911E-05  2.16941418E-07 -1.80386240E-08 -2.28991469E-03
  9.95980818E-04 -3.62933464E-04  1.53255424E-07  4.57024007E-05  4.78757815E-05
  1.15755376E-05 -4.25231371E-05 -1.10811015E-08 -1.48786982E-09 -8.47717405E-06
 -3.83223760E-05  1.38429809E-05 -7.05399256E-06  1.04081666E-08  5.60383660E-05
 -1.06807658E-04  9.24220614E-05 -5.23251160E-08 -1.15028819E-05 -1.77608598E-05
 -3.80867344E-05 -2.92061836E-05  9.91412122E-09 -7.29734205E-10 -2.85408310E-05
  4.69641383E-04 -2.27239058E-04  1.30360368E-03 -6.08230197E-06  4.95952468E-04
 -3.44442457E-05 -1.79116706E-04  4.50670564E-05  3.39829631E-04 -2.18876239E-05
  5.26329783E-05 -2.89124648E-03 -2.20313073E-04  1.45237643E-05  3.65744870E-05
  1.79409305E-09  1.73967319E-03 -8.39944493E-04 -9.08076633E-04 -2.24910835E-08
  9.38749299E-06  1.46041570E-07 -5.29836409E-05 -4.02097544E-08 -7.74528514E-09
 -5.47674441E-09 -8.98036753E-03 -2.63080728E-04  9.30309643E-06  3.09423264E-05
 -1.08150786E-08 -2.24326741E-03 -7.23161368E-04  1.00923906E-03  1.08963790E-07
  4.07864314E-05  1.25732802E-04  3.56577563E-05  1.41505852E-05  1.35810286E-08
 -1.49272779E-08  4.51713375E-02  9.97024517E-04 -1.20295851E-04  1.24460571E-04
 -4.94678322E-09  5.68729860E-03  2.52738685E-03 -1.31273939E-03 -1.45114754E-08
 -3.65806131E-04 -5.65575051E-04 -2.52814741E-04  7.93412797E-05  5.02694403E-10
  1.84577909E-08  9.93492668E-01  2.76052237E-02  1.43121925E-04  1.77736668E-04
 -8.03214092E-08 -1.48907009E-02 -1.48871794E-03 -2.55760331E-03  2.63527876E-07
 -1.55859291E-03 -1.70006589E-03 -2.32603571E-03 -1.45461738E-04  9.47870957E-09
  2.60873911E-08  4.65228874E-02  1.01153541E-03  1.92227121E-04 -3.24959542E-05
 -7.50982774E-09  6.10035881E-03 -2.11022074E-03  1.72225357E-03  1.26337741E-08
 -5.82992982E-04 -3.65427422E-04 -2.62909046E-04 -4.78721721E-05  1.95679408E-08
  7.04884171E-09 -3.57957575E-04 -2.01186001E-05  1.23390945E-05 -4.92317122E-06
 -1.78466500E-08 -2.41368227E-03  1.02553699E-03  4.95974980E-04  1.48491138E-07
  5.72085112E-05  5.51426752E-05  1.64747622E-05  4.99635102E-05 -1.04761247E-08
  9.71567382E-10 -1.03088042E-05 -3.84433421E-05  8.90102289E-06  1.58168827E-05
  1.00973913E-08  1.12287875E-04 -1.21185320E-04 -1.51701079E-04 -5.03150866E-08
 -8.88527763E-06 -4.21986247E-05 -3.34791437E-05  3.08955467E-05  9.55605742E-09
 -7.81776237E-10  4.77315365E-05  3.16688950E-04 -2.92156065E-05 -1.97296872E-04
 -9.47559366E-06  4.94214845E-04 -2.26461329E-04  1.29487879E-03 -2.18477049E-05
  4.50767940E-04  1.85824379E-05  7.78409440E-06  9.92927891E-01  2.78832254E-02
 -4.04662833E-05 -2.78427700E-04  1.16501776E-07 -1.59119847E-02  1.51811625E-03
  2.88986025E-03 -3.01427403E-07 -1.57860323E-03 -1.73373700E-03 -2.31605107E-03
 -1.61149522E-04  1.27161997E-08  2.48457356E-08 -7.33272328E-02 -2.30320046E-03
 -1.83830741E-04  6.75830275E-05  1.94219724E-08  7.51132684E-03  2.39556449E-03
 -2.00049156E-03 -4.92532565E-08 -3.84842038E-04 -1.53980517E-04  2.53733075E-05
 -6.30956519E-05  1.87284971E-08  1.46223140E-08 -6.58773916E-03 -1.47184393E-04
 -1.47895757E-06 -4.75741767E-06  1.12804685E-08 -3.06490301E-03 -1.67184125E-03
 -1.27365521E-04 -8.13672363E-08  1.24779468E-04  1.21907578E-04  5.23333850E-05
  5.59904878E-05 -1.98339996E-08  4.52491945E-09  2.52198579E-03 -7.91168806E-05