200_Butyraldehyde Gaussian SP Calculation on node58.bme.utexas.edu      
Freq      RMP2-FC                                                     6-31G(d)            
Number of atoms                            I               13
Info1-9                                    I   N=           9
          24          23        1002           0           0         100
           6           2           1
Charge                                     I                0
Multiplicity                               I                1
Number of electrons                        I               40
Number of alpha electrons                  I               20
Number of beta electrons                   I               20
Number of basis functions                  I               91
Number of independent functions            I               91
Number of point charges in /Mol/           I                0
Number of translation vectors              I                0
Atomic numbers                             I   N=          13
           8           6           6           6           6           1
           1           1           1           1           1           1
           1
Nuclear charges                            R   N=          13
  8.00000000E+00  6.00000000E+00  6.00000000E+00  6.00000000E+00  6.00000000E+00
  1.00000000E+00  1.00000000E+00  1.00000000E+00  1.00000000E+00  1.00000000E+00
  1.00000000E+00  1.00000000E+00  1.00000000E+00
Current cartesian coordinates              R   N=          39
 -3.77607029E+00 -1.37618609E+00  4.81191461E-06  1.55274577E+00 -8.69368924E-01
 -1.17581016E-05 -1.72959142E-01  1.43237389E+00 -5.26456612E-06  4.34226485E+00
 -1.40860134E-01  8.52982795E-06 -2.94441611E+00  7.83147639E-01  2.76250661E-06
  1.11720498E+00 -2.03654859E+00  1.65121408E+00  1.11722343E+00 -2.03652814E+00
 -1.65125704E+00  1.89668735E-01  2.64315499E+00  1.65058570E+00  1.89658976E-01
  2.64315700E+00 -1.65059663E+00  4.81843511E+00  9.81376926E-01  1.67092414E+00
  5.54947911E+00 -1.81807890E+00 -2.27068729E-05  4.81844364E+00  9.81444955E-01
 -1.67085921E+00 -4.25736385E+00  2.41975558E+00  7.55781184E-06
Force Field                                I                0
Int Atom Types                             I   N=          13
           0           0           0           0           0           0
           0           0           0           0           0           0
           0
MM charges                                 R   N=          13
  0.00000000E+00  0.00000000E+00  0.00000000E+00  0.00000000E+00  0.00000000E+00
  0.00000000E+00  0.00000000E+00  0.00000000E+00  0.00000000E+00  0.00000000E+00
  0.00000000E+00  0.00000000E+00  0.00000000E+00
Integer atomic weights                     I   N=          13
          16          12          12          12          12           1
           1           1           1           1           1           1
           1
Real atomic weights                        R   N=          13
  1.59949146E+01  1.20000000E+01  1.20000000E+01  1.20000000E+01  1.20000000E+01
  1.00782504E+00  1.00782504E+00  1.00782504E+00  1.00782504E+00  1.00782504E+00
  1.00782504E+00  1.00782504E+00  1.00782504E+00
Atom fragment info                         I   N=          13
           0           0           0           0           0           0
           0           0           0           0           0           0
           0
Atom residue num                           I   N=          13
           0           0           0           0           0           0
           0           0           0           0           0           0
           0
Nuclear spins                              I   N=          13
           0           0           0           0           0           1
           1           1           1           1           1           1
           1
Nuclear ZEff                               R   N=          13
 -5.60000000E+00 -3.60000000E+00 -3.60000000E+00 -3.60000000E+00 -3.60000000E+00
 -1.00000000E+00 -1.00000000E+00 -1.00000000E+00 -1.00000000E+00 -1.00000000E+00
 -1.00000000E+00 -1.00000000E+00 -1.00000000E+00
Nuclear QMom                               R   N=          13
  0.00000000E+00  0.00000000E+00  0.00000000E+00  0.00000000E+00  0.00000000E+00
  0.00000000E+00  0.00000000E+00  0.00000000E+00  0.00000000E+00  0.00000000E+00
  0.00000000E+00  0.00000000E+00  0.00000000E+00
Nuclear GFac                               R   N=          13
  0.00000000E+00  0.00000000E+00  0.00000000E+00  0.00000000E+00  0.00000000E+00
  2.79284600E+00  2.79284600E+00  2.79284600E+00  2.79284600E+00  2.79284600E+00
  2.79284600E+00  2.79284600E+00  2.79284600E+00
MicOpt                                     I   N=          13
          -1          -1          -1          -1          -1          -1
          -1          -1          -1          -1          -1          -1
          -1
Number of contracted shells                I               36
Number of primitive shells                 I               87
Pure/Cartesian d shells                    I                1
Pure/Cartesian f shells                    I                0
Highest angular momentum                   I                2
Largest degree of contraction              I                6
Shell types                                I   N=          36
           0          -1          -1           2           0          -1
          -1           2           0          -1          -1           2
           0          -1          -1           2           0          -1
          -1           2           0           0           0           0
           0           0           0           0           0           0
           0           0           0           0           0           0
Number of primitives per shell             I   N=          36
           6           3           1           1           6           3
           1           1           6           3           1           1
           6           3           1           1           6           3
           1           1           3           1           3           1
           3           1           3           1           3           1
           3           1           3           1           3           1
Shell to atom map                          I   N=          36
           1           1           1           1           2           2
           2           2           3           3           3           3
           4           4           4           4           5           5
           5           5           6           6           7           7
           8           8           9           9          10          10
          11          11          12          12          13          13
Primitive exponents                        R   N=          87
  5.48467166E+03  8.25234946E+02  1.88046958E+02  5.29645000E+01  1.68975704E+01
  5.79963534E+00  1.55396162E+01  3.59993359E+00  1.01376175E+00  2.70005823E-01
  8.00000000E-01  3.04752488E+03  4.57369518E+02  1.03948685E+02  2.92101553E+01
  9.28666296E+00  3.16392696E+00  7.86827235E+00  1.88128854E+00  5.44249258E-01
  1.68714478E-01  8.00000000E-01  3.04752488E+03  4.57369518E+02  1.03948685E+02
  2.92101553E+01  9.28666296E+00  3.16392696E+00  7.86827235E+00  1.88128854E+00
  5.44249258E-01  1.68714478E-01  8.00000000E-01  3.04752488E+03  4.57369518E+02
  1.03948685E+02  2.92101553E+01  9.28666296E+00  3.16392696E+00  7.86827235E+00
  1.88128854E+00  5.44249258E-01  1.68714478E-01  8.00000000E-01  3.04752488E+03
  4.57369518E+02  1.03948685E+02  2.92101553E+01  9.28666296E+00  3.16392696E+00
  7.86827235E+00  1.88128854E+00  5.44249258E-01  1.68714478E-01  8.00000000E-01
  1.87311370E+01  2.82539436E+00  6.40121692E-01  1.61277759E-01  1.87311370E+01
  2.82539436E+00  6.40121692E-01  1.61277759E-01  1.87311370E+01  2.82539436E+00
  6.40121692E-01  1.61277759E-01  1.87311370E+01  2.82539436E+00  6.40121692E-01
  1.61277759E-01  1.87311370E+01  2.82539436E+00  6.40121692E-01  1.61277759E-01
  1.87311370E+01  2.82539436E+00  6.40121692E-01  1.61277759E-01  1.87311370E+01
  2.82539436E+00  6.40121692E-01  1.61277759E-01  1.87311370E+01  2.82539436E+00
  6.40121692E-01  1.61277759E-01
Contraction coefficients                   R   N=          87
  1.83107443E-03  1.39501722E-02  6.84450781E-02  2.32714336E-01  4.70192898E-01
  3.58520853E-01 -1.10777550E-01 -1.48026263E-01  1.13076702E+00  1.00000000E+00
  1.00000000E+00  1.83473713E-03  1.40373228E-02  6.88426223E-02  2.32184443E-01
  4.67941348E-01  3.62311985E-01 -1.19332420E-01 -1.60854152E-01  1.14345644E+00
  1.00000000E+00  1.00000000E+00  1.83473713E-03  1.40373228E-02  6.88426223E-02
  2.32184443E-01  4.67941348E-01  3.62311985E-01 -1.19332420E-01 -1.60854152E-01
  1.14345644E+00  1.00000000E+00  1.00000000E+00  1.83473713E-03  1.40373228E-02
  6.88426223E-02  2.32184443E-01  4.67941348E-01  3.62311985E-01 -1.19332420E-01
 -1.60854152E-01  1.14345644E+00  1.00000000E+00  1.00000000E+00  1.83473713E-03
  1.40373228E-02  6.88426223E-02  2.32184443E-01  4.67941348E-01  3.62311985E-01
 -1.19332420E-01 -1.60854152E-01  1.14345644E+00  1.00000000E+00  1.00000000E+00
  3.34946043E-02  2.34726953E-01  8.13757326E-01  1.00000000E+00  3.34946043E-02
  2.34726953E-01  8.13757326E-01  1.00000000E+00  3.34946043E-02  2.34726953E-01
  8.13757326E-01  1.00000000E+00  3.34946043E-02  2.34726953E-01  8.13757326E-01
  1.00000000E+00  3.34946043E-02  2.34726953E-01  8.13757326E-01  1.00000000E+00
  3.34946043E-02  2.34726953E-01  8.13757326E-01  1.00000000E+00  3.34946043E-02
  2.34726953E-01  8.13757326E-01  1.00000000E+00  3.34946043E-02  2.34726953E-01
  8.13757326E-01  1.00000000E+00
P(S=P) Contraction coefficients            R   N=          87
  0.00000000E+00  0.00000000E+00  0.00000000E+00  0.00000000E+00  0.00000000E+00
  0.00000000E+00  7.08742682E-02  3.39752839E-01  7.27158577E-01  1.00000000E+00
  0.00000000E+00  0.00000000E+00  0.00000000E+00  0.00000000E+00  0.00000000E+00
  0.00000000E+00  0.00000000E+00  6.89990666E-02  3.16423961E-01  7.44308291E-01
  1.00000000E+00  0.00000000E+00  0.00000000E+00  0.00000000E+00  0.00000000E+00
  0.00000000E+00  0.00000000E+00  0.00000000E+00  6.89990666E-02  3.16423961E-01
  7.44308291E-01  1.00000000E+00  0.00000000E+00  0.00000000E+00  0.00000000E+00
  0.00000000E+00  0.00000000E+00  0.00000000E+00  0.00000000E+00  6.89990666E-02
  3.16423961E-01  7.44308291E-01  1.00000000E+00  0.00000000E+00  0.00000000E+00
  0.00000000E+00  0.00000000E+00  0.00000000E+00  0.00000000E+00  0.00000000E+00
  6.89990666E-02  3.16423961E-01  7.44308291E-01  1.00000000E+00  0.00000000E+00
  0.00000000E+00  0.00000000E+00  0.00000000E+00  0.00000000E+00  0.00000000E+00
  0.00000000E+00  0.00000000E+00  0.00000000E+00  0.00000000E+00  0.00000000E+00
  0.00000000E+00  0.00000000E+00  0.00000000E+00  0.00000000E+00  0.00000000E+00
  0.00000000E+00  0.00000000E+00  0.00000000E+00  0.00000000E+00  0.00000000E+00
  0.00000000E+00  0.00000000E+00  0.00000000E+00  0.00000000E+00  0.00000000E+00
  0.00000000E+00  0.00000000E+00  0.00000000E+00  0.00000000E+00  0.00000000E+00
  0.00000000E+00  0.00000000E+00
Coordinates of each shell                  R   N=         108
 -3.77607029E+00 -1.37618609E+00  4.81191461E-06 -3.77607029E+00 -1.37618609E+00
  4.81191461E-06 -3.77607029E+00 -1.37618609E+00  4.81191461E-06 -3.77607029E+00
 -1.37618609E+00  4.81191461E-06  1.55274577E+00 -8.69368924E-01 -1.17581016E-05
  1.55274577E+00 -8.69368924E-01 -1.17581016E-05  1.55274577E+00 -8.69368924E-01
 -1.17581016E-05  1.55274577E+00 -8.69368924E-01 -1.17581016E-05 -1.72959142E-01
  1.43237389E+00 -5.26456612E-06 -1.72959142E-01  1.43237389E+00 -5.26456612E-06
 -1.72959142E-01  1.43237389E+00 -5.26456612E-06 -1.72959142E-01  1.43237389E+00
 -5.26456612E-06  4.34226485E+00 -1.40860134E-01  8.52982795E-06  4.34226485E+00
 -1.40860134E-01  8.52982795E-06  4.34226485E+00 -1.40860134E-01  8.52982795E-06
  4.34226485E+00 -1.40860134E-01  8.52982795E-06 -2.94441611E+00  7.83147639E-01
  2.76250661E-06 -2.94441611E+00  7.83147639E-01  2.76250661E-06 -2.94441611E+00
  7.83147639E-01  2.76250661E-06 -2.94441611E+00  7.83147639E-01  2.76250661E-06
  1.11720498E+00 -2.03654859E+00  1.65121408E+00  1.11720498E+00 -2.03654859E+00
  1.65121408E+00  1.11722343E+00 -2.03652814E+00 -1.65125704E+00  1.11722343E+00
 -2.03652814E+00 -1.65125704E+00  1.89668735E-01  2.64315499E+00  1.65058570E+00
  1.89668735E-01  2.64315499E+00  1.65058570E+00  1.89658976E-01  2.64315700E+00
 -1.65059663E+00  1.89658976E-01  2.64315700E+00 -1.65059663E+00  4.81843511E+00
  9.81376926E-01  1.67092414E+00  4.81843511E+00  9.81376926E-01  1.67092414E+00
  5.54947911E+00 -1.81807890E+00 -2.27068729E-05  5.54947911E+00 -1.81807890E+00
 -2.27068729E-05  4.81844364E+00  9.81444955E-01 -1.67085921E+00  4.81844364E+00
  9.81444955E-01 -1.67085921E+00 -4.25736385E+00  2.41975558E+00  7.55781184E-06
 -4.25736385E+00  2.41975558E+00  7.55781184E-06
Constraint Structure                       R   N=          39
 -3.77607029E+00 -1.37618609E+00  4.81191461E-06  1.55274577E+00 -8.69368924E-01
 -1.17581016E-05 -1.72959142E-01  1.43237389E+00 -5.26456612E-06  4.34226485E+00
 -1.40860134E-01  8.52982795E-06 -2.94441611E+00  7.83147639E-01  2.76250661E-06
  1.11720498E+00 -2.03654859E+00  1.65121408E+00  1.11722343E+00 -2.03652814E+00
 -1.65125704E+00  1.89668735E-01  2.64315499E+00  1.65058570E+00  1.89658976E-01
  2.64315700E+00 -1.65059663E+00  4.81843511E+00  9.81376926E-01  1.67092414E+00
  5.54947911E+00 -1.81807890E+00 -2.27068729E-05  4.81844364E+00  9.81444955E-01
 -1.67085921E+00 -4.25736385E+00  2.41975558E+00  7.55781184E-06
Num ILSW                                   I              100
ILSW                                       I   N=         100
           0           1           0           0           2           0
           0           0           0           0           0          -1
           0           0           0           0           0           0
           0           0           0           0           1           0
           1           0           0           0           0           0
           0           0      100000           0          -1           0
           0           0           0           0           0           0
           0           0           0           1           1           0
           0           0           1           0           0           0
           0           0           4          40           0           0
           0           0           0           0           0           0
           0           0           0           0           0           0
           0           0           0           0           0           0
           0           0           0           0           0           0
           0           0           0           0           0           0
           0           0           0           0           0           0
           0           0           0           0
Num RLSW                                   I               40
RLSW                                       R   N=          40
  1.00000000E+00  1.00000000E+00  1.00000000E+00  1.00000000E+00  1.00000000E+00
  0.00000000E+00  0.00000000E+00  1.00000000E+00  0.00000000E+00  0.00000000E+00
  0.00000000E+00  0.00000000E+00  1.00000000E+00  0.00000000E+00  0.00000000E+00
  0.00000000E+00  0.00000000E+00  1.00000000E+00  0.00000000E+00  0.00000000E+00
  0.00000000E+00  0.00000000E+00  1.00000000E+00  0.00000000E+00  0.00000000E+00
  0.00000000E+00  0.00000000E+00  1.00000000E+00  0.00000000E+00  0.00000000E+00
  0.00000000E+00  0.00000000E+00  0.00000000E+00  0.00000000E+00  0.00000000E+00
  0.00000000E+00  0.00000000E+00  0.00000000E+00  1.00000000E+00  1.00000000E+00
MxBond                                     I                4
NBond                                      I   N=          13
           1           4           4           4           3           1
           1           1           1           1           1           1
           1
IBond                                      I   N=          52
           5           0           0           0           3           4
           6           7           2           5           8           9
           2          10          11          12           1           3
          13           0           2           0           0           0
           2           0           0           0           3           0
           0           0           3           0           0           0
           4           0           0           0           4           0
           0           0           4           0           0           0
           5           0           0           0
RBond                                      R   N=          52
  2.00000000E+00  0.00000000E+00  0.00000000E+00  0.00000000E+00  1.00000000E+00
  1.00000000E+00  1.00000000E+00  1.00000000E+00  1.00000000E+00  1.00000000E+00
  1.00000000E+00  1.00000000E+00  1.00000000E+00  1.00000000E+00  1.00000000E+00
  1.00000000E+00  2.00000000E+00  1.00000000E+00  1.00000000E+00  0.00000000E+00
  1.00000000E+00  0.00000000E+00  0.00000000E+00  0.00000000E+00  1.00000000E+00
  0.00000000E+00  0.00000000E+00  0.00000000E+00  1.00000000E+00  0.00000000E+00
  0.00000000E+00  0.00000000E+00  1.00000000E+00  0.00000000E+00  0.00000000E+00
  0.00000000E+00  1.00000000E+00  0.00000000E+00  0.00000000E+00  0.00000000E+00
  1.00000000E+00  0.00000000E+00  0.00000000E+00  0.00000000E+00  1.00000000E+00
  0.00000000E+00  0.00000000E+00  0.00000000E+00  1.00000000E+00  0.00000000E+00
  0.00000000E+00  0.00000000E+00
Virial Ratio                               R      2.002258757897915E+00
SCF Energy                                 R     -2.309840183567773E+02
MP2 Energy                                 R     -2.316794904490483E+02
Total Energy                               R     -2.316794904490483E+02
Post-SCF wavefunction norm                 R      1.566226790011683E+00
RMS Force                                  R      2.162722895280902E-07
RMS Density                                R      1.389770619122739E-09
External E-field                           R   N=          35
  0.00000000E+00  0.00000000E+00  0.00000000E+00  0.00000000E+00  0.00000000E+00
  0.00000000E+00  0.00000000E+00  0.00000000E+00  0.00000000E+00  0.00000000E+00
  0.00000000E+00  0.00000000E+00  0.00000000E+00  0.00000000E+00  0.00000000E+00
  0.00000000E+00  0.00000000E+00  0.00000000E+00  0.00000000E+00  0.00000000E+00
  0.00000000E+00  0.00000000E+00  0.00000000E+00  0.00000000E+00  0.00000000E+00
  0.00000000E+00  0.00000000E+00  0.00000000E+00  0.00000000E+00  0.00000000E+00
  0.00000000E+00  0.00000000E+00  0.00000000E+00  0.00000000E+00  0.00000000E+00
IOpCl                                      I                0
IROHF                                      I                0
Alpha Orbital Energies                     R   N=          91
 -2.05656254E+01 -1.13366022E+01 -1.12436138E+01 -1.12270572E+01 -1.12202815E+01
 -1.38063240E+00 -1.08060903E+00 -9.75411168E-01 -8.46318557E-01 -7.68576780E-01
 -6.68792078E-01 -6.48040554E-01 -6.27664788E-01 -5.68024615E-01 -5.65879234E-01
 -5.10165922E-01 -4.96430264E-01 -4.89798839E-01 -4.77050797E-01 -4.17387104E-01
  1.53846887E-01  2.25155892E-01  2.56977294E-01  2.80083223E-01  2.99865886E-01
  3.04305690E-01  3.21281931E-01  3.33535866E-01  3.45317527E-01  3.71221490E-01
  4.25596438E-01  4.64990729E-01  4.88978829E-01  7.28470747E-01  7.40915451E-01
  7.41757757E-01  7.58824778E-01  7.62064399E-01  8.44929876E-01  8.97862041E-01
  9.35387073E-01  9.44107456E-01  9.51877657E-01  1.04157014E+00  1.05017010E+00
  1.11139554E+00  1.11982582E+00  1.11987400E+00  1.15299789E+00  1.16349168E+00
  1.17170371E+00  1.21640044E+00  1.21671288E+00  1.23690177E+00  1.24521533E+00
  1.31557417E+00  1.32265553E+00  1.40343109E+00  1.63461411E+00  1.65235297E+00
  1.72155841E+00  1.80717497E+00  1.81351958E+00  1.90704491E+00  2.00587081E+00
  2.03513098E+00  2.09376707E+00  2.16260321E+00  2.16633785E+00  2.26654408E+00
  2.28487383E+00  2.28806003E+00  2.34076425E+00  2.43767736E+00  2.45043467E+00
  2.58035767E+00  2.63022829E+00  2.67359674E+00  2.73213121E+00  2.75172086E+00
  2.80370681E+00  2.92133536E+00  2.95188226E+00  3.10264610E+00  3.24005730E+00
  3.32562304E+00  4.25598590E+00  4.50486481E+00  4.62480022E+00  4.76008399E+00
  4.94303184E+00
Alpha MO coefficients                      R   N=        8281
  9.94706910E-01  2.09259492E-02  5.51205361E-04  1.40976862E-03 -1.37051855E-09
  4.44100583E-03 -2.84527547E-05 -4.10196916E-05  7.34750596E-11 -3.82849930E-03
 -3.62793438E-03 -4.17618559E-03  1.00789013E-04 -1.21574428E-09 -1.57862427E-10
  3.86382619E-07  8.02711499E-06 -1.54887150E-05 -1.09301388E-05 -4.20880672E-10
  2.14391414E-05  1.52533480E-04 -2.58676988E-05  3.23340572E-09  7.42229482E-06
 -1.95598980E-05 -2.80256886E-06  8.24663853E-06  1.81229105E-10 -1.14565068E-12
 -2.59083748E-06 -5.02881909E-06  2.55159109E-06  2.23983899E-05  7.35072215E-11
 -6.83557641E-05  1.80377157E-04 -6.37768605E-05 -1.92365123E-09  1.03570537E-05
 -2.32641756E-05 -2.26328183E-05 -5.45866883E-05 -2.12481811E-10  2.19885173E-10
  4.82623946E-06  2.30505407E-05  1.99558310E-06  5.86550577E-06  2.74940090E-11
 -1.73014877E-04  7.19792329E-05 -6.38754723E-06 -3.14636516E-10 -8.42833140E-07
  6.65352815E-06  8.44835248E-06 -3.10760445E-06  8.00439887E-12  3.46019617E-11
 -4.36955432E-06  4.60353146E-04  7.79367996E-06  4.97875927E-05 -4.87212866E-11
 -1.49526211E-04  2.84726135E-04  4.80194780E-04 -3.78581847E-10 -1.50904507E-04
 -6.57860632E-04 -3.78218727E-05 -2.65159044E-04  4.19433808E-10  6.57403756E-10
  2.29723798E-05 -3.65993759E-05  2.29720660E-05 -3.65946338E-05  9.58248965E-06
 -3.32364816E-05  9.58228856E-06 -3.32374501E-05  6.52748587E-06  1.70033261E-05
  3.86038964E-06 -9.16111583E-06  6.52759070E-06  1.70027731E-05 -2.72899002E-05
 -1.00248987E-04 -3.23693269E-04  4.06402041E-04  8.93384205E-05  2.38948222E-04
 -2.03248780E-10 -1.61911307E-03 -3.69923965E-04 -1.31597819E-03  9.40954335E-10
  3.36422249E-05 -1.73103259E-04  2.96339058E-04 -4.72643689E-05  9.23507586E-10
  9.71057565E-11 -4.78980198E-05 -1.41850923E-04  5.24164370E-05  5.99795938E-07
  4.90485943E-10  3.54305754E-04 -5.01590356E-04  3.08412997E-04 -6.31256823E-09
  1.20962779E-05  5.25278703E-05 -3.80327251E-05 -4.18020337E-05 -7.50319695E-10
  2.03104512E-11  3.41224309E-03  3.43919777E-04  1.71091722E-04  5.09298363E-05
 -5.97483101E-10  2.01795879E-03 -1.95425814E-03  1.47830282E-04  8.28898381E-09
 -4.92887884E-04 -1.96075373E-04 -3.44671456E-05 -7.41107949E-05  1.64979410E-09
 -2.99487717E-11 -2.06752080E-05 -9.43549342E-05  1.00476813E-05 -2.87644364E-05
 -4.91690887E-10  5.85894214E-04 -2.58794860E-04  1.20149594E-04  3.75082918E-09
 -1.58090076E-05 -2.89337343E-05 -4.02791376E-05  1.46987733E-06  2.19382483E-10
 -3.78791381E-10  9.95774557E-01  2.65248050E-02 -1.95453989E-04 -6.23352660E-04
  3.73129479E-10 -8.26754307E-03 -1.41480881E-03 -2.12777639E-03  2.97729848E-09
 -1.68302728E-03 -1.04296703E-03 -2.43446605E-03  4.12913168E-04 -2.63390699E-09
 -8.22675401E-10 -6.57633237E-05  8.54604226E-05 -6.57626689E-05  8.54517802E-05
 -1.05508339E-04  3.09282925E-04 -1.05508161E-04  3.09284989E-04 -2.47164434E-05
 -9.79543494E-05 -1.41538092E-05  1.05179175E-04 -2.47176544E-05 -9.79477668E-05
 -9.13897837E-05  2.11188311E-03  1.09070415E-05 -1.67264126E-05 -1.47902865E-05
 -1.66304293E-05  3.55937378E-11 -4.49184118E-04 -3.62965961E-04  7.91865356E-05
  1.00510597E-09  2.60873686E-05  1.29753621E-04 -8.13582467E-05 -2.92551663E-05
 -3.49051283E-10  9.74307733E-11  1.83037123E-02  5.41520590E-04 -9.63576604E-05
  3.22850920E-05 -7.41043787E-10  3.89117326E-03 -1.25760884E-03  1.59870203E-03
  6.31403736E-09 -2.69655376E-04 -3.97578160E-04 -1.25765579E-04  1.46661700E-04
 -2.23803424E-11 -8.84960418E-10  9.95652272E-01  2.88243109E-02 -2.17444161E-04
  8.25969131E-05  1.18663595E-09 -1.79495250E-02  6.24142315E-04  9.35583589E-04
 -3.35920043E-09 -1.63632071E-03 -1.71371123E-03 -1.63806020E-03 -2.37401694E-05
 -2.82975378E-10 -1.39875189E-10 -7.47349570E-05 -1.74478051E-04  8.94607114E-05
 -4.89490973E-05 -1.95703542E-09  3.81518766E-04 -7.79770271E-05  2.35391963E-04
  1.24975376E-08 -4.01909142E-05 -5.43564731E-06 -9.00202079E-05 -2.46645210E-05
  7.32444038E-10  3.27111760E-10 -3.70140361E-03 -2.95310818E-05  3.47891507E-05
  5.63435386E-05 -2.47326280E-10  4.66009192E-03  2.43542812E-03 -8.41038812E-05
 -6.60240697E-09 -5.17377744E-04 -1.63015978E-04 -1.58078319E-04 -1.67254610E-04
  1.21928451E-09  4.49398202E-10 -1.52184618E-04  1.00858293E-04 -1.52184760E-04
  1.00862309E-04  2.42668451E-04  2.69449545E-03  2.42667947E-04  2.69449495E-03
 -1.96993486E-05 -2.48071814E-04 -2.14525067E-05  2.51127643E-04 -1.97006490E-05
 -2.48056983E-04 -9.16426016E-05  2.52591652E-04 -6.47083401E-05 -2.88316610E-04
 -6.68431634E-05 -2.56643511E-05  9.11627119E-10  1.53830474E-03  3.48262959E-04
  4.43597476E-04 -3.52911156E-09 -1.65390282E-04 -1.42218344E-04 -2.46142660E-04
  5.73278905E-05 -1.00868581E-09 -1.40945027E-10  9.94709520E-01  2.85287596E-02
 -1.88933246E-05  2.33111539E-04  7.68572321E-10 -1.76375707E-02  5.75185339E-05
 -1.21365870E-03 -9.39435715E-09 -1.62621705E-03 -1.63220134E-03 -1.55475087E-03
  1.64888118E-05 -9.83298188E-11 -6.54461829E-10 -1.86100839E-02 -5.65687569E-04
  4.47102262E-05 -3.10953819E-06 -5.64626432E-10  5.24409287E-03  1.24868552E-03
 -2.00361340E-03 -8.81685166E-12 -2.36251854E-04 -3.72858988E-04 -9.96973302E-05
  2.29176229E-04  4.64476608E-10 -1.16381997E-09  4.39705590E-02  1.31166473E-03
 -8.36352616E-05  3.08419974E-05  8.98433420E-10  3.53164654E-03 -1.78974199E-03
 -4.70970447E-04 -1.96438100E-08 -5.47611561E-04 -2.47365573E-04 -1.66320418E-04
 -1.36074644E-04 -3.53458702E-09 -1.68022603E-09  8.61101283E-05 -1.24684830E-04
 -4.89716776E-05  9.86145427E-05  1.45719168E-10 -1.17407149E-03 -1.00757180E-04
  6.75031079E-04  4.13713600E-10  1.40475842E-05 -2.21270355E-05 -3.49698729E-05
 -3.57961622E-05 -6.83043080E-10 -1.15783245E-10  2.59929759E-04  2.65231633E-03
  2.59928582E-04  2.65231568E-03 -1.76872480E-04 -6.25237320E-06 -1.76873142E-04
 -6.24454357E-06 -1.55081254E-04  1.45376158E-04 -1.31027778E-04 -5.73237967E-05
 -1.55080718E-04  1.45366358E-04 -1.67706379E-05  4.08264985E-05 -7.66633535E-06
 -2.05323763E-05 -6.73981090E-06  1.05702515E-06 -9.30179237E-11 -3.68777101E-06
 -3.78064204E-05 -1.98414955E-05  1.16879519E-09 -1.16285712E-05 -1.71642250E-05
 -4.55028455E-05 -1.20896830E-05 -1.19145250E-10  3.55964948E-10 -4.42581355E-02
 -1.15326536E-03  5.21960849E-06 -2.52242540E-05  1.57079266E-10  4.23727689E-03
  1.81660635E-03  3.45821061E-04  1.51557734E-08 -3.72273359E-04 -1.08906752E-04
 -1.92401760E-05 -8.87195082E-05 -2.92352488E-09 -8.40459126E-10  8.35725771E-04
 -1.53064010E-04 -1.34435309E-04 -1.37782697E-05  8.21053128E-10 -8.93544094E-05
  8.98535867E-04  4.07688699E-04 -7.00713031E-09 -2.06248036E-05 -2.00023984E-05
 -6.21148826E-05 -4.26859345E-05  1.68758235E-09  9.07558868E-10  9.94786245E-01
  2.84093592E-02 -7.64979080E-05  6.15465527E-05  6.07691973E-10 -1.53678720E-02
  8.96521623E-04 -8.31954956E-05 -7.60893971E-10 -1.82590790E-03 -1.78247458E-03
 -1.79870564E-03 -1.93087277E-05 -6.97825052E-10  8.18629126E-10 -3.24555531E-05
 -1.11790801E-04 -3.40991288E-06  9.75215380E-06  1.19128533E-09  9.78395071E-04
  6.14026584E-04 -9.42622336E-05 -5.06940701E-09  1.51492055E-05 -3.17620211E-05
 -6.03838960E-05  2.28729891E-06 -1.79978716E-10  3.00561848E-10 -1.39529448E-04
 -8.14613180E-05 -1.39530034E-04 -8.14577869E-05 -4.93767625E-05 -2.90518833E-04
 -4.93727404E-05 -2.90538177E-04  1.67106739E-04  2.63340607E-03  1.23425332E-04
  2.37559662E-03  1.67107420E-04  2.63340202E-03 -1.55812994E-05  1.39089372E-04
 -1.95522846E-01  4.34489810E-01  4.93377747E-02  1.23909462E-01 -1.18868427E-07
  3.92986456E-01  2.07396987E-02  4.76662203E-02 -4.70356347E-08  7.46414549E-04
  1.57647913E-02 -1.55492403E-03  8.39921068E-03 -4.77890501E-09 -2.11585068E-08
 -5.71329583E-03  1.19194923E-02 -6.52451041E-03  3.04611777E-03  3.33609785E-08
 -6.70764605E-03 -1.06756101E-03 -3.89543882E-03 -2.84530573E-08  1.43531232E-03
  6.46241957E-04  2.89101724E-04 -5.28665906E-04 -9.59247136E-09  1.76167281E-10
 -1.80927036E-02  3.24619659E-02 -2.35704377E-02 -1.19544998E-02  6.67706394E-08
  2.12433380E-02  3.76049125E-03 -1.10018088E-02  1.77946227E-09  6.41602986E-03
  6.32721248E-04 -7.49172179E-04  3.38596896E-03 -2.30238577E-08 -9.51791746E-09
 -8.48630302E-04  1.38117344E-03 -1.35387086E-03 -1.11293679E-04 -4.42706012E-09
  4.20281272E-03 -1.31429170E-03 -2.72749963E-05 -2.01819126E-08  2.78418518E-04
 -1.12481689E-04 -5.33921566E-08  4.69468231E-05  1.29163543E-09 -2.13610042E-09
 -1.11695547E-01  2.12831747E-01 -5.68962256E-02 -1.59211853E-01  1.40207801E-07
  7.43243681E-02  1.57860576E-03  2.36505642E-02  8.57490550E-10 -9.22786770E-03
  2.61791596E-02 -1.62834098E-02  1.74021047E-02 -2.10735241E-08 -4.16055796E-08
  3.48722962E-03  1.90790390E-03  3.48716255E-03  1.90785767E-03  5.61821816E-03
 -8.43565162E-05  5.61821824E-03 -8.43412606E-05  2.13367683E-04 -1.73807548E-04
  2.18042557E-04 -4.09907264E-04  2.13364479E-04 -1.73818308E-04  2.83018120E-02
 -9.72434781E-03  3.63974483E-02 -8.16759741E-02  1.82913563E-02 -3.68372424E-03
 -5.15955212E-08 -8.96129793E-02  7.23600429E-03 -1.47471829E-03 -1.47538807E-08
  7.45535712E-04 -1.61936729E-03  6.04370394E-04  1.25212291E-03  1.65255828E-09
 -3.98304317E-09 -1.28928153E-01  2.38941990E-01 -4.94040544E-03  4.80324103E-02
  3.47553405E-07  1.95359321E-01  3.45342432E-03  7.21722258E-03  1.13768140E-07
  7.72407752E-03  7.13621745E-03  2.03079563E-03 -3.04028581E-03  8.06066095E-09
  2.81299329E-08 -1.32673834E-01  2.45868726E-01  1.44250486E-02 -3.62817348E-02