
    -----------------------------------------------------------------------
          Psi4: An Open-Source Ab Initio Electronic Structure Package
                               Psi4 1.3.2 release

                         Git: Rev {HEAD} ecbda83 


    R. M. Parrish, L. A. Burns, D. G. A. Smith, A. C. Simmonett,
    A. E. DePrince III, E. G. Hohenstein, U. Bozkaya, A. Yu. Sokolov,
    R. Di Remigio, R. M. Richard, J. F. Gonthier, A. M. James,
    H. R. McAlexander, A. Kumar, M. Saitow, X. Wang, B. P. Pritchard,
    P. Verma, H. F. Schaefer III, K. Patkowski, R. A. King, E. F. Valeev,
    F. A. Evangelista, J. M. Turney, T. D. Crawford, and C. D. Sherrill,
    J. Chem. Theory Comput. 13(7) pp 3185--3197 (2017).
    (doi: 10.1021/acs.jctc.7b00174)


                         Additional Contributions by
    P. Kraus, H. Kruse, M. H. Lechner, M. C. Schieber, R. A. Shaw,
    A. Alenaizan, R. Galvelis, Z. L. Glick, S. Lehtola, and J. P. Misiewicz

    -----------------------------------------------------------------------


    Psi4 started on: Thursday, 05 November 2020 01:08PM

    Process ID: 26317
    Host:       node37.bme.utexas.edu
    PSIDATADIR: /home/xy3866/psi4conda/share/psi4
    Memory:     500.0 MiB
    Threads:    8
    
  ==> Input File <==

--------------------------------------------------------------------------
#psi4
#
memory 32 gb

molecule  {
0 1
  O       -3.2622350    -0.3059220     0.0067540
  C        1.5611120    -0.3149990    -0.0153800
  C        0.3099430    -0.9407630    -0.0100630
  C       -0.8041363    -0.3284733    -0.0028910
  C        1.5994260     1.0858870    -0.0069900
  C       -0.8168260     1.2117300     0.0064260
  C        0.4233030     1.8430470     0.0013400
  C        2.8326460    -1.1226230     0.0134670
  C       -2.1766910    -0.8792860    -0.0025100
  H        0.2498670    -2.0299540    -0.0200910
  H        2.5637200     1.5920050    -0.0150810
  H       -1.7471690     1.7737230     0.0102860
  H        2.6825510    -2.1081700    -0.4357140
  H        3.6321630    -0.6167660    -0.5349600
  H        3.1786260    -1.2736230     1.0416080
  H        0.4815460     2.9289630     0.0030700
  H       -2.1255320    -1.9885980    -0.0123860
units angstrom
no_reorient  #important for SAPT in psi4, default
symmetry c1  #important for SAPT in psi4, default
}

set PROPERTIES_ORIGIN ["COM"]
properties('MP2/aug-cc-pvtz', properties = ['dipole'])
--------------------------------------------------------------------------

  Memory set to  29.802 GiB by Python driver.
    SCF Algorithm Type (re)set to DF.

*** tstart() called on node37.bme.utexas.edu
*** at Thu Nov  5 13:08:20 2020

   => Loading Basis Set <=

    Name: AUG-CC-PVTZ
    Role: ORBITAL
    Keyword: BASIS
    atoms 1     entry O          line   327 file /home/xy3866/psi4conda/share/psi4/basis/aug-cc-pvtz.gbs 
    atoms 2-9   entry C          line   235 file /home/xy3866/psi4conda/share/psi4/basis/aug-cc-pvtz.gbs 
    atoms 10-17 entry H          line    36 file /home/xy3866/psi4conda/share/psi4/basis/aug-cc-pvtz.gbs 


         ---------------------------------------------------------
                                   SCF
               by Justin Turney, Rob Parrish, Andy Simmonett
                          and Daniel G. A. Smith
                              RHF Reference
                        8 Threads,  30517 MiB Core
         ---------------------------------------------------------

  ==> Geometry <==

    Molecular point group: c1
    Full point group: C1

    Geometry (in Angstrom), charge = 0, multiplicity = 1:

       Center              X                  Y                   Z               Mass       
    ------------   -----------------  -----------------  -----------------  -----------------
         O           -3.195197866182    -0.306131417443     0.007205141419    15.994914619570
         C            1.628149133818    -0.315208417443    -0.014928858581    12.000000000000
         C            0.376980133818    -0.940972417443    -0.009611858581    12.000000000000
         C           -0.737099166182    -0.328682717443    -0.002439858581    12.000000000000
         C            1.666463133818     1.085677582557    -0.006538858581    12.000000000000
         C           -0.749788866182     1.211520582557     0.006877141419    12.000000000000
         C            0.490340133818     1.842837582557     0.001791141419    12.000000000000
         C            2.899683133818    -1.122832417443     0.013918141419    12.000000000000
         C           -2.109653866182    -0.879495417443    -0.002058858581    12.000000000000
         H            0.316904133818    -2.030163417443    -0.019639858581     1.007825032230
         H            2.630757133818     1.591795582557    -0.014629858581     1.007825032230
         H           -1.680131866182     1.773513582557     0.010737141419     1.007825032230
         H            2.749588133818    -2.108379417443    -0.435262858581     1.007825032230
         H            3.699200133818    -0.616975417443    -0.534508858581     1.007825032230
         H            3.245663133818    -1.273832417443     1.042059141419     1.007825032230
         H            0.548583133818     2.928753582557     0.003521141419     1.007825032230
         H           -2.058494866182    -1.988807417443    -0.011934858581     1.007825032230

  Running in c1 symmetry.

  Rotational constants: A =      0.11875  B =      0.03756  C =      0.02869 [cm^-1]
  Rotational constants: A =   3559.89143  B =   1125.92054  C =    859.98726 [MHz]
  Nuclear repulsion =  396.232772476131345

  Charge       = 0
  Multiplicity = 1
  Electrons    = 64
  Nalpha       = 32
  Nbeta        = 32

  ==> Algorithm <==

  SCF Algorithm Type is DF.
  DIIS enabled.
  MOM disabled.
  Fractional occupation disabled.
  Guess Type is SAD.
  Energy threshold   = 1.00e-10
  Density threshold  = 1.00e-10
  Integral threshold = 0.00e+00

  ==> Primary Basis <==

  Basis Set: AUG-CC-PVTZ
    Blend: AUG-CC-PVTZ
    Number of shells: 198
    Number of basis function: 598
    Number of Cartesian functions: 695
    Spherical Harmonics?: true
    Max angular momentum: 3

   => Loading Basis Set <=

    Name: (AUG-CC-PVTZ AUX)
    Role: JKFIT
    Keyword: DF_BASIS_SCF
    atoms 1     entry O          line   286 file /home/xy3866/psi4conda/share/psi4/basis/aug-cc-pvtz-jkfit.gbs 
    atoms 2-9   entry C          line   162 file /home/xy3866/psi4conda/share/psi4/basis/aug-cc-pvtz-jkfit.gbs 
    atoms 10-17 entry H          line    70 file /home/xy3866/psi4conda/share/psi4/basis/aug-cc-pvtz-jkfit.gbs 

  ==> Pre-Iterations <==

   -------------------------------------------------------
    Irrep   Nso     Nmo     Nalpha   Nbeta   Ndocc  Nsocc
   -------------------------------------------------------
     A        598     598       0       0       0       0
   -------------------------------------------------------
    Total     598     598      32      32      32       0
   -------------------------------------------------------

  ==> Integral Setup <==

  DFHelper Memory: AOs need 3.403 GiB; user supplied 22.352 GiB. Using in-core AOs.

  ==> MemDFJK: Density-Fitted J/K Matrices <==

    J tasked:                   Yes
    K tasked:                   Yes
    wK tasked:                   No
    OpenMP threads:               8
    Memory [MiB]:             22888
    Algorithm:                 Disk
    Schwarz Cutoff:           1E-12
    Mask sparsity (%):       5.1157
    Fitting Condition:        1E-10

   => Auxiliary Basis Set <=

  Basis Set: (AUG-CC-PVTZ AUX)
    Blend: AUG-CC-PVTZ-JKFIT
    Number of shells: 382
    Number of basis function: 1304
    Number of Cartesian functions: 1619
    Spherical Harmonics?: true
    Max angular momentum: 4

  Minimum eigenvalue in the overlap matrix is 5.5422046259E-07.
  Using Symmetric Orthogonalization.

  SCF Guess: Superposition of Atomic Densities via on-the-fly atomic UHF.

  ==> Iterations <==

                           Total Energy        Delta E     RMS |[F,P]|

   @DF-RHF iter SAD:  -381.74334840929976   -3.81743e+02   0.00000e+00 
   @DF-RHF iter   1:  -382.30568031825533   -5.62332e-01   1.13091e-03 DIIS
   @DF-RHF iter   2:  -382.50633255212506   -2.00652e-01   6.18796e-04 DIIS
   @DF-RHF iter   3:  -382.56143904270226   -5.51065e-02   1.39665e-04 DIIS
   @DF-RHF iter   4:  -382.56523658689048   -3.79754e-03   5.79991e-05 DIIS
   @DF-RHF iter   5:  -382.56592068833390   -6.84101e-04   1.20636e-05 DIIS
   @DF-RHF iter   6:  -382.56597756353887   -5.68752e-05   5.39834e-06 DIIS
   @DF-RHF iter   7:  -382.56599473143086   -1.71679e-05   2.36508e-06 DIIS
   @DF-RHF iter   8:  -382.56599945360904   -4.72218e-06   1.12520e-06 DIIS
   @DF-RHF iter   9:  -382.56600052507468   -1.07147e-06   4.14947e-07 DIIS
   @DF-RHF iter  10:  -382.56600066122269   -1.36148e-07   1.22270e-07 DIIS
   @DF-RHF iter  11:  -382.56600067553194   -1.43093e-08   5.74261e-08 DIIS
   @DF-RHF iter  12:  -382.56600067758649   -2.05455e-09   2.53046e-08 DIIS
   @DF-RHF iter  13:  -382.56600067813002   -5.43537e-10   1.21407e-08 DIIS
   @DF-RHF iter  14:  -382.56600067823638   -1.06354e-10   4.74357e-09 DIIS
   @DF-RHF iter  15:  -382.56600067825428   -1.79057e-11   1.75311e-09 DIIS
   @DF-RHF iter  16:  -382.56600067825667   -2.38742e-12   9.82805e-10 DIIS
   @DF-RHF iter  17:  -382.56600067825792   -1.25056e-12   5.10035e-10 DIIS
   @DF-RHF iter  18:  -382.56600067825576    2.16005e-12   1.81003e-10 DIIS
   @DF-RHF iter  19:  -382.56600067825701   -1.25056e-12   7.98739e-11 DIIS
  Energy and wave function converged.


  ==> Post-Iterations <==

    Orbital Energies [Eh]
    ---------------------

    Doubly Occupied:                                                      

       1A    -20.559735     2A    -11.340685     3A    -11.259710  
       4A    -11.259246     5A    -11.254007     6A    -11.252707  
       7A    -11.247421     8A    -11.246874     9A    -11.238198  
      10A     -1.381113    11A     -1.178682    12A     -1.066809  
      13A     -1.050297    14A     -0.945247    15A     -0.896653  
      16A     -0.825713    17A     -0.784561    18A     -0.706457  
      19A     -0.685300    20A     -0.644498    21A     -0.629791  
      22A     -0.607339    23A     -0.591843    24A     -0.576860  
      25A     -0.549364    26A     -0.547089    27A     -0.525175  
      28A     -0.493887    29A     -0.491369    30A     -0.422432  
      31A     -0.375600    32A     -0.325466  

    Virtual:                                                              

      33A      0.023758    34A      0.029763    35A      0.035465  
      36A      0.040136    37A      0.045640    38A      0.051776  
      39A      0.056582    40A      0.062176    41A      0.071431  
      42A      0.079195    43A      0.084075    44A      0.097792  
      45A      0.100974    46A      0.101524    47A      0.107270  
      48A      0.113936    49A      0.118382    50A      0.124597  
      51A      0.127484    52A      0.129981    53A      0.131543  
      54A      0.134727    55A      0.135573    56A      0.142808  
      57A      0.151314    58A      0.151534    59A      0.157469  
      60A      0.159068    61A      0.165664    62A      0.169897  
      63A      0.172840    64A      0.185663    65A      0.186855  
      66A      0.193393    67A      0.203708    68A      0.213153  
      69A      0.219170    70A      0.226256    71A      0.234199  
      72A      0.238571    73A      0.248014    74A      0.253705  
      75A      0.257438    76A      0.260045    77A      0.272242  
      78A      0.278252    79A      0.287098    80A      0.292870  
      81A      0.294626    82A      0.296845    83A      0.299275  
      84A      0.307456    85A      0.317963    86A      0.323095  
      87A      0.326794    88A      0.331143    89A      0.334103  
      90A      0.343900    91A      0.348611    92A      0.351755  
      93A      0.355338    94A      0.358026    95A      0.360719  
      96A      0.371805    97A      0.374475    98A      0.382147  
      99A      0.389284   100A      0.391480   101A      0.400921  
     102A      0.406649   103A      0.413568   104A      0.415119  
     105A      0.419080   106A      0.422149   107A      0.428111  
     108A      0.434268   109A      0.442518   110A      0.444501  
     111A      0.450235   112A      0.453566   113A      0.465520  
     114A      0.468919   115A      0.474260   116A      0.474855  
     117A      0.478431   118A      0.483328   119A      0.489005  
     120A      0.494682   121A      0.497499   122A      0.500723  
     123A      0.507006   124A      0.510553   125A      0.512869  
     126A      0.523705   127A      0.528337   128A      0.531085  
     129A      0.534681   130A      0.539779   131A      0.543049  
     132A      0.545405   133A      0.550415   134A      0.558278  
     135A      0.566957   136A      0.573688   137A      0.578273  
     138A      0.596670   139A      0.598677   140A      0.615289  
     141A      0.621611   142A      0.631170   143A      0.632830  
     144A      0.643427   145A      0.655521   146A      0.672025  
     147A      0.682094   148A      0.685711   149A      0.694337  
     150A      0.698438   151A      0.703441   152A      0.710437  
     153A      0.716425   154A      0.729065   155A      0.734445  
     156A      0.736521   157A      0.741283   158A      0.757599  
     159A      0.766921   160A      0.777475   161A      0.795877  
     162A      0.798361   163A      0.814068   164A      0.814422  
     165A      0.818828   166A      0.821983   167A      0.837538  
     168A      0.842879   169A      0.846151   170A      0.852242  
     171A      0.855389   172A      0.868714   173A      0.873789  
     174A      0.879812   175A      0.881117   176A      0.883306  
     177A      0.889498   178A      0.899824   179A      0.904963  
     180A      0.908534   181A      0.916452   182A      0.917467  
     183A      0.926880   184A      0.933007   185A      0.936801  
     186A      0.948389   187A      0.950135   188A      0.955094  
     189A      0.958465   190A      0.968390   191A      0.974530  
     192A      0.982712   193A      0.984293   194A      0.995965  
     195A      1.003519   196A      1.006724   197A      1.013862  
     198A      1.019901   199A      1.024752   200A      1.029009  
     201A      1.031561   202A      1.036871   203A      1.041187  
     204A      1.045045   205A      1.054904   206A      1.067668  
     207A      1.079281   208A      1.081981   209A      1.089462  
     210A      1.091962   211A      1.093523   212A      1.102021  
     213A      1.105840   214A      1.107000   215A      1.113012  
     216A      1.119357   217A      1.132884   218A      1.137847  
     219A      1.142548   220A      1.151344   221A      1.162525  
     222A      1.166640   223A      1.180095   224A      1.182718  
     225A      1.189842   226A      1.192300   227A      1.196754  
     228A      1.201012   229A      1.212121   230A      1.219153  
     231A      1.229169   232A      1.233348   233A      1.239148  
     234A      1.249393   235A      1.257203   236A      1.258714  
     237A      1.265660   238A      1.275701   239A      1.286682  
     240A      1.292405   241A      1.303696   242A      1.312872  
     243A      1.317403   244A      1.323355   245A      1.332235  
     246A      1.352788   247A      1.354411   248A      1.372528  
     249A      1.381784   250A      1.386521   251A      1.396438  
     252A      1.401070   253A      1.412754   254A      1.424802  
     255A      1.439521   256A      1.442964   257A      1.448509  
     258A      1.462462   259A      1.475171   260A      1.494608  
     261A      1.503909   262A      1.515078   263A      1.522703  
     264A      1.537754   265A      1.539571   266A      1.547504  
     267A      1.556820   268A      1.563528   269A      1.579154  
     270A      1.586686   271A      1.612300   272A      1.617795  
     273A      1.633497   274A      1.637005   275A      1.646766  
     276A      1.657713   277A      1.664075   278A      1.676637  
     279A      1.696668   280A      1.708078   281A      1.709925  
     282A      1.713226   283A      1.728709   284A      1.740141  
     285A      1.748035   286A      1.757175   287A      1.768327  
     288A      1.779632   289A      1.784772   290A      1.796411  
     291A      1.809701   292A      1.810209   293A      1.831581  
     294A      1.847631   295A      1.852613   296A      1.861891  
     297A      1.868547   298A      1.871028   299A      1.882844  
     300A      1.886178   301A      1.901079   302A      1.912816  
     303A      1.920561   304A      1.922626   305A      1.930901  
     306A      1.948819   307A      1.959993   308A      1.975449  
     309A      1.978676   310A      1.991631   311A      2.009190  
     312A      2.019572   313A      2.030930   314A      2.038191  
     315A      2.042146   316A      2.050512   317A      2.070511  
     318A      2.079851   319A      2.087959   320A      2.092208  
     321A      2.110833   322A      2.116981   323A      2.129343  
     324A      2.136405   325A      2.145469   326A      2.154104  
     327A      2.177434   328A      2.183167   329A      2.202425  
     330A      2.208322   331A      2.212196   332A      2.232439  
     333A      2.252198   334A      2.255285   335A      2.261530  
     336A      2.273519   337A      2.285204   338A      2.294559  
     339A      2.323733   340A      2.336226   341A      2.350896  
     342A      2.367957   343A      2.378945   344A      2.383622  
     345A      2.404826   346A      2.415241   347A      2.427931  
     348A      2.434620   349A      2.454858   350A      2.477803  
     351A      2.490864   352A      2.511063   353A      2.522158  
     354A      2.536186   355A      2.555658   356A      2.560696  
     357A      2.568093   358A      2.592664   359A      2.619093  
     360A      2.637757   361A      2.657088   362A      2.704448  
     363A      2.707528   364A      2.730483   365A      2.744817  
     366A      2.749393   367A      2.809280   368A      2.828248  
     369A      2.854916   370A      2.862710   371A      2.897572  
     372A      2.920517   373A      2.939294   374A      2.973376  
     375A      2.988894   376A      3.028354   377A      3.069329  
     378A      3.137405   379A      3.144975   380A      3.180536  
     381A      3.183448   382A      3.206734   383A      3.237546  
     384A      3.249416   385A      3.252350   386A      3.269589  
     387A      3.298201   388A      3.299462   389A      3.322039  
     390A      3.331759   391A      3.345582   392A      3.358957  
     393A      3.379039   394A      3.393397   395A      3.413471  
     396A      3.422924   397A      3.445570   398A      3.450963  
     399A      3.469630   400A      3.477329   401A      3.488066  
     402A      3.497648   403A      3.516354   404A      3.525148  
     405A      3.529422   406A      3.539979   407A      3.548234  
     408A      3.563660   409A      3.580093   410A      3.582330  
     411A      3.590795   412A      3.602990   413A      3.615995  
     414A      3.636447   415A      3.647305   416A      3.669324  
     417A      3.670370   418A      3.687170   419A      3.694377  
     420A      3.700088   421A      3.708735   422A      3.723399  
     423A      3.730265   424A      3.734653   425A      3.756956  
     426A      3.762474   427A      3.784459   428A      3.814955  
     429A      3.816390   430A      3.827892   431A      3.839351  
     432A      3.857246   433A      3.878442   434A      3.892155  
     435A      3.901983   436A      3.911251   437A      3.922880  
     438A      3.930062   439A      3.943934   440A      3.956267  
     441A      3.963757   442A      3.971531   443A      3.991829  
     444A      4.001899   445A      4.008064   446A      4.016157  
     447A      4.034813   448A      4.044157   449A      4.047634  
     450A      4.055602   451A      4.076988   452A      4.082991  
     453A      4.100195   454A      4.108083   455A      4.127267  
     456A      4.137273   457A      4.158580   458A      4.165068  
     459A      4.176147   460A      4.184267   461A      4.189756  
     462A      4.199930   463A      4.210217   464A      4.229104  
     465A      4.250368   466A      4.255317   467A      4.264630  
     468A      4.285166   469A      4.295268   470A      4.306790  
     471A      4.323937   472A      4.336256   473A      4.351386  
     474A      4.361572   475A      4.377151   476A      4.397206  
     477A      4.403446   478A      4.414931   479A      4.427567  
     480A      4.439385   481A      4.445978   482A      4.460080  
     483A      4.468057   484A      4.474277   485A      4.482692  
     486A      4.520369   487A      4.530046   488A      4.544267  
     489A      4.589705   490A      4.594068   491A      4.606236  
     492A      4.625441   493A      4.635523   494A      4.646199  
     495A      4.678991   496A      4.689914   497A      4.702530  
     498A      4.706568   499A      4.739198   500A      4.765557  
     501A      4.771462   502A      4.785100   503A      4.816006  
     504A      4.828989   505A      4.849725   506A      4.855988  
     507A      4.876262   508A      4.884318   509A      4.896074  
     510A      4.908422   511A      4.938344   512A      4.950156  
     513A      4.956398   514A      4.999552   515A      5.026347  
     516A      5.050124   517A      5.060215   518A      5.083982  
     519A      5.094790   520A      5.105236   521A      5.112899  
     522A      5.134063   523A      5.141580   524A      5.169630  
     525A      5.174322   526A      5.189324   527A      5.208949  
     528A      5.230353   529A      5.247968   530A      5.253398  
     531A      5.269158   532A      5.297991   533A      5.318582  
     534A      5.322408   535A      5.357731   536A      5.364858  
     537A      5.389909   538A      5.415018   539A      5.444315  
     540A      5.465982   541A      5.491831   542A      5.505771  
     543A      5.525909   544A      5.534164   545A      5.638184  
     546A      5.649671   547A      5.670357   548A      5.696263  
     549A      5.704869   550A      5.712473   551A      5.749486  
     552A      5.782583   553A      5.828712   554A      5.858159  
     555A      5.896588   556A      5.959085   557A      6.018841  
     558A      6.061838   559A      6.115882   560A      6.158359  
     561A      6.188943   562A      6.228231   563A      6.268377  
     564A      6.300783   565A      6.364601   566A      6.416332  
     567A      6.469108   568A      6.495176   569A      6.516184  
     570A      6.598139   571A      6.663034   572A      6.715957  
     573A      6.757444   574A      6.763784   575A      6.818793  
     576A      6.834535   577A      6.891116   578A      6.971758  
     579A      7.033488   580A      7.121989   581A      7.154785  
     582A      7.162700   583A      7.322731   584A      7.397927  
     585A      7.619885   586A      7.675609   587A      7.745742  
     588A      7.847568   589A      7.935947   590A     15.752208  
     591A     16.073869   592A     17.284904   593A     18.243734  
     594A     18.508281   595A     19.361455   596A     19.839181  
     597A     20.668952   598A     21.217102  

    Final Occupation by Irrep:
              A 
    DOCC [    32 ]

  @DF-RHF Final Energy:  -382.56600067825701

   => Energetics <=

    Nuclear Repulsion Energy =            396.2327724761313448
    One-Electron Energy =               -1303.6772898250014805
    Two-Electron Energy =                 524.8785166706131804
    Total Energy =                       -382.5660006782569553

Computation Completed

*** tstop() called on node37.bme.utexas.edu at Thu Nov  5 13:10:07 2020
Module time:
	user time   =     368.21 seconds =       6.14 minutes
	system time =      79.83 seconds =       1.33 minutes
	total time  =        107 seconds =       1.78 minutes
Total time:
	user time   =     368.21 seconds =       6.14 minutes
	system time =      79.83 seconds =       1.33 minutes
	total time  =        107 seconds =       1.78 minutes
   => Loading Basis Set <=

    Name: (AUG-CC-PVTZ AUX)
    Role: RIFIT
    Keyword: DF_BASIS_MP2
    atoms 1     entry O          line   264 file /home/xy3866/psi4conda/share/psi4/basis/aug-cc-pvtz-ri.gbs 
    atoms 2-9   entry C          line   148 file /home/xy3866/psi4conda/share/psi4/basis/aug-cc-pvtz-ri.gbs 
    atoms 10-17 entry H          line    30 file /home/xy3866/psi4conda/share/psi4/basis/aug-cc-pvtz-ri.gbs 


*** tstart() called on node37.bme.utexas.edu
*** at Thu Nov  5 13:10:08 2020


  //>>>>>>>>>>>>>>>>>>>>>>>>>>>>>>>>>>>//
  //               DFMP2               //
  //<<<<<<<<<<<<<<<<<<<<<<<<<<<<<<<<<<<//

	 --------------------------------------------------------
	                          DF-MP2                         
	      2nd-Order Density-Fitted Moller-Plesset Theory     
	              RMP2 Wavefunction,   8 Threads             
	                                                         
	        Rob Parrish, Justin Turney, Andy Simmonett,      
	           Ed Hohenstein, and C. David Sherrill          
	 --------------------------------------------------------

   => Auxiliary Basis Set <=

  Basis Set: (AUG-CC-PVTZ AUX)
    Blend: AUG-CC-PVTZ-RI
    Number of shells: 364
    Number of basis function: 1322
    Number of Cartesian functions: 1664
    Spherical Harmonics?: true
    Max angular momentum: 4

	 --------------------------------------------------------
	                 NBF =   598, NAUX =  1322
	 --------------------------------------------------------
	   CLASS    FOCC     OCC    AOCC    AVIR     VIR    FVIR
	   PAIRS       0      32      32     566     566       0
	 --------------------------------------------------------

  DFHelper Memory: AOs need 3.403 GiB; user supplied 22.352 GiB. Using in-core AOs.


         ------------------------------------------------------------
                                     CPHF                           
                                  Rob Parrish                       
         ------------------------------------------------------------

  ==> Geometry <==

    Molecular point group: c1
    Full point group: C1

    Geometry (in Angstrom), charge = 0, multiplicity = 1:

       Center              X                  Y                   Z               Mass       
    ------------   -----------------  -----------------  -----------------  -----------------
         O           -3.195197866182    -0.306131417443     0.007205141419    15.994914619570
         C            1.628149133818    -0.315208417443    -0.014928858581    12.000000000000
         C            0.376980133818    -0.940972417443    -0.009611858581    12.000000000000
         C           -0.737099166182    -0.328682717443    -0.002439858581    12.000000000000
         C            1.666463133818     1.085677582557    -0.006538858581    12.000000000000
         C           -0.749788866182     1.211520582557     0.006877141419    12.000000000000
         C            0.490340133818     1.842837582557     0.001791141419    12.000000000000
         C            2.899683133818    -1.122832417443     0.013918141419    12.000000000000
         C           -2.109653866182    -0.879495417443    -0.002058858581    12.000000000000
         H            0.316904133818    -2.030163417443    -0.019639858581     1.007825032230
         H            2.630757133818     1.591795582557    -0.014629858581     1.007825032230
         H           -1.680131866182     1.773513582557     0.010737141419     1.007825032230
         H            2.749588133818    -2.108379417443    -0.435262858581     1.007825032230
         H            3.699200133818    -0.616975417443    -0.534508858581     1.007825032230
         H            3.245663133818    -1.273832417443     1.042059141419     1.007825032230
         H            0.548583133818     2.928753582557     0.003521141419     1.007825032230
         H           -2.058494866182    -1.988807417443    -0.011934858581     1.007825032230

  Nuclear repulsion =  396.232772476131345
  Reference energy  = -382.566000678257012

  ==> Basis Set <==

  Basis Set: AUG-CC-PVTZ
    Blend: AUG-CC-PVTZ
    Number of shells: 198
    Number of basis function: 598
    Number of Cartesian functions: 695
    Spherical Harmonics?: true
    Max angular momentum: 3

  ==> CGRSolver (by Rob Parrish) <==

   Number of roots    =         1
   Preconditioning    =    JACOBI
   Convergence cutoff =     1E-06
   Maximum iterations =       100

  ==> CPHFRHamiltonian (by Rob Parrish) <== 

  ==> MemDFJK: Density-Fitted J/K Matrices <==

    J tasked:                   Yes
    K tasked:                   Yes
    wK tasked:                   No
    OpenMP threads:               8
    Memory [MiB]:             22888
    Algorithm:                 Disk
    Schwarz Cutoff:           1E-12
    Mask sparsity (%):       5.1157
    Fitting Condition:        1E-10

   => Auxiliary Basis Set <=

  Basis Set: (AUG-CC-PVTZ AUX)
    Blend: AUG-CC-PVTZ-JKFIT
    Number of shells: 382
    Number of basis function: 1304
    Number of Cartesian functions: 1619
    Spherical Harmonics?: true
    Max angular momentum: 4

  ==> CPHF Iterations <==

  => Iterations <=

             Iter  Converged  Remaining    Residual
  CGR           1          0          1   1.129E-01
  CGR           2          0          1   3.851E-02
  CGR           3          0          1   1.896E-02
  CGR           4          0          1   8.133E-03
  CGR           5          0          1   3.081E-03
  CGR           6          0          1   1.198E-03
  CGR           7          0          1   4.503E-04
  CGR           8          0          1   2.295E-04
  CGR           9          0          1   9.619E-05
  CGR          10          0          1   3.991E-05
  CGR          11          0          1   1.491E-05
  CGR          12          0          1   5.363E-06
  CGR          13          0          1   2.535E-06
  CGR          14          1          0   7.763E-07

    CGRSolver converged.

	-----------------------------------------------------------
	 ==================> DF-MP2 Energies <==================== 
	-----------------------------------------------------------
	 Reference Energy          =    -382.5660006782570122 [Eh]
	 Singles Energy            =      -0.0000000000000000 [Eh]
	 Same-Spin Energy          =      -0.4076984789515608 [Eh]
	 Opposite-Spin Energy      =      -1.2879303175132022 [Eh]
	 Correlation Energy        =      -1.6956287964647629 [Eh]
	 Total Energy              =    -384.2616294747217580 [Eh]
	-----------------------------------------------------------
	 ================> DF-SCS-MP2 Energies <================== 
	-----------------------------------------------------------
	 SCS Same-Spin Scale       =       0.3333333333333333 [-]
	 SCS Opposite-Spin Scale   =       1.2000000000000000 [-]
	 SCS Same-Spin Energy      =      -0.1358994929838536 [Eh]
	 SCS Opposite-Spin Energy  =      -1.5455163810158425 [Eh]
	 SCS Correlation Energy    =      -1.6814158739996961 [Eh]
	 SCS Total Energy          =    -384.2474165522567091 [Eh]
	-----------------------------------------------------------



Properties will be evaluated at  -0.000000,  -0.000000,   0.000000 [a0]

Properties computed using the MP2 density matrix

  Nuclear Dipole Moment: [e a0]
     X:     8.8457      Y:    -1.6178      Z:     0.0379

  Electronic Dipole Moment: [e a0]
     X:    -7.3901      Y:     1.4473      Z:    -0.0293

  Dipole Moment: [e a0]
     X:     1.4556      Y:    -0.1705      Z:     0.0085     Total:     1.4656

  Dipole Moment: [D]
     X:     3.6998      Y:    -0.4334      Z:     0.0216     Total:     3.7252


*** tstop() called on node37.bme.utexas.edu at Thu Nov  5 13:13:09 2020
Module time:
	user time   =     854.00 seconds =      14.23 minutes
	system time =     103.58 seconds =       1.73 minutes
	total time  =        181 seconds =       3.02 minutes
Total time:
	user time   =    1223.26 seconds =      20.39 minutes
	system time =     183.46 seconds =       3.06 minutes
	total time  =        289 seconds =       4.82 minutes

    Psi4 stopped on: Thursday, 05 November 2020 01:13PM
    Psi4 wall time for execution: 0:04:49.59

*** Psi4 exiting successfully. Buy a developer a beer!
