
    -----------------------------------------------------------------------
          Psi4: An Open-Source Ab Initio Electronic Structure Package
                               Psi4 1.3.2 release

                         Git: Rev {HEAD} ecbda83 


    R. M. Parrish, L. A. Burns, D. G. A. Smith, A. C. Simmonett,
    A. E. DePrince III, E. G. Hohenstein, U. Bozkaya, A. Yu. Sokolov,
    R. Di Remigio, R. M. Richard, J. F. Gonthier, A. M. James,
    H. R. McAlexander, A. Kumar, M. Saitow, X. Wang, B. P. Pritchard,
    P. Verma, H. F. Schaefer III, K. Patkowski, R. A. King, E. F. Valeev,
    F. A. Evangelista, J. M. Turney, T. D. Crawford, and C. D. Sherrill,
    J. Chem. Theory Comput. 13(7) pp 3185--3197 (2017).
    (doi: 10.1021/acs.jctc.7b00174)


                         Additional Contributions by
    P. Kraus, H. Kruse, M. H. Lechner, M. C. Schieber, R. A. Shaw,
    A. Alenaizan, R. Galvelis, Z. L. Glick, S. Lehtola, and J. P. Misiewicz

    -----------------------------------------------------------------------


    Psi4 started on: Thursday, 05 November 2020 01:53PM

    Process ID: 34393
    Host:       node37.bme.utexas.edu
    PSIDATADIR: /home/xy3866/psi4conda/share/psi4
    Memory:     500.0 MiB
    Threads:    8
    
  ==> Input File <==

--------------------------------------------------------------------------
#psi4
#
memory 32 gb

molecule  {
0 1
  O       -3.2622350    -0.3059220     0.0067540
  C        1.5611120    -0.3149990    -0.0153800
  C        0.2829532    -0.9814566    -0.0102704
  C       -0.8692280    -0.1880260    -0.0014190
  C        1.5994260     1.0858870    -0.0069900
  C       -0.8168260     1.2117300     0.0064260
  C        0.4233030     1.8430470     0.0013400
  C        2.8326460    -1.1226230     0.0134670
  C       -2.1766910    -0.8792860    -0.0025100
  H        0.2498670    -2.0299540    -0.0200910
  H        2.5637200     1.5920050    -0.0150810
  H       -1.7471690     1.7737230     0.0102860
  H        2.6825510    -2.1081700    -0.4357140
  H        3.6321630    -0.6167660    -0.5349600
  H        3.1786260    -1.2736230     1.0416080
  H        0.4815460     2.9289630     0.0030700
  H       -2.1255320    -1.9885980    -0.0123860
units angstrom
no_reorient  #important for SAPT in psi4, default
symmetry c1  #important for SAPT in psi4, default
}

set PROPERTIES_ORIGIN ["COM"]
properties('MP2/aug-cc-pvtz', properties = ['dipole'])
--------------------------------------------------------------------------

  Memory set to  29.802 GiB by Python driver.
    SCF Algorithm Type (re)set to DF.

*** tstart() called on node37.bme.utexas.edu
*** at Thu Nov  5 13:53:07 2020

   => Loading Basis Set <=

    Name: AUG-CC-PVTZ
    Role: ORBITAL
    Keyword: BASIS
    atoms 1     entry O          line   327 file /home/xy3866/psi4conda/share/psi4/basis/aug-cc-pvtz.gbs 
    atoms 2-9   entry C          line   235 file /home/xy3866/psi4conda/share/psi4/basis/aug-cc-pvtz.gbs 
    atoms 10-17 entry H          line    36 file /home/xy3866/psi4conda/share/psi4/basis/aug-cc-pvtz.gbs 


         ---------------------------------------------------------
                                   SCF
               by Justin Turney, Rob Parrish, Andy Simmonett
                          and Daniel G. A. Smith
                              RHF Reference
                        8 Threads,  30517 MiB Core
         ---------------------------------------------------------

  ==> Geometry <==

    Molecular point group: c1
    Full point group: C1

    Geometry (in Angstrom), charge = 0, multiplicity = 1:

       Center              X                  Y                   Z               Mass       
    ------------   -----------------  -----------------  -----------------  -----------------
         O           -3.185994127448    -0.316102008632     0.007078742001    15.994914619570
         C            1.637352872552    -0.325179008632    -0.015055257999    12.000000000000
         C            0.359194072552    -0.991636608632    -0.009945657999    12.000000000000
         C           -0.792987127448    -0.198206008632    -0.001094257999    12.000000000000
         C            1.675666872552     1.075706991368    -0.006665257999    12.000000000000
         C           -0.740585127448     1.201549991368     0.006750742001    12.000000000000
         C            0.499543872552     1.832866991368     0.001664742001    12.000000000000
         C            2.908886872552    -1.132803008632     0.013791742001    12.000000000000
         C           -2.100450127448    -0.889466008632    -0.002185257999    12.000000000000
         H            0.326107872552    -2.040134008632    -0.019766257999     1.007825032230
         H            2.639960872552     1.581824991368    -0.014756257999     1.007825032230
         H           -1.670928127448     1.763542991368     0.010610742001     1.007825032230
         H            2.758791872552    -2.118350008632    -0.435389257999     1.007825032230
         H            3.708403872552    -0.626946008632    -0.534635257999     1.007825032230
         H            3.254866872552    -1.283803008632     1.041932742001     1.007825032230
         H            0.557786872552     2.918782991368     0.003394742001     1.007825032230
         H           -2.049291127448    -1.998778008632    -0.012061257999     1.007825032230

  Running in c1 symmetry.

  Rotational constants: A =      0.11866  B =      0.03748  C =      0.02864 [cm^-1]
  Rotational constants: A =   3557.47515  B =   1123.62752  C =    858.50815 [MHz]
  Nuclear repulsion =  395.624512939114311

  Charge       = 0
  Multiplicity = 1
  Electrons    = 64
  Nalpha       = 32
  Nbeta        = 32

  ==> Algorithm <==

  SCF Algorithm Type is DF.
  DIIS enabled.
  MOM disabled.
  Fractional occupation disabled.
  Guess Type is SAD.
  Energy threshold   = 1.00e-10
  Density threshold  = 1.00e-10
  Integral threshold = 0.00e+00

  ==> Primary Basis <==

  Basis Set: AUG-CC-PVTZ
    Blend: AUG-CC-PVTZ
    Number of shells: 198
    Number of basis function: 598
    Number of Cartesian functions: 695
    Spherical Harmonics?: true
    Max angular momentum: 3

   => Loading Basis Set <=

    Name: (AUG-CC-PVTZ AUX)
    Role: JKFIT
    Keyword: DF_BASIS_SCF
    atoms 1     entry O          line   286 file /home/xy3866/psi4conda/share/psi4/basis/aug-cc-pvtz-jkfit.gbs 
    atoms 2-9   entry C          line   162 file /home/xy3866/psi4conda/share/psi4/basis/aug-cc-pvtz-jkfit.gbs 
    atoms 10-17 entry H          line    70 file /home/xy3866/psi4conda/share/psi4/basis/aug-cc-pvtz-jkfit.gbs 

  ==> Pre-Iterations <==

   -------------------------------------------------------
    Irrep   Nso     Nmo     Nalpha   Nbeta   Ndocc  Nsocc
   -------------------------------------------------------
     A        598     598       0       0       0       0
   -------------------------------------------------------
    Total     598     598      32      32      32       0
   -------------------------------------------------------

  ==> Integral Setup <==

  DFHelper Memory: AOs need 3.402 GiB; user supplied 22.352 GiB. Using in-core AOs.

  ==> MemDFJK: Density-Fitted J/K Matrices <==

    J tasked:                   Yes
    K tasked:                   Yes
    wK tasked:                   No
    OpenMP threads:               8
    Memory [MiB]:             22888
    Algorithm:                 Disk
    Schwarz Cutoff:           1E-12
    Mask sparsity (%):       5.1375
    Fitting Condition:        1E-10

   => Auxiliary Basis Set <=

  Basis Set: (AUG-CC-PVTZ AUX)
    Blend: AUG-CC-PVTZ-JKFIT
    Number of shells: 382
    Number of basis function: 1304
    Number of Cartesian functions: 1619
    Spherical Harmonics?: true
    Max angular momentum: 4

  Minimum eigenvalue in the overlap matrix is 6.0052373130E-07.
  Using Symmetric Orthogonalization.

  SCF Guess: Superposition of Atomic Densities via on-the-fly atomic UHF.

  ==> Iterations <==

                           Total Energy        Delta E     RMS |[F,P]|

   @DF-RHF iter SAD:  -381.68987447998688   -3.81690e+02   0.00000e+00 
   @DF-RHF iter   1:  -382.33964444866842   -6.49770e-01   1.11638e-03 DIIS
   @DF-RHF iter   2:  -382.53603140099892   -1.96387e-01   6.18890e-04 DIIS
   @DF-RHF iter   3:  -382.58970405574973   -5.36727e-02   1.42561e-04 DIIS
   @DF-RHF iter   4:  -382.59349165117897   -3.78760e-03   5.85091e-05 DIIS
   @DF-RHF iter   5:  -382.59415953986718   -6.67889e-04   1.09266e-05 DIIS
   @DF-RHF iter   6:  -382.59419885373882   -3.93139e-05   4.46310e-06 DIIS
   @DF-RHF iter   7:  -382.59420757323602   -8.71950e-06   1.79720e-06 DIIS
   @DF-RHF iter   8:  -382.59420926370228   -1.69047e-06   7.97958e-07 DIIS
   @DF-RHF iter   9:  -382.59420960856596   -3.44864e-07   3.28945e-07 DIIS
   @DF-RHF iter  10:  -382.59420966632769   -5.77617e-08   9.12064e-08 DIIS
   @DF-RHF iter  11:  -382.59420967277242   -6.44474e-09   4.02264e-08 DIIS
   @DF-RHF iter  12:  -382.59420967397841   -1.20599e-09   1.71098e-08 DIIS
   @DF-RHF iter  13:  -382.59420967430589   -3.27475e-10   8.53177e-09 DIIS
   @DF-RHF iter  14:  -382.59420967438086   -7.49765e-11   3.76982e-09 DIIS
   @DF-RHF iter  15:  -382.59420967439326   -1.23919e-11   1.25770e-09 DIIS
   @DF-RHF iter  16:  -382.59420967439411   -8.52651e-13   5.34620e-10 DIIS
   @DF-RHF iter  17:  -382.59420967439166    2.44427e-12   2.10519e-10 DIIS
   @DF-RHF iter  18:  -382.59420967439610   -4.43379e-12   8.26337e-11 DIIS
  Energy and wave function converged.


  ==> Post-Iterations <==

    Orbital Energies [Eh]
    ---------------------

    Doubly Occupied:                                                      

       1A    -20.553459     2A    -11.335456     3A    -11.264148  
       4A    -11.258527     5A    -11.253937     6A    -11.253118  
       7A    -11.250866     8A    -11.249038     9A    -11.237726  
      10A     -1.378210    11A     -1.169030    12A     -1.063973  
      13A     -1.044152    14A     -0.947584    15A     -0.889369  
      16A     -0.838074    17A     -0.768587    18A     -0.711593  
      19A     -0.677445    20A     -0.653589    21A     -0.617742  
      22A     -0.613712    23A     -0.589745    24A     -0.582500  
      25A     -0.554484    26A     -0.543876    27A     -0.516767  
      28A     -0.506355    29A     -0.487137    30A     -0.427041  
      31A     -0.354362    32A     -0.336019  

    Virtual:                                                              

      33A      0.023782    34A      0.029476    35A      0.035105  
      36A      0.040424    37A      0.045384    38A      0.051680  
      39A      0.059692    40A      0.061881    41A      0.071289  
      42A      0.078847    43A      0.083462    44A      0.095131  
      45A      0.098732    46A      0.101958    47A      0.107593  
      48A      0.113769    49A      0.118173    50A      0.124202  
      51A      0.128007    52A      0.129810    53A      0.130500  
      54A      0.134945    55A      0.136541    56A      0.143377  
      57A      0.149934    58A      0.151026    59A      0.156783  
      60A      0.161962    61A      0.164501    62A      0.168722  
      63A      0.173542    64A      0.185817    65A      0.187125  
      66A      0.193847    67A      0.203961    68A      0.213267  
      69A      0.222825    70A      0.228921    71A      0.234092  
      72A      0.237659    73A      0.241012    74A      0.253704  
      75A      0.255412    76A      0.259622    77A      0.271235  
      78A      0.275275    79A      0.285794    80A      0.292041  
      81A      0.293039    82A      0.295954    83A      0.301275  
      84A      0.304258    85A      0.321763    86A      0.323150  
      87A      0.329607    88A      0.332775    89A      0.333710  
      90A      0.343181    91A      0.348712    92A      0.349844  
      93A      0.355381    94A      0.357083    95A      0.357726  
      96A      0.368142    97A      0.373353    98A      0.384537  
      99A      0.389112   100A      0.398941   101A      0.407137  
     102A      0.407683   103A      0.412883   104A      0.417172  
     105A      0.419930   106A      0.425860   107A      0.435246  
     108A      0.436842   109A      0.441216   110A      0.450072  
     111A      0.450999   112A      0.452151   113A      0.463959  
     114A      0.468022   115A      0.473789   116A      0.476070  
     117A      0.479168   118A      0.486940   119A      0.487546  
     120A      0.495475   121A      0.497829   122A      0.499658  
     123A      0.506290   124A      0.509602   125A      0.514883  
     126A      0.522048   127A      0.527589   128A      0.531901  
     129A      0.534941   130A      0.538215   131A      0.543968  
     132A      0.546302   133A      0.549640   134A      0.557869  
     135A      0.562984   136A      0.572915   137A      0.577627  
     138A      0.594226   139A      0.601518   140A      0.617433  
     141A      0.620452   142A      0.628100   143A      0.631823  
     144A      0.643271   145A      0.650687   146A      0.672931  
     147A      0.677441   148A      0.686088   149A      0.689070  
     150A      0.701498   151A      0.702600   152A      0.709218  
     153A      0.714963   154A      0.724401   155A      0.733210  
     156A      0.736692   157A      0.741531   158A      0.747786  
     159A      0.759381   160A      0.778048   161A      0.783019  
     162A      0.804566   163A      0.806607   164A      0.810086  
     165A      0.814435   166A      0.825321   167A      0.832279  
     168A      0.838611   169A      0.846670   170A      0.854775  
     171A      0.860860   172A      0.867065   173A      0.871958  
     174A      0.881075   175A      0.884680   176A      0.885293  
     177A      0.891121   178A      0.893948   179A      0.905148  
     180A      0.908330   181A      0.911459   182A      0.925697  
     183A      0.927482   184A      0.933008   185A      0.937133  
     186A      0.948747   187A      0.951753   188A      0.953597  
     189A      0.957344   190A      0.968599   191A      0.972624  
     192A      0.979690   193A      0.984185   194A      0.989519  
     195A      0.998798   196A      1.008563   197A      1.014347  
     198A      1.022728   199A      1.022964   200A      1.025054  
     201A      1.029802   202A      1.037812   203A      1.044554  
     204A      1.046411   205A      1.061545   206A      1.067185  
     207A      1.070257   208A      1.080876   209A      1.085017  
     210A      1.088484   211A      1.091864   212A      1.094896  
     213A      1.102325   214A      1.106915   215A      1.111668  
     216A      1.115681   217A      1.132926   218A      1.141550  
     219A      1.143352   220A      1.153408   221A      1.163715  
     222A      1.167921   223A      1.180176   224A      1.184758  
     225A      1.190367   226A      1.193367   227A      1.197901  
     228A      1.201670   229A      1.205222   230A      1.214284  
     231A      1.219874   232A      1.224540   233A      1.232760  
     234A      1.241832   235A      1.255025   236A      1.261045  
     237A      1.262693   238A      1.277570   239A      1.282690  
     240A      1.295132   241A      1.297932   242A      1.304864  
     243A      1.316871   244A      1.328134   245A      1.337977  
     246A      1.351259   247A      1.363702   248A      1.370385  
     249A      1.378962   250A      1.385709   251A      1.399597  
     252A      1.401691   253A      1.410691   254A      1.425846  
     255A      1.434037   256A      1.441362   257A      1.448688  
     258A      1.451738   259A      1.475461   260A      1.492225  
     261A      1.505534   262A      1.511581   263A      1.522404  
     264A      1.536102   265A      1.541039   266A      1.546659  
     267A      1.554747   268A      1.556440   269A      1.576643  
     270A      1.588614   271A      1.596057   272A      1.619230  
     273A      1.627854   274A      1.636579   275A      1.647131  
     276A      1.656023   277A      1.662742   278A      1.685132  
     279A      1.697228   280A      1.705646   281A      1.712776  
     282A      1.721375   283A      1.724588   284A      1.739980  
     285A      1.743571   286A      1.746461   287A      1.766284  
     288A      1.777427   289A      1.788511   290A      1.803977  
     291A      1.805768   292A      1.821413   293A      1.827863  
     294A      1.839963   295A      1.850877   296A      1.860023  
     297A      1.864924   298A      1.870004   299A      1.878720  
     300A      1.883699   301A      1.888565   302A      1.903341  
     303A      1.912275   304A      1.918182   305A      1.929694  
     306A      1.947022   307A      1.960957   308A      1.967408  
     309A      1.984644   310A      2.011867   311A      2.015424  
     312A      2.025676   313A      2.032704   314A      2.034687  
     315A      2.043661   316A      2.056002   317A      2.070993  
     318A      2.082574   319A      2.085834   320A      2.096886  
     321A      2.104039   322A      2.111196   323A      2.118599  
     324A      2.138723   325A      2.150118   326A      2.158699  
     327A      2.165880   328A      2.187129   329A      2.197507  
     330A      2.203949   331A      2.206874   332A      2.232792  
     333A      2.236153   334A      2.252502   335A      2.267238  
     336A      2.275312   337A      2.282111   338A      2.304327  
     339A      2.321659   340A      2.326606   341A      2.340122  
     342A      2.367825   343A      2.372776   344A      2.383721  
     345A      2.403782   346A      2.410606   347A      2.421845  
     348A      2.427468   349A      2.449609   350A      2.476325  
     351A      2.484796   352A      2.511056   353A      2.520821  
     354A      2.536289   355A      2.558033   356A      2.561267  
     357A      2.575422   358A      2.595600   359A      2.621487  
     360A      2.640041   361A      2.652397   362A      2.710904  
     363A      2.728515   364A      2.743245   365A      2.748415  
     366A      2.764532   367A      2.771053   368A      2.798822  
     369A      2.849981   370A      2.861776   371A      2.883808  
     372A      2.922124   373A      2.934687   374A      2.962265  
     375A      2.964999   376A      3.014387   377A      3.056888  
     378A      3.128072   379A      3.143161   380A      3.182778  
     381A      3.195953   382A      3.214662   383A      3.226752  
     384A      3.234518   385A      3.251027   386A      3.264675  
     387A      3.281449   388A      3.292418   389A      3.307281  
     390A      3.332347   391A      3.337888   392A      3.345717  
     393A      3.355759   394A      3.381106   395A      3.404796  
     396A      3.421481   397A      3.444043   398A      3.453340  
     399A      3.469372   400A      3.480072   401A      3.480834  
     402A      3.498037   403A      3.506553   404A      3.508164  
     405A      3.516155   406A      3.530374   407A      3.549292  
     408A      3.564928   409A      3.573899   410A      3.578374  
     411A      3.585370   412A      3.611160   413A      3.617273  
     414A      3.625167   415A      3.638888   416A      3.657539  
     417A      3.680343   418A      3.686990   419A      3.688987  
     420A      3.706272   421A      3.711133   422A      3.721648  
     423A      3.734063   424A      3.745473   425A      3.758234  
     426A      3.772785   427A      3.776919   428A      3.789487  
     429A      3.833112   430A      3.837126   431A      3.840581  
     432A      3.855593   433A      3.872232   434A      3.880276  
     435A      3.895455   436A      3.904438   437A      3.912686  
     438A      3.915524   439A      3.930867   440A      3.949669  
     441A      3.957442   442A      3.966446   443A      3.987325  
     444A      3.993290   445A      4.008582   446A      4.018681  
     447A      4.025242   448A      4.036832   449A      4.044091  
     450A      4.055675   451A      4.066423   452A      4.069224  
     453A      4.104390   454A      4.115433   455A      4.136426  
     456A      4.149803   457A      4.158601   458A      4.176854  
     459A      4.180857   460A      4.192503   461A      4.201118  
     462A      4.216966   463A      4.227127   464A      4.242384  
     465A      4.248193   466A      4.254500   467A      4.262125  
     468A      4.288962   469A      4.302162   470A      4.311872  
     471A      4.317283   472A      4.345314   473A      4.359372  
     474A      4.368173   475A      4.378319   476A      4.391390  
     477A      4.406966   478A      4.414971   479A      4.422092  
     480A      4.426445   481A      4.450406   482A      4.454446  
     483A      4.466365   484A      4.475111   485A      4.484519  
     486A      4.513410   487A      4.521310   488A      4.539039  
     489A      4.569346   490A      4.597690   491A      4.607905  
     492A      4.623803   493A      4.644414   494A      4.645790  
     495A      4.688866   496A      4.699042   497A      4.706651  
     498A      4.713104   499A      4.733624   500A      4.742531  
     501A      4.747126   502A      4.778094   503A      4.808281  
     504A      4.824691   505A      4.831796   506A      4.844502  
     507A      4.861626   508A      4.868429   509A      4.885814  
     510A      4.898803   511A      4.929248   512A      4.948554  
     513A      4.955380   514A      4.983033   515A      5.007324  
     516A      5.027028   517A      5.052557   518A      5.077908  
     519A      5.094448   520A      5.106033   521A      5.111345  
     522A      5.118747   523A      5.139651   524A      5.158752  
     525A      5.168983   526A      5.182100   527A      5.188542  
     528A      5.211338   529A      5.224971   530A      5.261121  
     531A      5.267044   532A      5.294726   533A      5.313610  
     534A      5.324050   535A      5.335001   536A      5.377890  
     537A      5.383356   538A      5.408055   539A      5.436879  
     540A      5.453724   541A      5.459911   542A      5.483088  
     543A      5.504333   544A      5.523414   545A      5.622620  
     546A      5.650351   547A      5.673679   548A      5.703994  
     549A      5.725184   550A      5.731948   551A      5.757695  
     552A      5.790210   553A      5.806524   554A      5.873746  
     555A      5.927527   556A      5.940072   557A      6.021306  
     558A      6.068401   559A      6.131634   560A      6.162865  
     561A      6.173787   562A      6.242446   563A      6.254376  
     564A      6.326920   565A      6.402771   566A      6.427209  
     567A      6.437619   568A      6.486284   569A      6.546106  
     570A      6.569047   571A      6.667494   572A      6.728508  
     573A      6.742173   574A      6.762229   575A      6.799386  
     576A      6.832527   577A      6.941995   578A      6.968589  
     579A      7.035112   580A      7.102812   581A      7.149101  
     582A      7.190882   583A      7.330992   584A      7.402555  
     585A      7.631848   586A      7.674248   587A      7.741704  
     588A      7.848544   589A      7.941261   590A     15.283339  
     591A     16.225705   592A     16.672995   593A     18.175174  
     594A     18.397281   595A     19.179814   596A     19.631428  
     597A     20.266339   598A     20.527013  

    Final Occupation by Irrep:
              A 
    DOCC [    32 ]

  @DF-RHF Final Energy:  -382.59420967439610

   => Energetics <=

    Nuclear Repulsion Energy =            395.6245129391143109
    One-Electron Energy =               -1302.5821990017159351
    Two-Electron Energy =                 524.3634763882055267
    Total Energy =                       -382.5942096743960974

Computation Completed

*** tstop() called on node37.bme.utexas.edu at Thu Nov  5 13:54:35 2020
Module time:
	user time   =     307.74 seconds =       5.13 minutes
	system time =      67.61 seconds =       1.13 minutes
	total time  =         88 seconds =       1.47 minutes
Total time:
	user time   =     307.74 seconds =       5.13 minutes
	system time =      67.61 seconds =       1.13 minutes
	total time  =         88 seconds =       1.47 minutes
   => Loading Basis Set <=

    Name: (AUG-CC-PVTZ AUX)
    Role: RIFIT
    Keyword: DF_BASIS_MP2
    atoms 1     entry O          line   264 file /home/xy3866/psi4conda/share/psi4/basis/aug-cc-pvtz-ri.gbs 
    atoms 2-9   entry C          line   148 file /home/xy3866/psi4conda/share/psi4/basis/aug-cc-pvtz-ri.gbs 
    atoms 10-17 entry H          line    30 file /home/xy3866/psi4conda/share/psi4/basis/aug-cc-pvtz-ri.gbs 


*** tstart() called on node37.bme.utexas.edu
*** at Thu Nov  5 13:54:35 2020


  //>>>>>>>>>>>>>>>>>>>>>>>>>>>>>>>>>>>//
  //               DFMP2               //
  //<<<<<<<<<<<<<<<<<<<<<<<<<<<<<<<<<<<//

	 --------------------------------------------------------
	                          DF-MP2                         
	      2nd-Order Density-Fitted Moller-Plesset Theory     
	              RMP2 Wavefunction,   8 Threads             
	                                                         
	        Rob Parrish, Justin Turney, Andy Simmonett,      
	           Ed Hohenstein, and C. David Sherrill          
	 --------------------------------------------------------

   => Auxiliary Basis Set <=

  Basis Set: (AUG-CC-PVTZ AUX)
    Blend: AUG-CC-PVTZ-RI
    Number of shells: 364
    Number of basis function: 1322
    Number of Cartesian functions: 1664
    Spherical Harmonics?: true
    Max angular momentum: 4

	 --------------------------------------------------------
	                 NBF =   598, NAUX =  1322
	 --------------------------------------------------------
	   CLASS    FOCC     OCC    AOCC    AVIR     VIR    FVIR
	   PAIRS       0      32      32     566     566       0
	 --------------------------------------------------------

  DFHelper Memory: AOs need 3.402 GiB; user supplied 22.352 GiB. Using in-core AOs.


         ------------------------------------------------------------
                                     CPHF                           
                                  Rob Parrish                       
         ------------------------------------------------------------

  ==> Geometry <==

    Molecular point group: c1
    Full point group: C1

    Geometry (in Angstrom), charge = 0, multiplicity = 1:

       Center              X                  Y                   Z               Mass       
    ------------   -----------------  -----------------  -----------------  -----------------
         O           -3.185994127448    -0.316102008632     0.007078742001    15.994914619570
         C            1.637352872552    -0.325179008632    -0.015055257999    12.000000000000
         C            0.359194072552    -0.991636608632    -0.009945657999    12.000000000000
         C           -0.792987127448    -0.198206008632    -0.001094257999    12.000000000000
         C            1.675666872552     1.075706991368    -0.006665257999    12.000000000000
         C           -0.740585127448     1.201549991368     0.006750742001    12.000000000000
         C            0.499543872552     1.832866991368     0.001664742001    12.000000000000
         C            2.908886872552    -1.132803008632     0.013791742001    12.000000000000
         C           -2.100450127448    -0.889466008632    -0.002185257999    12.000000000000
         H            0.326107872552    -2.040134008632    -0.019766257999     1.007825032230
         H            2.639960872552     1.581824991368    -0.014756257999     1.007825032230
         H           -1.670928127448     1.763542991368     0.010610742001     1.007825032230
         H            2.758791872552    -2.118350008632    -0.435389257999     1.007825032230
         H            3.708403872552    -0.626946008632    -0.534635257999     1.007825032230
         H            3.254866872552    -1.283803008632     1.041932742001     1.007825032230
         H            0.557786872552     2.918782991368     0.003394742001     1.007825032230
         H           -2.049291127448    -1.998778008632    -0.012061257999     1.007825032230

  Nuclear repulsion =  395.624512939114311
  Reference energy  = -382.594209674396097

  ==> Basis Set <==

  Basis Set: AUG-CC-PVTZ
    Blend: AUG-CC-PVTZ
    Number of shells: 198
    Number of basis function: 598
    Number of Cartesian functions: 695
    Spherical Harmonics?: true
    Max angular momentum: 3

  ==> CGRSolver (by Rob Parrish) <==

   Number of roots    =         1
   Preconditioning    =    JACOBI
   Convergence cutoff =     1E-06
   Maximum iterations =       100

  ==> CPHFRHamiltonian (by Rob Parrish) <== 

  ==> MemDFJK: Density-Fitted J/K Matrices <==

    J tasked:                   Yes
    K tasked:                   Yes
    wK tasked:                   No
    OpenMP threads:               8
    Memory [MiB]:             22888
    Algorithm:                 Disk
    Schwarz Cutoff:           1E-12
    Mask sparsity (%):       5.1375
    Fitting Condition:        1E-10

   => Auxiliary Basis Set <=

  Basis Set: (AUG-CC-PVTZ AUX)
    Blend: AUG-CC-PVTZ-JKFIT
    Number of shells: 382
    Number of basis function: 1304
    Number of Cartesian functions: 1619
    Spherical Harmonics?: true
    Max angular momentum: 4

  ==> CPHF Iterations <==

  => Iterations <=

             Iter  Converged  Remaining    Residual
  CGR           1          0          1   1.035E-01
  CGR           2          0          1   3.098E-02
  CGR           3          0          1   1.084E-02
  CGR           4          0          1   5.566E-03
  CGR           5          0          1   2.517E-03
  CGR           6          0          1   1.134E-03
  CGR           7          0          1   4.226E-04
  CGR           8          0          1   1.755E-04
  CGR           9          0          1   6.740E-05
  CGR          10          0          1   2.925E-05
  CGR          11          0          1   1.123E-05
  CGR          12          0          1   3.448E-06
  CGR          13          0          1   1.826E-06
  CGR          14          1          0   7.275E-07

    CGRSolver converged.

	-----------------------------------------------------------
	 ==================> DF-MP2 Energies <==================== 
	-----------------------------------------------------------
	 Reference Energy          =    -382.5942096743960974 [Eh]
	 Singles Energy            =      -0.0000000000000000 [Eh]
	 Same-Spin Energy          =      -0.4080816023364680 [Eh]
	 Opposite-Spin Energy      =      -1.2866831084750578 [Eh]
	 Correlation Energy        =      -1.6947647108115258 [Eh]
	 Total Energy              =    -384.2889743852076094 [Eh]
	-----------------------------------------------------------
	 ================> DF-SCS-MP2 Energies <================== 
	-----------------------------------------------------------
	 SCS Same-Spin Scale       =       0.3333333333333333 [-]
	 SCS Opposite-Spin Scale   =       1.2000000000000000 [-]
	 SCS Same-Spin Energy      =      -0.1360272007788226 [Eh]
	 SCS Opposite-Spin Energy  =      -1.5440197301700693 [Eh]
	 SCS Correlation Energy    =      -1.6800469309488919 [Eh]
	 SCS Total Energy          =    -384.2742566053449877 [Eh]
	-----------------------------------------------------------



Properties will be evaluated at  -0.000000,   0.000000,   0.000000 [a0]

Properties computed using the MP2 density matrix

  Nuclear Dipole Moment: [e a0]
     X:     8.9147      Y:    -1.6926      Z:     0.0369

  Electronic Dipole Moment: [e a0]
     X:    -7.4572      Y:     1.4908      Z:    -0.0279

  Dipole Moment: [e a0]
     X:     1.4576      Y:    -0.2018      Z:     0.0090     Total:     1.4715

  Dipole Moment: [D]
     X:     3.7048      Y:    -0.5128      Z:     0.0229     Total:     3.7401


*** tstop() called on node37.bme.utexas.edu at Thu Nov  5 13:57:30 2020
Module time:
	user time   =     864.89 seconds =      14.41 minutes
	system time =      88.42 seconds =       1.47 minutes
	total time  =        175 seconds =       2.92 minutes
Total time:
	user time   =    1173.62 seconds =      19.56 minutes
	system time =     156.08 seconds =       2.60 minutes
	total time  =        263 seconds =       4.38 minutes

    Psi4 stopped on: Thursday, 05 November 2020 01:57PM
    Psi4 wall time for execution: 0:04:23.03

*** Psi4 exiting successfully. Buy a developer a beer!
