
    -----------------------------------------------------------------------
          Psi4: An Open-Source Ab Initio Electronic Structure Package
                               Psi4 1.3.2 release

                         Git: Rev {HEAD} ecbda83 


    R. M. Parrish, L. A. Burns, D. G. A. Smith, A. C. Simmonett,
    A. E. DePrince III, E. G. Hohenstein, U. Bozkaya, A. Yu. Sokolov,
    R. Di Remigio, R. M. Richard, J. F. Gonthier, A. M. James,
    H. R. McAlexander, A. Kumar, M. Saitow, X. Wang, B. P. Pritchard,
    P. Verma, H. F. Schaefer III, K. Patkowski, R. A. King, E. F. Valeev,
    F. A. Evangelista, J. M. Turney, T. D. Crawford, and C. D. Sherrill,
    J. Chem. Theory Comput. 13(7) pp 3185--3197 (2017).
    (doi: 10.1021/acs.jctc.7b00174)


                         Additional Contributions by
    P. Kraus, H. Kruse, M. H. Lechner, M. C. Schieber, R. A. Shaw,
    A. Alenaizan, R. Galvelis, Z. L. Glick, S. Lehtola, and J. P. Misiewicz

    -----------------------------------------------------------------------


    Psi4 started on: Thursday, 05 November 2020 02:15PM

    Process ID: 36212
    Host:       node37.bme.utexas.edu
    PSIDATADIR: /home/xy3866/psi4conda/share/psi4
    Memory:     500.0 MiB
    Threads:    8
    
  ==> Input File <==

--------------------------------------------------------------------------
#psi4
#
memory 32 gb

molecule  {
0 1
  O       -3.2622350    -0.3059220     0.0067540
  C        1.5611120    -0.3149990    -0.0153800
  C        0.3821699    -0.8133834    -0.0093787
  C       -0.8692280    -0.1880260    -0.0014190
  C        1.5994260     1.0858870    -0.0069900
  C       -0.8168260     1.2117300     0.0064260
  C        0.4233030     1.8430470     0.0013400
  C        2.8326460    -1.1226230     0.0134670
  C       -2.1766910    -0.8792860    -0.0025100
  H        0.2498670    -2.0299540    -0.0200910
  H        2.5637200     1.5920050    -0.0150810
  H       -1.7471690     1.7737230     0.0102860
  H        2.6825510    -2.1081700    -0.4357140
  H        3.6321630    -0.6167660    -0.5349600
  H        3.1786260    -1.2736230     1.0416080
  H        0.4815460     2.9289630     0.0030700
  H       -2.1255320    -1.9885980    -0.0123860
units angstrom
no_reorient  #important for SAPT in psi4, default
symmetry c1  #important for SAPT in psi4, default
}

set PROPERTIES_ORIGIN ["COM"]
properties('MP2/aug-cc-pvtz', properties = ['dipole'])
--------------------------------------------------------------------------

  Memory set to  29.802 GiB by Python driver.
    SCF Algorithm Type (re)set to DF.

*** tstart() called on node37.bme.utexas.edu
*** at Thu Nov  5 14:15:13 2020

   => Loading Basis Set <=

    Name: AUG-CC-PVTZ
    Role: ORBITAL
    Keyword: BASIS
    atoms 1     entry O          line   327 file /home/xy3866/psi4conda/share/psi4/basis/aug-cc-pvtz.gbs 
    atoms 2-9   entry C          line   235 file /home/xy3866/psi4conda/share/psi4/basis/aug-cc-pvtz.gbs 
    atoms 10-17 entry H          line    36 file /home/xy3866/psi4conda/share/psi4/basis/aug-cc-pvtz.gbs 


         ---------------------------------------------------------
                                   SCF
               by Justin Turney, Rob Parrish, Andy Simmonett
                          and Daniel G. A. Smith
                              RHF Reference
                        8 Threads,  30517 MiB Core
         ---------------------------------------------------------

  ==> Geometry <==

    Molecular point group: c1
    Full point group: C1

    Geometry (in Angstrom), charge = 0, multiplicity = 1:

       Center              X                  Y                   Z               Mass       
    ------------   -----------------  -----------------  -----------------  -----------------
         O           -3.195911044362    -0.332901276899     0.006989614719    15.994914619570
         C            1.627435955638    -0.341978276899    -0.015144385281    12.000000000000
         C            0.448493855638    -0.840362676899    -0.009143085281    12.000000000000
         C           -0.802904044362    -0.215005276899    -0.001183385281    12.000000000000
         C            1.665749955638     1.058907723101    -0.006754385281    12.000000000000
         C           -0.750502044362     1.184750723101     0.006661614719    12.000000000000
         C            0.489626955638     1.816067723101     0.001575614719    12.000000000000
         C            2.898969955638    -1.149602276899     0.013702614719    12.000000000000
         C           -2.110367044362    -0.906265276899    -0.002274385281    12.000000000000
         H            0.316190955638    -2.056933276899    -0.019855385281     1.007825032230
         H            2.630043955638     1.565025723101    -0.014845385281     1.007825032230
         H           -1.680845044362     1.746743723101     0.010521614719     1.007825032230
         H            2.748874955638    -2.135149276899    -0.435478385281     1.007825032230
         H            3.698486955638    -0.643745276899    -0.534724385281     1.007825032230
         H            3.244949955638    -1.300602276899     1.041843614719     1.007825032230
         H            0.547869955638     2.901983723101     0.003305614719     1.007825032230
         H           -2.059208044362    -2.015577276899    -0.012150385281     1.007825032230

  Running in c1 symmetry.

  Rotational constants: A =      0.12182  B =      0.03740  C =      0.02877 [cm^-1]
  Rotational constants: A =   3652.15713  B =   1121.26115  C =    862.51292 [MHz]
  Nuclear repulsion =  398.220485859050541

  Charge       = 0
  Multiplicity = 1
  Electrons    = 64
  Nalpha       = 32
  Nbeta        = 32

  ==> Algorithm <==

  SCF Algorithm Type is DF.
  DIIS enabled.
  MOM disabled.
  Fractional occupation disabled.
  Guess Type is SAD.
  Energy threshold   = 1.00e-10
  Density threshold  = 1.00e-10
  Integral threshold = 0.00e+00

  ==> Primary Basis <==

  Basis Set: AUG-CC-PVTZ
    Blend: AUG-CC-PVTZ
    Number of shells: 198
    Number of basis function: 598
    Number of Cartesian functions: 695
    Spherical Harmonics?: true
    Max angular momentum: 3

   => Loading Basis Set <=

    Name: (AUG-CC-PVTZ AUX)
    Role: JKFIT
    Keyword: DF_BASIS_SCF
    atoms 1     entry O          line   286 file /home/xy3866/psi4conda/share/psi4/basis/aug-cc-pvtz-jkfit.gbs 
    atoms 2-9   entry C          line   162 file /home/xy3866/psi4conda/share/psi4/basis/aug-cc-pvtz-jkfit.gbs 
    atoms 10-17 entry H          line    70 file /home/xy3866/psi4conda/share/psi4/basis/aug-cc-pvtz-jkfit.gbs 

  ==> Pre-Iterations <==

   -------------------------------------------------------
    Irrep   Nso     Nmo     Nalpha   Nbeta   Ndocc  Nsocc
   -------------------------------------------------------
     A        598     598       0       0       0       0
   -------------------------------------------------------
    Total     598     598      32      32      32       0
   -------------------------------------------------------

  ==> Integral Setup <==

  DFHelper Memory: AOs need 3.402 GiB; user supplied 22.352 GiB. Using in-core AOs.

  ==> MemDFJK: Density-Fitted J/K Matrices <==

    J tasked:                   Yes
    K tasked:                   Yes
    wK tasked:                   No
    OpenMP threads:               8
    Memory [MiB]:             22888
    Algorithm:                 Disk
    Schwarz Cutoff:           1E-12
    Mask sparsity (%):       5.1358
    Fitting Condition:        1E-10

   => Auxiliary Basis Set <=

  Basis Set: (AUG-CC-PVTZ AUX)
    Blend: AUG-CC-PVTZ-JKFIT
    Number of shells: 382
    Number of basis function: 1304
    Number of Cartesian functions: 1619
    Spherical Harmonics?: true
    Max angular momentum: 4

  Minimum eigenvalue in the overlap matrix is 5.2244932149E-07.
  Using Symmetric Orthogonalization.

  SCF Guess: Superposition of Atomic Densities via on-the-fly atomic UHF.

  ==> Iterations <==

                           Total Energy        Delta E     RMS |[F,P]|

   @DF-RHF iter SAD:  -381.89493079495810   -3.81895e+02   0.00000e+00 
   @DF-RHF iter   1:  -382.29466041574631   -3.99730e-01   1.16612e-03 DIIS
   @DF-RHF iter   2:  -382.50015933338790   -2.05499e-01   6.67615e-04 DIIS
   @DF-RHF iter   3:  -382.56577935714006   -6.56200e-02   1.38636e-04 DIIS
   @DF-RHF iter   4:  -382.56958521715609   -3.80586e-03   5.87091e-05 DIIS
   @DF-RHF iter   5:  -382.57025515556086   -6.69938e-04   1.20913e-05 DIIS
   @DF-RHF iter   6:  -382.57030179334282   -4.66378e-05   5.06690e-06 DIIS
   @DF-RHF iter   7:  -382.57031259450946   -1.08012e-05   1.91930e-06 DIIS
   @DF-RHF iter   8:  -382.57031493952974   -2.34502e-06   9.25047e-07 DIIS
   @DF-RHF iter   9:  -382.57031541627777   -4.76748e-07   3.35493e-07 DIIS
   @DF-RHF iter  10:  -382.57031549183813   -7.55604e-08   1.12817e-07 DIIS
   @DF-RHF iter  11:  -382.57031550152669   -9.68856e-09   4.85942e-08 DIIS
   @DF-RHF iter  12:  -382.57031550317055   -1.64385e-09   2.12144e-08 DIIS
   @DF-RHF iter  13:  -382.57031550357959   -4.09045e-10   9.53761e-09 DIIS
   @DF-RHF iter  14:  -382.57031550366327   -8.36735e-11   4.53325e-09 DIIS
   @DF-RHF iter  15:  -382.57031550368049   -1.72236e-11   1.47808e-09 DIIS
   @DF-RHF iter  16:  -382.57031550368089   -3.97904e-13   6.76616e-10 DIIS
   @DF-RHF iter  17:  -382.57031550368151   -6.25278e-13   2.47553e-10 DIIS
   @DF-RHF iter  18:  -382.57031550368214   -6.25278e-13   1.18118e-10 DIIS
   @DF-RHF iter  19:  -382.57031550368123    9.09495e-13   6.43207e-11 DIIS
  Energy and wave function converged.


  ==> Post-Iterations <==

    Orbital Energies [Eh]
    ---------------------

    Doubly Occupied:                                                      

       1A    -20.555925     2A    -11.340328     3A    -11.257945  
       4A    -11.253847     5A    -11.253480     6A    -11.250960  
       7A    -11.247818     8A    -11.243618     9A    -11.239071  
      10A     -1.380439    11A     -1.188883    12A     -1.074636  
      13A     -1.039290    14A     -0.954678    15A     -0.899239  
      16A     -0.825927    17A     -0.785777    18A     -0.708375  
      19A     -0.681637    20A     -0.645029    21A     -0.623239  
      22A     -0.596590    23A     -0.595360    24A     -0.586182  
      25A     -0.548142    26A     -0.546670    27A     -0.530075  
      28A     -0.497014    29A     -0.474991    30A     -0.431757  
      31A     -0.359781    32A     -0.345317  

    Virtual:                                                              

      33A      0.023943    34A      0.030032    35A      0.035320  
      36A      0.039826    37A      0.045126    38A      0.051827  
      39A      0.053925    40A      0.062406    41A      0.071542  
      42A      0.079220    43A      0.083839    44A      0.097192  
      45A      0.101748    46A      0.106838    47A      0.107319  
      48A      0.114330    49A      0.118624    50A      0.125060  
      51A      0.127566    52A      0.130031    53A      0.130588  
      54A      0.134750    55A      0.136246    56A      0.143295  
      57A      0.150346    58A      0.151920    59A      0.157173  
      60A      0.162604    61A      0.166835    62A      0.170091  
      63A      0.172546    64A      0.184676    65A      0.186287  
      66A      0.193087    67A      0.201708    68A      0.212840  
      69A      0.219702    70A      0.226734    71A      0.235055  
      72A      0.240544    73A      0.241764    74A      0.254025  
      75A      0.257373    76A      0.258953    77A      0.274498  
      78A      0.275345    79A      0.286461    80A      0.292423  
      81A      0.295730    82A      0.297105    83A      0.299907  
      84A      0.304843    85A      0.317552    86A      0.323805  
      87A      0.327386    88A      0.330307    89A      0.333836  
      90A      0.343538    91A      0.345655    92A      0.353373  
      93A      0.354137    94A      0.357124    95A      0.363642  
      96A      0.372091    97A      0.376210    98A      0.385750  
      99A      0.386322   100A      0.396981   101A      0.400272  
     102A      0.405052   103A      0.411286   104A      0.415653  
     105A      0.417651   106A      0.421238   107A      0.431054  
     108A      0.435744   109A      0.437769   110A      0.445927  
     111A      0.448890   112A      0.456684   113A      0.463915  
     114A      0.469807   115A      0.473135   116A      0.476530  
     117A      0.478094   118A      0.484212   119A      0.488968  
     120A      0.494356   121A      0.496396   122A      0.502983  
     123A      0.506536   124A      0.511298   125A      0.513330  
     126A      0.523351   127A      0.527708   128A      0.529414  
     129A      0.534844   130A      0.538484   131A      0.543497  
     132A      0.549096   133A      0.553943   134A      0.560266  
     135A      0.563614   136A      0.575876   137A      0.585054  
     138A      0.593681   139A      0.605428   140A      0.622694  
     141A      0.626844   142A      0.629147   143A      0.632437  
     144A      0.644475   145A      0.646108   146A      0.675035  
     147A      0.681992   148A      0.688650   149A      0.691101  
     150A      0.699201   151A      0.708363   152A      0.710843  
     153A      0.715513   154A      0.726639   155A      0.735673  
     156A      0.740302   157A      0.752392   158A      0.760394  
     159A      0.768818   160A      0.778933   161A      0.796468  
     162A      0.802409   163A      0.810992   164A      0.814686  
     165A      0.818728   166A      0.827851   167A      0.835004  
     168A      0.845843   169A      0.849878   170A      0.852818  
     171A      0.854098   172A      0.863868   173A      0.875028  
     174A      0.879463   175A      0.882289   176A      0.885207  
     177A      0.888185   178A      0.894675   179A      0.905437  
     180A      0.910202   181A      0.917202   182A      0.921294  
     183A      0.926114   184A      0.934525   185A      0.944960  
     186A      0.948681   187A      0.954437   188A      0.956428  
     189A      0.961457   190A      0.968997   191A      0.973252  
     192A      0.976393   193A      0.981960   194A      0.999731  
     195A      1.000051   196A      1.005635   197A      1.010813  
     198A      1.014430   199A      1.022645   200A      1.026996  
     201A      1.035716   202A      1.038036   203A      1.041061  
     204A      1.045226   205A      1.054406   206A      1.068127  
     207A      1.075883   208A      1.080558   209A      1.081722  
     210A      1.089480   211A      1.093939   212A      1.100580  
     213A      1.105289   214A      1.106677   215A      1.114258  
     216A      1.120932   217A      1.133438   218A      1.140525  
     219A      1.155081   220A      1.159562   221A      1.163063  
     222A      1.167184   223A      1.177979   224A      1.182338  
     225A      1.189822   226A      1.191599   227A      1.198982  
     228A      1.201880   229A      1.212938   230A      1.222321  
     231A      1.226544   232A      1.228924   233A      1.240908  
     234A      1.248602   235A      1.253929   236A      1.263730  
     237A      1.269578   238A      1.277464   239A      1.278948  
     240A      1.294663   241A      1.300349   242A      1.310039  
     243A      1.316929   244A      1.328904   245A      1.334237  
     246A      1.350258   247A      1.360150   248A      1.370649  
     249A      1.385214   250A      1.396572   251A      1.398616  
     252A      1.409559   253A      1.413882   254A      1.420581  
     255A      1.432541   256A      1.443665   257A      1.450207  
     258A      1.468780   259A      1.470595   260A      1.500735  
     261A      1.506123   262A      1.516517   263A      1.532760  
     264A      1.537266   265A      1.541477   266A      1.547402  
     267A      1.558752   268A      1.561559   269A      1.572028  
     270A      1.588665   271A      1.600811   272A      1.619055  
     273A      1.630774   274A      1.639453   275A      1.645993  
     276A      1.652395   277A      1.669226   278A      1.678308  
     279A      1.697666   280A      1.705490   281A      1.717653  
     282A      1.725235   283A      1.733062   284A      1.741043  
     285A      1.747306   286A      1.754562   287A      1.765986  
     288A      1.779612   289A      1.783851   290A      1.798098  
     291A      1.811143   292A      1.815991   293A      1.824325  
     294A      1.838030   295A      1.849190   296A      1.868978  
     297A      1.874641   298A      1.877580   299A      1.890780  
     300A      1.895459   301A      1.907185   302A      1.914699  
     303A      1.919487   304A      1.931120   305A      1.936597  
     306A      1.942063   307A      1.952153   308A      1.974813  
     309A      1.982636   310A      1.994299   311A      2.007716  
     312A      2.017356   313A      2.028051   314A      2.035483  
     315A      2.043709   316A      2.061282   317A      2.077122  
     318A      2.083255   319A      2.094716   320A      2.109053  
     321A      2.115467   322A      2.123786   323A      2.130387  
     324A      2.142390   325A      2.147899   326A      2.166051  
     327A      2.167941   328A      2.186863   329A      2.203508  
     330A      2.208655   331A      2.218019   332A      2.229406  
     333A      2.242709   334A      2.256634   335A      2.272054  
     336A      2.278096   337A      2.295089   338A      2.316388  
     339A      2.324406   340A      2.331694   341A      2.343606  
     342A      2.372361   343A      2.383284   344A      2.388476  
     345A      2.409704   346A      2.418334   347A      2.430744  
     348A      2.446181   349A      2.457212   350A      2.462184  
     351A      2.488091   352A      2.529278   353A      2.533856  
     354A      2.543783   355A      2.552047   356A      2.562366  
     357A      2.575525   358A      2.611215   359A      2.631730  
     360A      2.639077   361A      2.653094   362A      2.704701  
     363A      2.712913   364A      2.752003   365A      2.774889  
     366A      2.779181   367A      2.812651   368A      2.839289  
     369A      2.849230   370A      2.878834   371A      2.886241  
     372A      2.921904   373A      2.940893   374A      2.970659  
     375A      2.974122   376A      3.051595   377A      3.079402  
     378A      3.124422   379A      3.167902   380A      3.180286  
     381A      3.188521   382A      3.220673   383A      3.247721  
     384A      3.254176   385A      3.270928   386A      3.284873  
     387A      3.300563   388A      3.318866   389A      3.335271  
     390A      3.341196   391A      3.349378   392A      3.359668  
     393A      3.381755   394A      3.387164   395A      3.416083  
     396A      3.425611   397A      3.437357   398A      3.453322  
     399A      3.473333   400A      3.489014   401A      3.500514  
     402A      3.505344   403A      3.515164   404A      3.524551  
     405A      3.534211   406A      3.538281   407A      3.547239  
     408A      3.560952   409A      3.570663   410A      3.584228  
     411A      3.597531   412A      3.608139   413A      3.620789  
     414A      3.637454   415A      3.653601   416A      3.658924  
     417A      3.667137   418A      3.677406   419A      3.696064  
     420A      3.714512   421A      3.725684   422A      3.734748  
     423A      3.739116   424A      3.749184   425A      3.758564  
     426A      3.765909   427A      3.780969   428A      3.811331  
     429A      3.816080   430A      3.830651   431A      3.843506  
     432A      3.863269   433A      3.876771   434A      3.881546  
     435A      3.894505   436A      3.908691   437A      3.915881  
     438A      3.926509   439A      3.933091   440A      3.958811  
     441A      3.965958   442A      3.976760   443A      3.983781  
     444A      3.998399   445A      4.009236   446A      4.027273  
     447A      4.039491   448A      4.042346   449A      4.059804  
     450A      4.066977   451A      4.074752   452A      4.097928  
     453A      4.110584   454A      4.122298   455A      4.128399  
     456A      4.153565   457A      4.163565   458A      4.171230  
     459A      4.190296   460A      4.199077   461A      4.207815  
     462A      4.215323   463A      4.228712   464A      4.246073  
     465A      4.255819   466A      4.275571   467A      4.281568  
     468A      4.288352   469A      4.305688   470A      4.316550  
     471A      4.334416   472A      4.346105   473A      4.359838  
     474A      4.372201   475A      4.382625   476A      4.396226  
     477A      4.399952   478A      4.410534   479A      4.430824  
     480A      4.441912   481A      4.466470   482A      4.476855  
     483A      4.488150   484A      4.503618   485A      4.516010  
     486A      4.533517   487A      4.544775   488A      4.566607  
     489A      4.590508   490A      4.600306   491A      4.627316  
     492A      4.636775   493A      4.646999   494A      4.659919  
     495A      4.680155   496A      4.688383   497A      4.706126  
     498A      4.726594   499A      4.735746   500A      4.757145  
     501A      4.764523   502A      4.789192   503A      4.823341  
     504A      4.830653   505A      4.844193   506A      4.847945  
     507A      4.868699   508A      4.893943   509A      4.907701  
     510A      4.920256   511A      4.931054   512A      4.947163  
     513A      4.973317   514A      4.997835   515A      5.010048  
     516A      5.030871   517A      5.052609   518A      5.069956  
     519A      5.085628   520A      5.100586   521A      5.103908  
     522A      5.121500   523A      5.148293   524A      5.154127  
     525A      5.171223   526A      5.182609   527A      5.186123  
     528A      5.197753   529A      5.211567   530A      5.228642  
     531A      5.256362   532A      5.280825   533A      5.299891  
     534A      5.321593   535A      5.348082   536A      5.356580  
     537A      5.368650   538A      5.392129   539A      5.432677  
     540A      5.461459   541A      5.480291   542A      5.499241  
     543A      5.523285   544A      5.552087   545A      5.611141  
     546A      5.645860   547A      5.671179   548A      5.677733  
     549A      5.693656   550A      5.733119   551A      5.745267  
     552A      5.798186   553A      5.833929   554A      5.845670  
     555A      5.912850   556A      5.961192   557A      6.032623  
     558A      6.072191   559A      6.148135   560A      6.158516  
     561A      6.206130   562A      6.252857   563A      6.278683  
     564A      6.383822   565A      6.415056   566A      6.450143  
     567A      6.478742   568A      6.505537   569A      6.546202  
     570A      6.575666   571A      6.666393   572A      6.726270  
     573A      6.757603   574A      6.771044   575A      6.808283  
     576A      6.832883   577A      6.911385   578A      6.968003  
     579A      7.015438   580A      7.103034   581A      7.146014  
     582A      7.258189   583A      7.336369   584A      7.396940  
     585A      7.612562   586A      7.666780   587A      7.751699  
     588A      7.846150   589A      7.930657   590A     15.271761  
     591A     16.842175   592A     17.198213   593A     18.221838  
     594A     18.665967   595A     19.496867   596A     20.059555  
     597A     20.648217   598A     21.197085  

    Final Occupation by Irrep:
              A 
    DOCC [    32 ]

  @DF-RHF Final Energy:  -382.57031550368123

   => Energetics <=

    Nuclear Repulsion Energy =            398.2204858590505410
    One-Electron Energy =               -1307.6575674969860756
    Two-Electron Energy =                 526.8667661342542488
    Total Energy =                       -382.5703155036812859

Computation Completed

*** tstop() called on node37.bme.utexas.edu at Thu Nov  5 14:16:42 2020
Module time:
	user time   =     332.82 seconds =       5.55 minutes
	system time =      67.62 seconds =       1.13 minutes
	total time  =         89 seconds =       1.48 minutes
Total time:
	user time   =     332.82 seconds =       5.55 minutes
	system time =      67.62 seconds =       1.13 minutes
	total time  =         89 seconds =       1.48 minutes
   => Loading Basis Set <=

    Name: (AUG-CC-PVTZ AUX)
    Role: RIFIT
    Keyword: DF_BASIS_MP2
    atoms 1     entry O          line   264 file /home/xy3866/psi4conda/share/psi4/basis/aug-cc-pvtz-ri.gbs 
    atoms 2-9   entry C          line   148 file /home/xy3866/psi4conda/share/psi4/basis/aug-cc-pvtz-ri.gbs 
    atoms 10-17 entry H          line    30 file /home/xy3866/psi4conda/share/psi4/basis/aug-cc-pvtz-ri.gbs 


*** tstart() called on node37.bme.utexas.edu
*** at Thu Nov  5 14:16:43 2020


  //>>>>>>>>>>>>>>>>>>>>>>>>>>>>>>>>>>>//
  //               DFMP2               //
  //<<<<<<<<<<<<<<<<<<<<<<<<<<<<<<<<<<<//

	 --------------------------------------------------------
	                          DF-MP2                         
	      2nd-Order Density-Fitted Moller-Plesset Theory     
	              RMP2 Wavefunction,   8 Threads             
	                                                         
	        Rob Parrish, Justin Turney, Andy Simmonett,      
	           Ed Hohenstein, and C. David Sherrill          
	 --------------------------------------------------------

   => Auxiliary Basis Set <=

  Basis Set: (AUG-CC-PVTZ AUX)
    Blend: AUG-CC-PVTZ-RI
    Number of shells: 364
    Number of basis function: 1322
    Number of Cartesian functions: 1664
    Spherical Harmonics?: true
    Max angular momentum: 4

	 --------------------------------------------------------
	                 NBF =   598, NAUX =  1322
	 --------------------------------------------------------
	   CLASS    FOCC     OCC    AOCC    AVIR     VIR    FVIR
	   PAIRS       0      32      32     566     566       0
	 --------------------------------------------------------

  DFHelper Memory: AOs need 3.402 GiB; user supplied 22.352 GiB. Using in-core AOs.


         ------------------------------------------------------------
                                     CPHF                           
                                  Rob Parrish                       
         ------------------------------------------------------------

  ==> Geometry <==

    Molecular point group: c1
    Full point group: C1

    Geometry (in Angstrom), charge = 0, multiplicity = 1:

       Center              X                  Y                   Z               Mass       
    ------------   -----------------  -----------------  -----------------  -----------------
         O           -3.195911044362    -0.332901276899     0.006989614719    15.994914619570
         C            1.627435955638    -0.341978276899    -0.015144385281    12.000000000000
         C            0.448493855638    -0.840362676899    -0.009143085281    12.000000000000
         C           -0.802904044362    -0.215005276899    -0.001183385281    12.000000000000
         C            1.665749955638     1.058907723101    -0.006754385281    12.000000000000
         C           -0.750502044362     1.184750723101     0.006661614719    12.000000000000
         C            0.489626955638     1.816067723101     0.001575614719    12.000000000000
         C            2.898969955638    -1.149602276899     0.013702614719    12.000000000000
         C           -2.110367044362    -0.906265276899    -0.002274385281    12.000000000000
         H            0.316190955638    -2.056933276899    -0.019855385281     1.007825032230
         H            2.630043955638     1.565025723101    -0.014845385281     1.007825032230
         H           -1.680845044362     1.746743723101     0.010521614719     1.007825032230
         H            2.748874955638    -2.135149276899    -0.435478385281     1.007825032230
         H            3.698486955638    -0.643745276899    -0.534724385281     1.007825032230
         H            3.244949955638    -1.300602276899     1.041843614719     1.007825032230
         H            0.547869955638     2.901983723101     0.003305614719     1.007825032230
         H           -2.059208044362    -2.015577276899    -0.012150385281     1.007825032230

  Nuclear repulsion =  398.220485859050541
  Reference energy  = -382.570315503681229

  ==> Basis Set <==

  Basis Set: AUG-CC-PVTZ
    Blend: AUG-CC-PVTZ
    Number of shells: 198
    Number of basis function: 598
    Number of Cartesian functions: 695
    Spherical Harmonics?: true
    Max angular momentum: 3

  ==> CGRSolver (by Rob Parrish) <==

   Number of roots    =         1
   Preconditioning    =    JACOBI
   Convergence cutoff =     1E-06
   Maximum iterations =       100

  ==> CPHFRHamiltonian (by Rob Parrish) <== 

  ==> MemDFJK: Density-Fitted J/K Matrices <==

    J tasked:                   Yes
    K tasked:                   Yes
    wK tasked:                   No
    OpenMP threads:               8
    Memory [MiB]:             22888
    Algorithm:                 Disk
    Schwarz Cutoff:           1E-12
    Mask sparsity (%):       5.1358
    Fitting Condition:        1E-10

   => Auxiliary Basis Set <=

  Basis Set: (AUG-CC-PVTZ AUX)
    Blend: AUG-CC-PVTZ-JKFIT
    Number of shells: 382
    Number of basis function: 1304
    Number of Cartesian functions: 1619
    Spherical Harmonics?: true
    Max angular momentum: 4

  ==> CPHF Iterations <==

  => Iterations <=

             Iter  Converged  Remaining    Residual
  CGR           1          0          1   1.104E-01
  CGR           2          0          1   3.746E-02
  CGR           3          0          1   1.912E-02
  CGR           4          0          1   8.938E-03
  CGR           5          0          1   3.648E-03
  CGR           6          0          1   1.342E-03
  CGR           7          0          1   4.570E-04
  CGR           8          0          1   1.732E-04
  CGR           9          0          1   7.236E-05
  CGR          10          0          1   3.576E-05
  CGR          11          0          1   1.379E-05
  CGR          12          0          1   4.052E-06
  CGR          13          0          1   1.761E-06
  CGR          14          1          0   6.025E-07

    CGRSolver converged.

	-----------------------------------------------------------
	 ==================> DF-MP2 Energies <==================== 
	-----------------------------------------------------------
	 Reference Energy          =    -382.5703155036812291 [Eh]
	 Singles Energy            =      -0.0000000000000000 [Eh]
	 Same-Spin Energy          =      -0.4086168003205851 [Eh]
	 Opposite-Spin Energy      =      -1.2873605704038393 [Eh]
	 Correlation Energy        =      -1.6959773707244243 [Eh]
	 Total Energy              =    -384.2662928744056785 [Eh]
	-----------------------------------------------------------
	 ================> DF-SCS-MP2 Energies <================== 
	-----------------------------------------------------------
	 SCS Same-Spin Scale       =       0.3333333333333333 [-]
	 SCS Opposite-Spin Scale   =       1.2000000000000000 [-]
	 SCS Same-Spin Energy      =      -0.1362056001068617 [Eh]
	 SCS Opposite-Spin Energy  =      -1.5448326844846072 [Eh]
	 SCS Correlation Energy    =      -1.6810382845914689 [Eh]
	 SCS Total Energy          =    -384.2513537882726951 [Eh]
	-----------------------------------------------------------



Properties will be evaluated at   0.000000,   0.000000,   0.000000 [a0]

Properties computed using the MP2 density matrix

  Nuclear Dipole Moment: [e a0]
     X:     8.8403      Y:    -1.8187      Z:     0.0362

  Electronic Dipole Moment: [e a0]
     X:    -7.4142      Y:     1.6817      Z:    -0.0280

  Dipole Moment: [e a0]
     X:     1.4261      Y:    -0.1369      Z:     0.0082     Total:     1.4327

  Dipole Moment: [D]
     X:     3.6248      Y:    -0.3481      Z:     0.0210     Total:     3.6416


*** tstop() called on node37.bme.utexas.edu at Thu Nov  5 14:19:53 2020
Module time:
	user time   =     914.17 seconds =      15.24 minutes
	system time =     112.97 seconds =       1.88 minutes
	total time  =        190 seconds =       3.17 minutes
Total time:
	user time   =    1248.23 seconds =      20.80 minutes
	system time =     180.69 seconds =       3.01 minutes
	total time  =        280 seconds =       4.67 minutes

    Psi4 stopped on: Thursday, 05 November 2020 02:19PM
    Psi4 wall time for execution: 0:04:39.85

*** Psi4 exiting successfully. Buy a developer a beer!
