
    -----------------------------------------------------------------------
          Psi4: An Open-Source Ab Initio Electronic Structure Package
                               Psi4 1.4a2.dev612 

                         Git: Rev {master} 58d3bc0 


    D. G. A. Smith, L. A. Burns, A. C. Simmonett, R. M. Parrish,
    M. C. Schieber, R. Galvelis, P. Kraus, H. Kruse, R. Di Remigio,
    A. Alenaizan, A. M. James, S. Lehtola, J. P. Misiewicz, M. Scheurer,
    R. A. Shaw, J. B. Schriber, Y. Xie, Z. L. Glick, D. A. Sirianni,
    J. S. O'Brien, J. M. Waldrop, A. Kumar, E. G. Hohenstein,
    B. P. Pritchard, B. R. Brooks, H. F. Schaefer III, A. Yu. Sokolov,
    K. Patkowski, A. E. DePrince III, U. Bozkaya, R. A. King,
    F. A. Evangelista, J. M. Turney, T. D. Crawford, C. D. Sherrill,
    J. Chem. Phys. 152(18) 184108 (2020). https://doi.org/10.1063/5.0006002

                            Additional Code Authors
    E. T. Seidl, C. L. Janssen, E. F. Valeev, M. L. Leininger,
    J. F. Gonthier, R. M. Richard, H. R. McAlexander, M. Saitow, X. Wang,
    P. Verma, and M. H. Lechner

             Previous Authors, Complete List of Code Contributors,
                       and Citations for Specific Modules
    https://github.com/psi4/psi4/blob/master/codemeta.json
    https://github.com/psi4/psi4/graphs/contributors
    http://psicode.org/psi4manual/master/introduction.html#citing-psifour

    -----------------------------------------------------------------------


    Psi4 started on: Sunday, 31 January 2021 09:31PM

    Process ID: 103435
    Host:       node59.bme.utexas.edu
    PSIDATADIR: /home/xy3866/.conda/envs/test-rdkit/share/psi4
    Memory:     500.0 MiB
    Threads:    8
    
  ==> Input File <==

--------------------------------------------------------------------------
#psi4
#
memory 32 gb

molecule  {
0 1
  C        0.7388790     0.0000080     0.0000160
  C       -0.7388790     0.0000070    -0.0000030
  C        1.4536770     1.1178580    -0.4583850
  C       -1.4536820     1.1178570     0.4583930
  C        1.4536730    -1.1178550     0.4583870
  C       -1.4536670    -1.1178570    -0.4583770
  C        2.8487180     1.1182580    -0.4560040
  C       -2.8487240     1.1182560     0.4559960
  C        2.8487140    -1.1182560     0.4560110
  C       -2.8487090    -1.1182580    -0.4560170
  C        3.5507430    -0.0000070    -0.0000130
  C       -3.5507430    -0.0000100    -0.0000010
  H        0.9093800     1.9786560    -0.8416800
  H       -0.9075903     2.0570706     0.6577233
  H        0.9093690    -1.9786310     0.8417230
  H       -0.9093580    -1.9786330    -0.8417070
  H        3.3890490     1.9888130    -0.8209640
  H       -3.3890590     1.9888070     0.8209600
  H        3.3890420    -1.9888210     0.8209520
  H       -3.3890330    -1.9888240    -0.8209630
  H        4.6380810    -0.0000130    -0.0000190
  H       -4.6380810    -0.0000130    -0.0000170
units angstrom
no_reorient  #important for SAPT in psi4, default
symmetry c1  #important for SAPT in psi4, default
}

set PROPERTIES_ORIGIN ["COM"]
properties('MP2/aug-cc-pvtz', properties = ['dipole'])
--------------------------------------------------------------------------

  Memory set to  29.802 GiB by Python driver.
    SCF Algorithm Type (re)set to DF.

*** tstart() called on node59.bme.utexas.edu
*** at Sun Jan 31 21:31:18 2021

   => Loading Basis Set <=

    Name: AUG-CC-PVTZ
    Role: ORBITAL
    Keyword: BASIS
    atoms 1-12  entry C          line   239 file /home/xy3866/.conda/envs/test-rdkit/share/psi4/basis/aug-cc-pvtz.gbs 
    atoms 13-22 entry H          line    40 file /home/xy3866/.conda/envs/test-rdkit/share/psi4/basis/aug-cc-pvtz.gbs 


         ---------------------------------------------------------
                                   SCF
               by Justin Turney, Rob Parrish, Andy Simmonett
                          and Daniel G. A. Smith
                              RHF Reference
                        8 Threads,  30517 MiB Core
         ---------------------------------------------------------

  ==> Geometry <==

    Molecular point group: c1
    Full point group: C1

    Geometry (in Angstrom), charge = 0, multiplicity = 1:

       Center              X                  Y                   Z               Mass       
    ------------   -----------------  -----------------  -----------------  -----------------
         C            0.738867228172    -0.000504967749     0.001219255103    12.000000000000
         C           -0.738890771828    -0.000505967749     0.001200255103    12.000000000000
         C            1.453665228172     1.117345032251    -0.457181744897    12.000000000000
         C           -1.453693771828     1.117344032251     0.459596255103    12.000000000000
         C            1.453661228172    -1.118367967749     0.459590255103    12.000000000000
         C           -1.453678771828    -1.118369967749    -0.457173744897    12.000000000000
         C            2.848706228172     1.117745032251    -0.454800744897    12.000000000000
         C           -2.848735771828     1.117743032251     0.457199255103    12.000000000000
         C            2.848702228172    -1.118768967749     0.457214255103    12.000000000000
         C           -2.848720771828    -1.118770967749    -0.454813744897    12.000000000000
         C            3.550731228172    -0.000519967749     0.001190255103    12.000000000000
         C           -3.550754771828    -0.000522967749     0.001202255103    12.000000000000
         H            0.909368228172     1.978143032251    -0.840476744897     1.007825032230
         H           -0.907602071828     2.056557632251     0.658926555103     1.007825032230
         H            0.909357228172    -1.979143967749     0.842926255103     1.007825032230
         H           -0.909369771828    -1.979145967749    -0.840503744897     1.007825032230
         H            3.389037228172     1.988300032251    -0.819760744897     1.007825032230
         H           -3.389070771828     1.988294032251     0.822163255103     1.007825032230
         H            3.389030228172    -1.989333967749     0.822155255103     1.007825032230
         H           -3.389044771828    -1.989336967749    -0.819759744897     1.007825032230
         H            4.638069228172    -0.000525967749     0.001184255103     1.007825032230
         H           -4.638092771828    -0.000525967749     0.001186255103     1.007825032230

  Running in c1 symmetry.

  Rotational constants: A =      0.09502  B =      0.01822  C =      0.01603 [cm^-1]
  Rotational constants: A =   2848.59464  B =    546.35342  C =    480.53733 [MHz]
  Nuclear repulsion =  599.309102948412715

  Charge       = 0
  Multiplicity = 1
  Electrons    = 82
  Nalpha       = 41
  Nbeta        = 41

  ==> Algorithm <==

  SCF Algorithm Type is DF.
  DIIS enabled.
  MOM disabled.
  Fractional occupation disabled.
  Guess Type is SAD.
  Energy threshold   = 1.00e-10
  Density threshold  = 1.00e-10
  Integral threshold = 0.00e+00

  ==> Primary Basis <==

  Basis Set: AUG-CC-PVTZ
    Blend: AUG-CC-PVTZ
    Number of shells: 258
    Number of basis function: 782
    Number of Cartesian functions: 910
    Spherical Harmonics?: true
    Max angular momentum: 3

   => Loading Basis Set <=

    Name: (AUG-CC-PVTZ AUX)
    Role: JKFIT
    Keyword: DF_BASIS_SCF
    atoms 1-12  entry C          line   162 file /home/xy3866/.conda/envs/test-rdkit/share/psi4/basis/aug-cc-pvtz-jkfit.gbs 
    atoms 13-22 entry H          line    70 file /home/xy3866/.conda/envs/test-rdkit/share/psi4/basis/aug-cc-pvtz-jkfit.gbs 

  ==> Integral Setup <==

  DFHelper Memory: AOs need 7.281 GiB; user supplied 22.352 GiB. Using in-core AOs.

  ==> MemDFJK: Density-Fitted J/K Matrices <==

    J tasked:                   Yes
    K tasked:                   Yes
    wK tasked:                   No
    OpenMP threads:               8
    Memory [MiB]:             22888
    Algorithm:                 Core
    Schwarz Cutoff:           1E-12
    Mask sparsity (%):       8.7647
    Fitting Condition:        1E-10

   => Auxiliary Basis Set <=

  Basis Set: (AUG-CC-PVTZ AUX)
    Blend: AUG-CC-PVTZ-JKFIT
    Number of shells: 500
    Number of basis function: 1708
    Number of Cartesian functions: 2122
    Spherical Harmonics?: true
    Max angular momentum: 4

  Minimum eigenvalue in the overlap matrix is 3.2728314943E-07.
  Reciprocal condition number of the overlap matrix is 1.6176617374E-08.
    Using symmetric orthogonalization.

  ==> Pre-Iterations <==

  SCF Guess: Superposition of Atomic Densities via on-the-fly atomic UHF (no occupation information).

   -------------------------
    Irrep   Nso     Nmo    
   -------------------------
     A        782     782 
   -------------------------
    Total     782     782
   -------------------------

  ==> Iterations <==

                           Total Energy        Delta E     RMS |[F,P]|

   @DF-RHF iter SAD:  -459.84713516071861   -4.59847e+02   0.00000e+00 
   @DF-RHF iter   1:  -460.08062509523222   -2.33490e-01   9.09148e-04 DIIS
   @DF-RHF iter   2:  -460.34146220115758   -2.60837e-01   4.10885e-04 DIIS
   @DF-RHF iter   3:  -460.39484292048490   -5.33807e-02   7.75122e-05 DIIS
   @DF-RHF iter   4:  -460.39774524723578   -2.90233e-03   1.87198e-05 DIIS
   @DF-RHF iter   5:  -460.39786294065169   -1.17693e-04   9.27402e-06 DIIS
   @DF-RHF iter   6:  -460.39789305292493   -3.01123e-05   1.21730e-06 DIIS
   @DF-RHF iter   7:  -460.39789416248937   -1.10956e-06   3.76191e-07 DIIS
   @DF-RHF iter   8:  -460.39789428164477   -1.19155e-07   1.89028e-07 DIIS
   @DF-RHF iter   9:  -460.39789432589350   -4.42487e-08   7.95087e-08 DIIS
   @DF-RHF iter  10:  -460.39789433837797   -1.24845e-08   2.59884e-08 DIIS
   @DF-RHF iter  11:  -460.39789433943457   -1.05661e-09   1.30017e-08 DIIS
   @DF-RHF iter  12:  -460.39789433958964   -1.55069e-10   4.65041e-09 DIIS
   @DF-RHF iter  13:  -460.39789433960999   -2.03499e-11   1.06422e-09 DIIS
   @DF-RHF iter  14:  -460.39789433961084   -8.52651e-13   5.14853e-10 DIIS
   @DF-RHF iter  15:  -460.39789433961414   -3.29692e-12   2.15017e-10 DIIS
   @DF-RHF iter  16:  -460.39789433961619   -2.04636e-12   1.00513e-10 DIIS
   @DF-RHF iter  17:  -460.39789433961425    1.93268e-12   5.94386e-11 DIIS
  Energy and wave function converged.


  ==> Post-Iterations <==

    Orbital Energies [Eh]
    ---------------------

    Doubly Occupied:                                                      

       1A    -11.247825     2A    -11.247049     3A    -11.239434  
       4A    -11.239206     5A    -11.239158     6A    -11.238938  
       7A    -11.238140     8A    -11.236981     9A    -11.236968  
      10A    -11.236780    11A    -11.236542    12A    -11.236363  
      13A     -1.169670    14A     -1.140496    15A     -1.054094  
      16A     -1.019449    17A     -1.011237    18A     -0.982083  
      19A     -0.852142    20A     -0.841780    21A     -0.811308  
      22A     -0.789381    23A     -0.717587    24A     -0.680533  
      25A     -0.654331    26A     -0.639335    27A     -0.615906  
      28A     -0.608993    29A     -0.591003    30A     -0.584713  
      31A     -0.581958    32A     -0.521711    33A     -0.517087  
      34A     -0.502919    35A     -0.492357    36A     -0.484861  
      37A     -0.482367    38A     -0.366478    39A     -0.339034  
      40A     -0.338121    41A     -0.303670  

    Virtual:                                                              

      42A      0.028244    43A      0.030731    44A      0.031802  
      45A      0.039485    46A      0.041283    47A      0.049229  
      48A      0.051254    49A      0.056035    50A      0.061354  
      51A      0.064815    52A      0.085777    53A      0.090255  
      54A      0.092932    55A      0.095276    56A      0.101284  
      57A      0.103837    58A      0.104176    59A      0.112550  
      60A      0.113897    61A      0.115114    62A      0.115678  
      63A      0.123017    64A      0.124728    65A      0.125938  
      66A      0.128082    67A      0.130811    68A      0.133779  
      69A      0.135599    70A      0.138671    71A      0.147445  
      72A      0.147683    73A      0.151031    74A      0.155266  
      75A      0.155560    76A      0.157039    77A      0.160510  
      78A      0.161317    79A      0.162907    80A      0.176688  
      81A      0.180124    82A      0.183461    83A      0.191658  
      84A      0.194151    85A      0.198150    86A      0.208393  
      87A      0.210910    88A      0.214227    89A      0.233050  
      90A      0.237192    91A      0.238746    92A      0.241971  
      93A      0.248889    94A      0.253520    95A      0.255433  
      96A      0.262058    97A      0.265731    98A      0.268051  
      99A      0.271529   100A      0.273703   101A      0.275147  
     102A      0.289385   103A      0.293888   104A      0.296428  
     105A      0.299727   106A      0.301485   107A      0.303116  
     108A      0.306673   109A      0.309841   110A      0.312488  
     111A      0.313232   112A      0.320527   113A      0.322018  
     114A      0.330201   115A      0.330696   116A      0.331175  
     117A      0.338003   118A      0.340481   119A      0.342042  
     120A      0.350042   121A      0.360370   122A      0.361188  
     123A      0.365445   124A      0.369388   125A      0.372790  
     126A      0.377215   127A      0.379694   128A      0.391843  
     129A      0.395089   130A      0.415233   131A      0.418542  
     132A      0.420927   133A      0.429983   134A      0.430593  
     135A      0.431901   136A      0.437024   137A      0.442014  
     138A      0.445925   139A      0.449729   140A      0.451106  
     141A      0.453152   142A      0.455829   143A      0.467601  
     144A      0.470874   145A      0.476238   146A      0.482055  
     147A      0.482738   148A      0.483907   149A      0.484863  
     150A      0.487851   151A      0.492829   152A      0.493832  
     153A      0.495406   154A      0.497157   155A      0.498549  
     156A      0.501617   157A      0.507787   158A      0.512359  
     159A      0.517354   160A      0.520117   161A      0.522165  
     162A      0.523755   163A      0.528757   164A      0.531014  
     165A      0.533058   166A      0.537128   167A      0.538817  
     168A      0.541562   169A      0.545547   170A      0.546891  
     171A      0.548039   172A      0.556161   173A      0.560381  
     174A      0.561640   175A      0.564135   176A      0.583531  
     177A      0.587436   178A      0.590346   179A      0.591921  
     180A      0.597766   181A      0.608354   182A      0.610868  
     183A      0.618269   184A      0.628453   185A      0.629965  
     186A      0.642861   187A      0.644704   188A      0.649422  
     189A      0.661873   190A      0.664868   191A      0.674286  
     192A      0.674715   193A      0.688048   194A      0.693359  
     195A      0.698663   196A      0.700551   197A      0.704844  
     198A      0.707754   199A      0.712140   200A      0.715249  
     201A      0.720597   202A      0.724004   203A      0.727190  
     204A      0.732963   205A      0.742018   206A      0.745230  
     207A      0.749977   208A      0.755004   209A      0.765214  
     210A      0.769767   211A      0.775464   212A      0.778716  
     213A      0.792831   214A      0.800091   215A      0.809969  
     216A      0.814320   217A      0.822470   218A      0.834678  
     219A      0.838930   220A      0.842286   221A      0.850267  
     222A      0.857508   223A      0.861265   224A      0.864536  
     225A      0.873475   226A      0.874456   227A      0.879203  
     228A      0.881055   229A      0.885732   230A      0.887676  
     231A      0.892775   232A      0.894861   233A      0.898124  
     234A      0.902176   235A      0.909853   236A      0.911873  
     237A      0.915282   238A      0.919268   239A      0.924116  
     240A      0.927824   241A      0.930757   242A      0.932730  
     243A      0.939452   244A      0.943494   245A      0.955354  
     246A      0.960092   247A      0.963234   248A      0.968139  
     249A      0.974707   250A      0.975253   251A      0.987105  
     252A      0.990251   253A      0.995512   254A      1.003591  
     255A      1.006892   256A      1.009989   257A      1.011347  
     258A      1.018777   259A      1.032340   260A      1.036308  
     261A      1.038252   262A      1.041876   263A      1.045543  
     264A      1.052672   265A      1.054542   266A      1.063118  
     267A      1.066778   268A      1.068570   269A      1.077069  
     270A      1.078165   271A      1.080996   272A      1.083301  
     273A      1.084079   274A      1.087811   275A      1.097703  
     276A      1.100023   277A      1.103613   278A      1.110737  
     279A      1.115266   280A      1.120887   281A      1.128181  
     282A      1.132077   283A      1.137946   284A      1.140989  
     285A      1.144444   286A      1.148062   287A      1.160983  
     288A      1.161725   289A      1.168204   290A      1.171582  
     291A      1.172424   292A      1.173443   293A      1.182406  
     294A      1.187007   295A      1.189637   296A      1.192753  
     297A      1.195947   298A      1.199079   299A      1.209463  
     300A      1.215396   301A      1.217935   302A      1.221919  
     303A      1.229576   304A      1.231974   305A      1.237566  
     306A      1.247736   307A      1.253515   308A      1.254076  
     309A      1.258006   310A      1.263782   311A      1.266745  
     312A      1.267967   313A      1.274505   314A      1.286540  
     315A      1.301990   316A      1.303491   317A      1.307430  
     318A      1.319991   319A      1.322338   320A      1.337233  
     321A      1.341379   322A      1.346949   323A      1.354388  
     324A      1.365043   325A      1.371605   326A      1.371812  
     327A      1.384540   328A      1.386394   329A      1.394747  
     330A      1.399150   331A      1.405091   332A      1.418039  
     333A      1.424394   334A      1.428221   335A      1.429982  
     336A      1.443816   337A      1.446215   338A      1.456472  
     339A      1.466320   340A      1.478474   341A      1.482566  
     342A      1.487510   343A      1.490438   344A      1.494816  
     345A      1.514840   346A      1.519624   347A      1.526979  
     348A      1.531852   349A      1.542352   350A      1.549152  
     351A      1.567172   352A      1.569772   353A      1.572267  
     354A      1.576227   355A      1.581885   356A      1.588655  
     357A      1.595945   358A      1.602565   359A      1.617378  
     360A      1.631260   361A      1.640808   362A      1.646603  
     363A      1.667264   364A      1.685013   365A      1.692749  
     366A      1.704091   367A      1.707458   368A      1.714662  
     369A      1.721128   370A      1.723760   371A      1.729090  
     372A      1.735207   373A      1.744830   374A      1.748260  
     375A      1.757869   376A      1.764395   377A      1.772399  
     378A      1.774817   379A      1.796972   380A      1.801449  
     381A      1.814413   382A      1.819807   383A      1.821991  
     384A      1.826457   385A      1.832592   386A      1.838967  
     387A      1.844977   388A      1.847698   389A      1.857436  
     390A      1.863101   391A      1.876051   392A      1.887720  
     393A      1.898587   394A      1.905456   395A      1.911764  
     396A      1.916614   397A      1.920788   398A      1.929167  
     399A      1.935474   400A      1.944064   401A      1.951611  
     402A      1.966550   403A      1.978103   404A      1.985157  
     405A      1.987893   406A      1.997025   407A      2.002888  
     408A      2.005715   409A      2.015625   410A      2.025781  
     411A      2.029290   412A      2.036007   413A      2.040827  
     414A      2.043377   415A      2.049558   416A      2.055985  
     417A      2.062074   418A      2.065076   419A      2.073619  
     420A      2.092392   421A      2.095002   422A      2.101545  
     423A      2.104692   424A      2.118021   425A      2.123898  
     426A      2.127316   427A      2.134043   428A      2.150517  
     429A      2.163832   430A      2.173112   431A      2.174085  
     432A      2.181684   433A      2.191098   434A      2.193499  
     435A      2.196494   436A      2.223950   437A      2.231484  
     438A      2.239778   439A      2.247559   440A      2.254221  
     441A      2.269473   442A      2.290590   443A      2.304838  
     444A      2.307022   445A      2.323846   446A      2.327035  
     447A      2.339153   448A      2.341284   449A      2.354479  
     450A      2.369164   451A      2.371547   452A      2.377611  
     453A      2.383182   454A      2.390878   455A      2.401610  
     456A      2.406018   457A      2.414177   458A      2.426183  
     459A      2.428400   460A      2.448192   461A      2.460304  
     462A      2.467763   463A      2.491696   464A      2.493065  
     465A      2.524777   466A      2.533021   467A      2.542142  
     468A      2.552690   469A      2.566354   470A      2.569380  
     471A      2.593188   472A      2.605340   473A      2.609891  
     474A      2.627494   475A      2.630154   476A      2.652213  
     477A      2.665562   478A      2.689961   479A      2.726753  
     480A      2.751868   481A      2.755972   482A      2.760769  
     483A      2.775369   484A      2.785150   485A      2.813369  
     486A      2.830878   487A      2.847513   488A      2.861928  
     489A      2.868902   490A      2.874135   491A      2.930074  
     492A      2.952320   493A      2.981917   494A      3.046635  
     495A      3.059264   496A      3.067561   497A      3.080483  
     498A      3.175247   499A      3.183690   500A      3.185518  
     501A      3.190186   502A      3.207127   503A      3.216562  
     504A      3.220570   505A      3.242697   506A      3.265892  
     507A      3.289944   508A      3.296070   509A      3.313100  
     510A      3.316985   511A      3.333454   512A      3.356629  
     513A      3.364204   514A      3.369710   515A      3.375669  
     516A      3.380004   517A      3.384880   518A      3.388870  
     519A      3.395086   520A      3.405673   521A      3.437393  
     522A      3.443578   523A      3.446576   524A      3.449812  
     525A      3.458433   526A      3.459864   527A      3.470820  
     528A      3.474657   529A      3.492034   530A      3.499311  
     531A      3.512436   532A      3.525388   533A      3.526741  
     534A      3.535579   535A      3.546643   536A      3.552551  
     537A      3.560414   538A      3.564920   539A      3.568173  
     540A      3.577430   541A      3.581626   542A      3.592178  
     543A      3.595150   544A      3.602324   545A      3.614828  
     546A      3.619527   547A      3.631034   548A      3.633716  
     549A      3.640237   550A      3.653591   551A      3.673920  
     552A      3.696478   553A      3.704025   554A      3.710098  
     555A      3.717112   556A      3.726159   557A      3.743598  
     558A      3.755262   559A      3.764855   560A      3.771106  
     561A      3.791035   562A      3.798411   563A      3.800046  
     564A      3.809058   565A      3.825590   566A      3.828906  
     567A      3.834707   568A      3.841817   569A      3.849741  
     570A      3.860557   571A      3.863437   572A      3.874844  
     573A      3.880528   574A      3.882187   575A      3.900080  
     576A      3.914205   577A      3.917317   578A      3.923881  
     579A      3.928441   580A      3.943230   581A      3.956614  
     582A      3.966970   583A      3.975341   584A      3.975443  
     585A      3.981406   586A      3.990808   587A      3.997858  
     588A      4.008812   589A      4.019018   590A      4.024391  
     591A      4.030178   592A      4.034525   593A      4.047059  
     594A      4.049580   595A      4.056734   596A      4.063131  
     597A      4.079104   598A      4.082757   599A      4.086649  
     600A      4.096207   601A      4.112538   602A      4.115732  
     603A      4.127446   604A      4.134579   605A      4.142912  
     606A      4.156587   607A      4.167499   608A      4.173658  
     609A      4.195122   610A      4.197541   611A      4.208287  
     612A      4.222635   613A      4.231289   614A      4.248336  
     615A      4.255173   616A      4.263221   617A      4.265493  
     618A      4.276510   619A      4.280155   620A      4.288912  
     621A      4.300643   622A      4.317391   623A      4.327696  
     624A      4.338548   625A      4.345496   626A      4.354831  
     627A      4.365624   628A      4.374833   629A      4.378639  
     630A      4.384239   631A      4.399703   632A      4.400633  
     633A      4.406506   634A      4.416424   635A      4.420889  
     636A      4.438345   637A      4.442100   638A      4.449217  
     639A      4.458169   640A      4.462129   641A      4.471587  
     642A      4.478529   643A      4.487262   644A      4.489079  
     645A      4.498597   646A      4.502680   647A      4.511679  
     648A      4.522593   649A      4.523742   650A      4.533663  
     651A      4.540739   652A      4.594884   653A      4.621099  
     654A      4.628960   655A      4.635041   656A      4.650767  
     657A      4.673081   658A      4.702353   659A      4.713685  
     660A      4.719709   661A      4.722643   662A      4.729301  
     663A      4.751136   664A      4.753211   665A      4.760763  
     666A      4.766929   667A      4.772497   668A      4.782618  
     669A      4.791168   670A      4.810224   671A      4.832054  
     672A      4.852831   673A      4.878164   674A      4.890923  
     675A      4.898851   676A      4.918342   677A      4.937224  
     678A      4.954155   679A      4.968055   680A      4.987808  
     681A      4.995155   682A      5.004771   683A      5.015768  
     684A      5.017186   685A      5.026200   686A      5.049388  
     687A      5.052415   688A      5.072935   689A      5.084788  
     690A      5.091493   691A      5.095178   692A      5.100206  
     693A      5.121779   694A      5.125651   695A      5.141243  
     696A      5.148154   697A      5.152471   698A      5.158264  
     699A      5.167050   700A      5.176501   701A      5.179900  
     702A      5.184030   703A      5.187821   704A      5.212235  
     705A      5.232165   706A      5.241758   707A      5.260047  
     708A      5.279483   709A      5.283322   710A      5.300168  
     711A      5.316627   712A      5.323408   713A      5.340103  
     714A      5.349280   715A      5.352204   716A      5.360500  
     717A      5.373660   718A      5.390052   719A      5.397929  
     720A      5.420269   721A      5.432932   722A      5.437635  
     723A      5.483261   724A      5.502261   725A      5.521583  
     726A      5.532582   727A      5.551205   728A      5.598875  
     729A      5.620030   730A      5.627938   731A      5.677764  
     732A      5.726971   733A      5.748182   734A      5.762967  
     735A      5.796435   736A      5.800305   737A      5.821649  
     738A      5.826806   739A      5.846597   740A      5.915609  
     741A      5.965795   742A      6.025639   743A      6.158255  
     744A      6.176134   745A      6.182249   746A      6.201967  
     747A      6.212649   748A      6.253471   749A      6.270313  
     750A      6.274833   751A      6.302688   752A      6.329503  
     753A      6.373206   754A      6.385298   755A      6.443276  
     756A      6.470000   757A      6.523479   758A      6.580169  
     759A      6.614340   760A      6.617813   761A      6.759462  
     762A      6.798447   763A      6.889325   764A      6.901526  
     765A      6.980301   766A      7.018069   767A      7.105216  
     768A      7.192313   769A      7.301659   770A      7.352921  
     771A     16.019487   772A     16.134424   773A     16.167005  
     774A     16.713112   775A     18.365548   776A     18.942295  
     777A     19.013761   778A     19.021963   779A     19.908050  
     780A     20.071158   781A     20.114257   782A     21.705375  

    Final Occupation by Irrep:
              A 
    DOCC [    41 ]

  @DF-RHF Final Energy:  -460.39789433961425

   => Energetics <=

    Nuclear Repulsion Energy =            599.3091029484127148
    One-Electron Energy =               -1810.2780149170810091
    Two-Electron Energy =                 750.5710176290539266
    Total Energy =                       -460.3978943396142540

Computation Completed

*** tstop() called on node59.bme.utexas.edu at Sun Jan 31 21:32:11 2021
Module time:
	user time   =     379.98 seconds =       6.33 minutes
	system time =       8.98 seconds =       0.15 minutes
	total time  =         53 seconds =       0.88 minutes
Total time:
	user time   =     379.98 seconds =       6.33 minutes
	system time =       8.98 seconds =       0.15 minutes
	total time  =         53 seconds =       0.88 minutes
   => Loading Basis Set <=

    Name: (AUG-CC-PVTZ AUX)
    Role: RIFIT
    Keyword: DF_BASIS_MP2
    atoms 1-12  entry C          line   148 file /home/xy3866/.conda/envs/test-rdkit/share/psi4/basis/aug-cc-pvtz-ri.gbs 
    atoms 13-22 entry H          line    30 file /home/xy3866/.conda/envs/test-rdkit/share/psi4/basis/aug-cc-pvtz-ri.gbs 


*** tstart() called on node59.bme.utexas.edu
*** at Sun Jan 31 21:32:12 2021


  //>>>>>>>>>>>>>>>>>>>>>>>>>>>>>>>>>>>//
  //               DFMP2               //
  //<<<<<<<<<<<<<<<<<<<<<<<<<<<<<<<<<<<//

	 --------------------------------------------------------
	                          DF-MP2                         
	      2nd-Order Density-Fitted Moller-Plesset Theory     
	              RMP2 Wavefunction,   8 Threads             
	                                                         
	        Rob Parrish, Justin Turney, Andy Simmonett,      
	           Ed Hohenstein, and C. David Sherrill          
	 --------------------------------------------------------

   => Auxiliary Basis Set <=

  Basis Set: (AUG-CC-PVTZ AUX)
    Blend: AUG-CC-PVTZ-RI
    Number of shells: 476
    Number of basis function: 1732
    Number of Cartesian functions: 2182
    Spherical Harmonics?: true
    Max angular momentum: 4

	 --------------------------------------------------------
	                 NBF =   782, NAUX =  1732
	 --------------------------------------------------------
	   CLASS    FOCC     OCC    AOCC    AVIR     VIR    FVIR
	   PAIRS       0      41      41     741     741       0
	 --------------------------------------------------------

  DFHelper Memory: AOs need 7.281 GiB; user supplied 22.352 GiB. Using in-core AOs.


         ------------------------------------------------------------
                                     CPHF                           
                                  Rob Parrish                       
         ------------------------------------------------------------

  ==> Geometry <==

    Molecular point group: c1
    Full point group: C1

    Geometry (in Angstrom), charge = 0, multiplicity = 1:

       Center              X                  Y                   Z               Mass       
    ------------   -----------------  -----------------  -----------------  -----------------
         C            0.738867228172    -0.000504967749     0.001219255103    12.000000000000
         C           -0.738890771828    -0.000505967749     0.001200255103    12.000000000000
         C            1.453665228172     1.117345032251    -0.457181744897    12.000000000000
         C           -1.453693771828     1.117344032251     0.459596255103    12.000000000000
         C            1.453661228172    -1.118367967749     0.459590255103    12.000000000000
         C           -1.453678771828    -1.118369967749    -0.457173744897    12.000000000000
         C            2.848706228172     1.117745032251    -0.454800744897    12.000000000000
         C           -2.848735771828     1.117743032251     0.457199255103    12.000000000000
         C            2.848702228172    -1.118768967749     0.457214255103    12.000000000000
         C           -2.848720771828    -1.118770967749    -0.454813744897    12.000000000000
         C            3.550731228172    -0.000519967749     0.001190255103    12.000000000000
         C           -3.550754771828    -0.000522967749     0.001202255103    12.000000000000
         H            0.909368228172     1.978143032251    -0.840476744897     1.007825032230
         H           -0.907602071828     2.056557632251     0.658926555103     1.007825032230
         H            0.909357228172    -1.979143967749     0.842926255103     1.007825032230
         H           -0.909369771828    -1.979145967749    -0.840503744897     1.007825032230
         H            3.389037228172     1.988300032251    -0.819760744897     1.007825032230
         H           -3.389070771828     1.988294032251     0.822163255103     1.007825032230
         H            3.389030228172    -1.989333967749     0.822155255103     1.007825032230
         H           -3.389044771828    -1.989336967749    -0.819759744897     1.007825032230
         H            4.638069228172    -0.000525967749     0.001184255103     1.007825032230
         H           -4.638092771828    -0.000525967749     0.001186255103     1.007825032230

  Nuclear repulsion =  599.309102948412715
  Reference energy  = -460.397894339614254

  ==> Basis Set <==

  Basis Set: AUG-CC-PVTZ
    Blend: AUG-CC-PVTZ
    Number of shells: 258
    Number of basis function: 782
    Number of Cartesian functions: 910
    Spherical Harmonics?: true
    Max angular momentum: 3

  ==> CGRSolver (by Rob Parrish) <==

   Number of roots    =         1
   Preconditioning    =    JACOBI
   Convergence cutoff =     1E-06
   Maximum iterations =       100

  ==> CPHFRHamiltonian (by Rob Parrish) <== 

  ==> MemDFJK: Density-Fitted J/K Matrices <==

    J tasked:                   Yes
    K tasked:                   Yes
    wK tasked:                   No
    OpenMP threads:               8
    Memory [MiB]:             22888
    Algorithm:                 Core
    Schwarz Cutoff:           1E-12
    Mask sparsity (%):       8.7647
    Fitting Condition:        1E-10

   => Auxiliary Basis Set <=

  Basis Set: (AUG-CC-PVTZ AUX)
    Blend: AUG-CC-PVTZ-JKFIT
    Number of shells: 500
    Number of basis function: 1708
    Number of Cartesian functions: 2122
    Spherical Harmonics?: true
    Max angular momentum: 4

  ==> CPHF Iterations <==

  => Iterations <=

             Iter  Converged  Remaining    Residual
  CGR           1          0          1   7.250E-02
  CGR           2          0          1   1.374E-02
  CGR           3          0          1   5.233E-03
  CGR           4          0          1   2.758E-03
  CGR           5          0          1   1.171E-03
  CGR           6          0          1   3.713E-04
  CGR           7          0          1   1.433E-04
  CGR           8          0          1   3.668E-05
  CGR           9          0          1   8.768E-06
  CGR          10          0          1   3.787E-06
  CGR          11          0          1   1.412E-06
  CGR          12          1          0   4.544E-07

    CGRSolver converged.

	-----------------------------------------------------------
	 ==================> DF-MP2 Energies <==================== 
	-----------------------------------------------------------
	 Reference Energy          =    -460.3978943396142540 [Eh]
	 Singles Energy            =      -0.0000000000000000 [Eh]
	 Same-Spin Energy          =      -0.5214351515711410 [Eh]
	 Opposite-Spin Energy      =      -1.6235670990514088 [Eh]
	 Correlation Energy        =      -2.1450022506225497 [Eh]
	 Total Energy              =    -462.5428965902368077 [Eh]
	-----------------------------------------------------------
	 ================> DF-SCS-MP2 Energies <================== 
	-----------------------------------------------------------
	 SCS Same-Spin Scale       =       0.3333333333333333 [-]
	 SCS Opposite-Spin Scale   =       1.2000000000000000 [-]
	 SCS Same-Spin Energy      =      -0.1738117171903803 [Eh]
	 SCS Opposite-Spin Energy  =      -1.9482805188616905 [Eh]
	 SCS Correlation Energy    =      -2.1220922360520706 [Eh]
	 SCS Total Energy          =    -462.5199865756663371 [Eh]
	-----------------------------------------------------------



Properties will be evaluated at  -0.000000,   0.000000,   0.000000 [a0]

Properties computed using the MP2 density matrix

  Nuclear Dipole Moment: [e a0]
     X:     0.0016      Y:     0.0687      Z:    -0.1612

  Electronic Dipole Moment: [e a0]
     X:    -0.0042      Y:    -0.0613      Z:     0.1168

  Dipole Moment: [e a0]
     X:    -0.0027      Y:     0.0074      Z:    -0.0444     Total:     0.0451

  Dipole Moment: [D]
     X:    -0.0068      Y:     0.0187      Z:    -0.1129     Total:     0.1147


*** tstop() called on node59.bme.utexas.edu at Sun Jan 31 21:36:10 2021
Module time:
	user time   =    1619.79 seconds =      27.00 minutes
	system time =      27.62 seconds =       0.46 minutes
	total time  =        238 seconds =       3.97 minutes
Total time:
	user time   =    2000.02 seconds =      33.33 minutes
	system time =      36.60 seconds =       0.61 minutes
	total time  =        292 seconds =       4.87 minutes

    Psi4 stopped on: Sunday, 31 January 2021 09:36PM
    Psi4 wall time for execution: 0:04:52.61

*** Psi4 exiting successfully. Buy a developer a beer!
