opt=Tight                                                               
Freq      RMP2-FC                                                     6-31G(d)            
Number of atoms                            I                6
Info1-9                                    I   N=           9
          15          15        1002           0           0         100
           6           2           1
Charge                                     I               -1
Multiplicity                               I                1
Number of electrons                        I               32
Number of alpha electrons                  I               16
Number of beta electrons                   I               16
Number of basis functions                  I               64
Number of independent functions            I               64
Number of point charges in /Mol/           I                0
Number of translation vectors              I                0
Atomic numbers                             I   N=           6
           8           8           7           6           1           1
Nuclear charges                            R   N=           6
  8.00000000E+00  8.00000000E+00  7.00000000E+00  6.00000000E+00  1.00000000E+00
  1.00000000E+00
Current cartesian coordinates              R   N=          18
 -1.33685894E+00  2.15574305E+00  1.65024700E-02 -1.33685930E+00 -2.15574284E+00
  1.65024508E-02  2.41101466E+00 -1.89852765E-07 -1.99387962E-01 -3.03514287E-01
 -6.86559908E-23 -6.44544500E-03  3.16686438E+00 -1.57907126E+00  5.85174649E-01
  3.16686462E+00  1.57907089E+00  5.85174391E-01
Force Field                                I                0
Int Atom Types                             I   N=           6
           0           0           0           0           0           0
MM charges                                 R   N=           6
  0.00000000E+00  0.00000000E+00  0.00000000E+00  0.00000000E+00  0.00000000E+00
  0.00000000E+00
Integer atomic weights                     I   N=           6
          16          16          14          12           1           1
Real atomic weights                        R   N=           6
  1.59949146E+01  1.59949146E+01  1.40030740E+01  1.20000000E+01  1.00782504E+00
  1.00782504E+00
Atom fragment info                         I   N=           6
           0           0           0           0           0           0
Atom residue num                           I   N=           6
           0           0           0           0           0           0
Nuclear spins                              I   N=           6
           0           0           2           0           1           1
Nuclear ZEff                               R   N=           6
 -5.60000000E+00 -5.60000000E+00 -4.55000000E+00 -3.60000000E+00 -1.00000000E+00
 -1.00000000E+00
Nuclear QMom                               R   N=           6
  0.00000000E+00  0.00000000E+00  2.04400000E+00  0.00000000E+00  0.00000000E+00
  0.00000000E+00
Nuclear GFac                               R   N=           6
  0.00000000E+00  0.00000000E+00  4.03761000E-01  0.00000000E+00  2.79284600E+00
  2.79284600E+00
MicOpt                                     I   N=           6
          -1          -1          -1          -1          -1          -1
Number of contracted shells                I               20
Number of primitive shells                 I               52
Pure/Cartesian d shells                    I                1
Pure/Cartesian f shells                    I                0
Highest angular momentum                   I                2
Largest degree of contraction              I                6
Shell types                                I   N=          20
           0          -1          -1           2           0          -1
          -1           2           0          -1          -1           2
           0          -1          -1           2           0           0
           0           0
Number of primitives per shell             I   N=          20
           6           3           1           1           6           3
           1           1           6           3           1           1
           6           3           1           1           3           1
           3           1
Shell to atom map                          I   N=          20
           1           1           1           1           2           2
           2           2           3           3           3           3
           4           4           4           4           5           5
           6           6
Primitive exponents                        R   N=          52
  5.48467166E+03  8.25234946E+02  1.88046958E+02  5.29645000E+01  1.68975704E+01
  5.79963534E+00  1.55396162E+01  3.59993359E+00  1.01376175E+00  2.70005823E-01
  8.00000000E-01  5.48467166E+03  8.25234946E+02  1.88046958E+02  5.29645000E+01
  1.68975704E+01  5.79963534E+00  1.55396162E+01  3.59993359E+00  1.01376175E+00
  2.70005823E-01  8.00000000E-01  4.17351146E+03  6.27457911E+02  1.42902093E+02
  4.02343293E+01  1.28202129E+01  4.39043701E+00  1.16263619E+01  2.71627981E+00
  7.72218397E-01  2.12031498E-01  8.00000000E-01  3.04752488E+03  4.57369518E+02
  1.03948685E+02  2.92101553E+01  9.28666296E+00  3.16392696E+00  7.86827235E+00
  1.88128854E+00  5.44249258E-01  1.68714478E-01  8.00000000E-01  1.87311370E+01
  2.82539436E+00  6.40121692E-01  1.61277759E-01  1.87311370E+01  2.82539436E+00
  6.40121692E-01  1.61277759E-01
Contraction coefficients                   R   N=          52
  1.83107443E-03  1.39501722E-02  6.84450781E-02  2.32714336E-01  4.70192898E-01
  3.58520853E-01 -1.10777550E-01 -1.48026263E-01  1.13076702E+00  1.00000000E+00
  1.00000000E+00  1.83107443E-03  1.39501722E-02  6.84450781E-02  2.32714336E-01
  4.70192898E-01  3.58520853E-01 -1.10777550E-01 -1.48026263E-01  1.13076702E+00
  1.00000000E+00  1.00000000E+00  1.83477216E-03  1.39946270E-02  6.85865518E-02
  2.32240873E-01  4.69069948E-01  3.60455199E-01 -1.14961182E-01 -1.69117479E-01
  1.14585195E+00  1.00000000E+00  1.00000000E+00  1.83473713E-03  1.40373228E-02
  6.88426223E-02  2.32184443E-01  4.67941348E-01  3.62311985E-01 -1.19332420E-01
 -1.60854152E-01  1.14345644E+00  1.00000000E+00  1.00000000E+00  3.34946043E-02
  2.34726953E-01  8.13757326E-01  1.00000000E+00  3.34946043E-02  2.34726953E-01
  8.13757326E-01  1.00000000E+00
P(S=P) Contraction coefficients            R   N=          52
  0.00000000E+00  0.00000000E+00  0.00000000E+00  0.00000000E+00  0.00000000E+00
  0.00000000E+00  7.08742682E-02  3.39752839E-01  7.27158577E-01  1.00000000E+00
  0.00000000E+00  0.00000000E+00  0.00000000E+00  0.00000000E+00  0.00000000E+00
  0.00000000E+00  0.00000000E+00  7.08742682E-02  3.39752839E-01  7.27158577E-01
  1.00000000E+00  0.00000000E+00  0.00000000E+00  0.00000000E+00  0.00000000E+00
  0.00000000E+00  0.00000000E+00  0.00000000E+00  6.75797439E-02  3.23907296E-01
  7.40895140E-01  1.00000000E+00  0.00000000E+00  0.00000000E+00  0.00000000E+00
  0.00000000E+00  0.00000000E+00  0.00000000E+00  0.00000000E+00  6.89990666E-02
  3.16423961E-01  7.44308291E-01  1.00000000E+00  0.00000000E+00  0.00000000E+00
  0.00000000E+00  0.00000000E+00  0.00000000E+00  0.00000000E+00  0.00000000E+00
  0.00000000E+00  0.00000000E+00
Coordinates of each shell                  R   N=          60
 -1.33685894E+00  2.15574305E+00  1.65024700E-02 -1.33685894E+00  2.15574305E+00
  1.65024700E-02 -1.33685894E+00  2.15574305E+00  1.65024700E-02 -1.33685894E+00
  2.15574305E+00  1.65024700E-02 -1.33685930E+00 -2.15574284E+00  1.65024508E-02
 -1.33685930E+00 -2.15574284E+00  1.65024508E-02 -1.33685930E+00 -2.15574284E+00
  1.65024508E-02 -1.33685930E+00 -2.15574284E+00  1.65024508E-02  2.41101466E+00
 -1.89852765E-07 -1.99387962E-01  2.41101466E+00 -1.89852765E-07 -1.99387962E-01
  2.41101466E+00 -1.89852765E-07 -1.99387962E-01  2.41101466E+00 -1.89852765E-07
 -1.99387962E-01 -3.03514287E-01 -5.54211010E-23 -6.44544500E-03 -3.03514287E-01
 -5.54211010E-23 -6.44544500E-03 -3.03514287E-01 -5.54211010E-23 -6.44544500E-03
 -3.03514287E-01 -5.54211010E-23 -6.44544500E-03  3.16686438E+00 -1.57907126E+00
  5.85174649E-01  3.16686438E+00 -1.57907126E+00  5.85174649E-01  3.16686462E+00
  1.57907089E+00  5.85174391E-01  3.16686462E+00  1.57907089E+00  5.85174391E-01
Constraint Structure                       R   N=          18
 -1.33685894E+00  2.15574305E+00  1.65024700E-02 -1.33685930E+00 -2.15574284E+00
  1.65024508E-02  2.41101466E+00 -1.89852765E-07 -1.99387962E-01 -3.03514287E-01
 -5.54211010E-23 -6.44544500E-03  3.16686438E+00 -1.57907126E+00  5.85174649E-01
  3.16686462E+00  1.57907089E+00  5.85174391E-01
Num ILSW                                   I              100
ILSW                                       I   N=         100
           0           1           0           0           2           0
           0           0           0           0           0          -1
           0           0           0           0           0           0
           0           0           0           0           1           0
           1           0           0           0           0           0
           0           0      100000           0          -1           0
           0           0           0           0           0           0
           0           0           0           1           1           0
           0           0           1           0           0           0
           0           0           4          40           0           0
           0           0           0           0           0           0
           0           0           0           0           0           0
           0           0           0           0           0           0
           0           0           0           0           0           0
           0           0           0           0           0           0
           0           0           0           0           0           0
           0           0           0           0
Num RLSW                                   I               40
RLSW                                       R   N=          40
  1.00000000E+00  1.00000000E+00  1.00000000E+00  1.00000000E+00  1.00000000E+00
  0.00000000E+00  0.00000000E+00  1.00000000E+00  0.00000000E+00  0.00000000E+00
  0.00000000E+00  0.00000000E+00  1.00000000E+00  0.00000000E+00  0.00000000E+00
  0.00000000E+00  0.00000000E+00  1.00000000E+00  0.00000000E+00  0.00000000E+00
  0.00000000E+00  0.00000000E+00  1.00000000E+00  0.00000000E+00  0.00000000E+00
  0.00000000E+00  0.00000000E+00  1.00000000E+00  0.00000000E+00  0.00000000E+00
  0.00000000E+00  0.00000000E+00  0.00000000E+00  0.00000000E+00  0.00000000E+00
  0.00000000E+00  0.00000000E+00  0.00000000E+00  1.00000000E+00  1.00000000E+00
MxBond                                     I                3
NBond                                      I   N=           6
           1           1           3           3           1           1
IBond                                      I   N=          18
           4           0           0           4           0           0
           4           5           6           1           2           3
           3           0           0           3           0           0
RBond                                      R   N=          18
  2.00000000E+00  0.00000000E+00  0.00000000E+00  2.00000000E+00  0.00000000E+00
  0.00000000E+00  1.00000000E+00  1.00000000E+00  1.00000000E+00  2.00000000E+00
  2.00000000E+00  1.00000000E+00  1.00000000E+00  0.00000000E+00  0.00000000E+00
  1.00000000E+00  0.00000000E+00  0.00000000E+00
Virial Ratio                               R      2.003308296918697E+00
SCF Energy                                 R     -2.433444666929580E+02
MP2 Energy                                 R     -2.439876552070333E+02
Total Energy                               R     -2.439876552070333E+02
Post-SCF wavefunction norm                 R      1.540439427546817E+00
RMS Force                                  R      3.123590491533394E-06
RMS Density                                R      4.065111150635459E-10
External E-field                           R   N=          35
  0.00000000E+00  0.00000000E+00  0.00000000E+00  0.00000000E+00  0.00000000E+00
  0.00000000E+00  0.00000000E+00  0.00000000E+00  0.00000000E+00  0.00000000E+00
  0.00000000E+00  0.00000000E+00  0.00000000E+00  0.00000000E+00  0.00000000E+00
  0.00000000E+00  0.00000000E+00  0.00000000E+00  0.00000000E+00  0.00000000E+00
  0.00000000E+00  0.00000000E+00  0.00000000E+00  0.00000000E+00  0.00000000E+00
  0.00000000E+00  0.00000000E+00  0.00000000E+00  0.00000000E+00  0.00000000E+00
  0.00000000E+00  0.00000000E+00  0.00000000E+00  0.00000000E+00  0.00000000E+00
IOpCl                                      I                0
IROHF                                      I                0
Alpha Orbital Energies                     R   N=          64
 -2.04615038E+01 -2.04614722E+01 -1.55338659E+01 -1.13319174E+01 -1.34123373E+00
 -1.23227596E+00 -1.12981946E+00 -7.17034876E-01 -6.46086898E-01 -6.04849706E-01
 -5.47382306E-01 -5.43754775E-01 -4.08385952E-01 -3.79677690E-01 -3.74389687E-01
 -3.67610316E-01  2.58737047E-01  3.05268995E-01  3.29166034E-01  4.84066724E-01
  5.83827333E-01  5.94769474E-01  8.13846089E-01  8.63689969E-01  9.19352877E-01
  9.58602713E-01  9.76576257E-01  1.05505583E+00  1.06094216E+00  1.15340554E+00
  1.21457313E+00  1.21733020E+00  1.26379584E+00  1.32506010E+00  1.36397128E+00
  1.39512791E+00  1.40356123E+00  1.47457477E+00  1.70647179E+00  1.76524540E+00
  1.78834732E+00  1.97029208E+00  2.05915834E+00  2.10508980E+00  2.15893189E+00
  2.18774307E+00  2.22575291E+00  2.26989189E+00  2.28703330E+00  2.39455629E+00
  2.49722596E+00  2.60455438E+00  2.72981267E+00  2.86883479E+00  2.90056630E+00
  3.11651196E+00  3.23556722E+00  3.29871655E+00  3.39181984E+00  3.52233288E+00
  4.21685660E+00  4.31946017E+00  4.59886214E+00  4.73107557E+00
Alpha MO coefficients                      R   N=        4096
 -7.03274338E-01 -1.49021073E-02 -3.92042888E-04  8.45003201E-04  5.23974891E-06
 -2.72411640E-03  1.40664479E-04 -1.83575275E-04 -2.31164014E-06  2.76439176E-03
  2.63726742E-03  2.78876727E-03 -3.46043952E-05  7.43624161E-07  1.40984480E-06
  7.03439639E-01  1.49055966E-02  3.92144849E-04  8.45197444E-04 -5.24152206E-06
  2.72484107E-03 -1.40663256E-04 -1.83584513E-04  2.31254035E-06 -2.76502394E-03
 -2.63790954E-03 -2.78944253E-03 -3.45773526E-05 -7.44702606E-07  1.40936462E-06
 -1.36237850E-09 -3.63110346E-09  5.03985112E-09  3.00144658E-05 -1.71760672E-09
  2.07717306E-08  8.63878258E-09  3.32667431E-05  6.81051114E-09 -8.75200630E-09
 -3.58182961E-09 -5.53771981E-09 -8.53753440E-05  4.88695109E-10  7.01948626E-06
 -2.59315860E-10  8.91718637E-08 -5.32310870E-09 -2.02100030E-04 -2.27479475E-10
 -7.05794131E-08  2.92877153E-08  1.63952013E-04 -2.18984818E-09 -1.93848149E-08
 -8.92248435E-08 -7.36194934E-09 -3.25668253E-04 -3.48283097E-10  9.03123056E-06
 -3.49093780E-06 -5.34406536E-06  3.49000869E-06  5.31914294E-06  7.03429036E-01
  1.48486702E-02  4.33157391E-04 -8.26733828E-04 -7.59454096E-06  3.08344200E-03
  5.28557201E-06  3.96155113E-05  3.84976800E-06 -2.69015666E-03 -2.73264233E-03
 -2.87341013E-03 -1.14849694E-04 -4.57698116E-06  2.04623622E-06  7.03263732E-01
  1.48451675E-02  4.33065409E-04  8.26535171E-04 -7.59329830E-06  3.08280175E-03
  5.31863420E-06 -3.95723410E-05  3.84922278E-06 -2.68950687E-03 -2.73202245E-03
 -2.87275464E-03  1.14857832E-04 -4.57680806E-06 -2.04656606E-06 -1.16007982E-05
 -3.09148393E-05  4.28940950E-05 -3.53195272E-09 -1.46235958E-05  1.76907711E-04
  7.34903534E-05 -3.90203382E-09  5.79685681E-05 -7.44414741E-05 -3.05794886E-05
 -4.71419435E-05  1.00327851E-08  4.16541578E-06 -8.25272819E-10 -2.21522591E-06
  7.58838717E-04 -4.53090394E-05  2.37869048E-08 -1.92826597E-06 -6.00335293E-04
  2.48928456E-04 -1.92727527E-08 -1.86494094E-05 -1.64445178E-04 -7.59340828E-04
 -6.26772529E-05  3.81857924E-08 -2.96557166E-06 -1.06445141E-09 -3.96883816E-06
 -1.06058905E-04 -3.96966061E-06 -1.06060175E-04 -9.72971197E-06 -8.64084201E-05
 -1.69342718E-05  3.53583979E-05  5.42187155E-06  2.92619105E-04 -1.81244063E-04
 -1.91581901E-04 -4.71203534E-05 -6.95478404E-05  7.17685184E-06 -9.00642361E-05
  3.22156432E-05 -1.35077329E-06  9.30644217E-06 -9.72971727E-06 -8.64084399E-05
 -1.69342758E-05 -3.53583927E-05  5.42187427E-06  2.92619281E-04 -1.81244014E-04
  1.91581967E-04 -4.71203577E-05 -6.95478701E-05  7.17685347E-06 -9.00642469E-05
 -3.22156284E-05 -1.35077573E-06 -9.30644061E-06  9.94992065E-01  2.49846412E-02
 -1.77012303E-04  9.11167963E-11  1.08390064E-03 -2.58713585E-03  6.28096036E-04
 -1.23283138E-10 -8.03066435E-04 -3.47786579E-03 -3.44426901E-03 -3.28084116E-03
  2.43658838E-12 -2.12343789E-05  1.79987631E-11 -7.28135296E-06  1.89414723E-04
  2.56941932E-04 -1.94461806E-11 -9.73909529E-06  1.07729770E-03  1.17460581E-03
  1.32600733E-11  1.35998470E-04 -1.51528488E-04 -6.93333411E-05 -9.39887398E-05
  3.33665805E-12  1.76566569E-05  1.60724284E-13  2.81919999E-04  4.94752194E-04
  2.81920005E-04  4.94752198E-04 -2.31761319E-04  3.82218973E-04  1.80719718E-05
 -2.08512746E-04  7.06897023E-06 -1.37994224E-03 -1.85133687E-04  1.42304186E-03
 -3.87011990E-05  7.70498959E-06 -2.08223286E-04  2.61682371E-04  1.81057007E-04
  8.10644424E-06  2.46281862E-06 -2.31761336E-04  3.82219031E-04  1.80720149E-05
  2.08512757E-04  7.06897380E-06 -1.37994271E-03 -1.85134021E-04 -1.42304196E-03
 -3.87012181E-05  7.70496939E-06 -2.08223177E-04  2.61682399E-04 -1.81057035E-04
  8.10644036E-06 -2.46282630E-06 -2.24859397E-04  1.30182441E-04  1.17855766E-04
 -1.12414995E-11  3.87382916E-05  1.93570554E-03 -7.67735827E-04  1.10150958E-10
 -1.66709260E-04 -6.87499293E-04 -1.26627839E-04 -3.53684004E-05  4.58619736E-11
  3.56957254E-05  7.66284837E-12  9.95889498E-01  2.51201606E-02  9.31119732E-05
 -8.39676579E-11 -4.55924288E-05 -4.43652031E-03 -2.49706958E-03  1.11341736E-12
  1.97370874E-04 -1.26501375E-03 -4.14239948E-04 -2.31114924E-03  1.29196779E-10
 -3.18442487E-05  8.00549861E-12 -2.72120382E-05  4.14044322E-04 -2.72120528E-05
  4.14044260E-04 -1.25229402E-01  2.73477971E-01  3.76583311E-02 -8.32574257E-02
 -9.07363986E-04  2.57500159E-01  1.20327242E-02 -3.58882375E-02 -3.13666707E-04
 -1.93849659E-04  1.19405014E-02 -4.94044446E-04 -6.43410711E-03  3.85996911E-05
  1.69554895E-04 -1.25229421E-01  2.73478012E-01  3.76583520E-02  8.32574303E-02
 -9.07363439E-04  2.57500199E-01  1.20327327E-02  3.58882383E-02 -3.13666276E-04
 -1.93847583E-04  1.19404999E-02 -4.94044697E-04  6.43411033E-03  3.85997781E-05
 -1.69554790E-04 -5.06531071E-02  1.07106724E-01 -4.29942773E-02  2.88752683E-09
  1.36482776E-02  8.19615839E-02 -1.03709467E-02  4.15323084E-10  6.51828784E-03
  1.11181843E-02  2.15467551E-03 -1.80135797E-04 -4.24196681E-10 -5.66178317E-04
 -4.47599470E-10 -1.35977662E-01  2.66300782E-01 -5.71654112E-02 -1.37837517E-08
  8.36766030E-04  6.62563027E-02  1.91352078E-02 -4.84142061E-11  2.85570188E-04
 -6.06377514E-03  2.53390939E-02 -2.21284015E-02  5.81363386E-09 -3.88157089E-04
  1.12848853E-10  2.47634422E-02 -1.83124510E-03  2.47634416E-02 -1.83124543E-03
 -1.50916190E-01  3.25269019E-01  4.34661437E-02 -6.05968397E-02 -1.00043519E-03
  3.42300516E-01  2.09455167E-02 -2.24576347E-02 -2.19356859E-04  1.60640668E-03
  4.02425237E-03 -2.72312748E-03 -6.70780497E-03 -4.02095374E-05  1.38082848E-04
  1.50916176E-01 -3.25268990E-01 -4.34661505E-02 -6.05968254E-02  1.00043459E-03
 -3.42300486E-01 -2.09455188E-02 -2.24576271E-02  2.19356596E-04 -1.60640872E-03
 -4.02424916E-03  2.72312758E-03 -6.70780489E-03  4.02094456E-05  1.38082741E-04
 -9.13643800E-09  1.89589525E-08 -2.70116786E-09  2.08719926E-02  2.64834737E-09
  1.86077971E-08 -3.90548051E-10  1.20350619E-02  1.63161906E-09  5.27633720E-10
  1.01673697E-09 -2.04081165E-10 -2.27228397E-03  1.88554092E-10  1.49106648E-03
 -7.39304605E-09  1.46937346E-08  2.51560571E-08  2.53236638E-01  7.89912309E-10
  5.27888310E-09 -6.62619153E-10 -1.26514278E-02 -1.59021953E-10 -3.74698551E-09
  5.69818798E-09 -8.83839873E-10 -3.17893728E-02 -1.87001684E-10  6.99928259E-04
 -6.32641112E-03 -3.34049546E-03  6.32642177E-03  3.34049525E-03  5.29633794E-02
 -1.13714928E-01  1.63355410E-02  2.26288305E-02 -2.40237449E-04 -1.32362272E-01
  8.84399680E-03  1.27263046E-02  2.51410056E-04  2.60398047E-03 -3.29506463E-03
  1.22826316E-03 -8.63153168E-04 -1.77735555E-05 -7.10853133E-05  5.29633696E-02
 -1.13714907E-01  1.63355396E-02 -2.26288313E-02 -2.40237567E-04 -1.32362250E-01
  8.84399586E-03 -1.27263054E-02  2.51410142E-04  2.60398114E-03 -3.29506488E-03
  1.22826316E-03  8.63152493E-04 -1.77735075E-05  7.10852666E-05 -1.88647244E-01
  3.90376742E-01 -1.43896895E-02  3.94264169E-09  6.36415275E-02  4.33657232E-01
 -6.95510391E-03  2.42502375E-09  3.59607415E-02  5.81343142E-03  1.55536470E-02
 -1.65215586E-03  1.71309675E-09  6.12711404E-03 -2.47156083E-09 -1.49496918E-02
  3.36889352E-02  1.72959540E-01 -2.00743488E-08 -3.98545797E-03  7.14118829E-03
 -6.11620308E-03 -9.38496879E-10 -7.99408718E-04  2.71602364E-02 -1.89806167E-02
 -5.62474244E-04 -3.11656324E-09 -6.95834001E-04 -1.01301981E-10  1.24000706E-01
  3.91154394E-03  1.24000704E-01  3.91154319E-03 -6.34968981E-02  1.37545948E-01
 -1.21114627E-01  1.21418087E-01  1.54209747E-02  2.19198732E-01 -6.81179166E-02
  7.89928562E-02  1.11441311E-02 -3.07371508E-03 -9.25701652E-03  3.83746773E-04
  1.02563044E-02  6.85896829E-04 -1.56050334E-03 -6.34969010E-02  1.37545956E-01
 -1.21114659E-01 -1.21418074E-01  1.54209749E-02  2.19198739E-01 -6.81179376E-02
 -7.89928494E-02  1.11441311E-02 -3.07371829E-03 -9.25701337E-03  3.83747211E-04
 -1.02563064E-02  6.85897018E-04  1.56050321E-03 -2.97891767E-02  5.94713773E-02
  3.34403484E-01 -8.03551979E-09  7.78196151E-02  9.37329978E-02  1.79099519E-01
 -3.48496705E-09  4.37030416E-02 -2.04984103E-02  2.04756328E-02  5.39547560E-03
  4.77581963E-09  1.57035369E-02 -1.58068867E-09  1.22106747E-01 -2.79967828E-01
 -1.56156238E-01  1.66998952E-08  2.94521981E-02 -1.54447738E-01 -5.76402264E-02
  2.20016278E-09  1.63904921E-03 -8.58931709E-03  5.75586256E-03  1.06965536E-02
  1.83415441E-09  4.03408977E-03 -3.20855859E-10  1.17748218E-01  5.77065911E-02
  1.17748228E-01  5.77065954E-02  3.44673718E-02 -7.39553135E-02  1.15114759E-01
 -7.14097524E-02 -2.11464478E-03 -1.31780513E-01  7.21049654E-02 -4.08814453E-02
  1.77829777E-04  3.87183352E-03  5.46044262E-03 -7.58653172E-04 -6.39997234E-03
  1.28995051E-04  9.11871254E-05 -3.44673688E-02  7.39553062E-02 -1.15114768E-01
 -7.14097293E-02  2.11462466E-03  1.31780506E-01 -7.21049685E-02 -4.08814291E-02
 -1.77843207E-04 -3.87183549E-03 -5.46044072E-03  7.58652903E-04 -6.39997230E-03
 -1.28995964E-04  9.11855167E-05 -5.44681109E-10  1.30883837E-09  2.08822229E-08
  4.29525515E-01 -3.96432760E-08  3.70967461E-09  1.34936246E-08  2.64413476E-01
 -2.41959511E-08  2.84558708E-09  1.62641727E-09 -4.88160818E-09  1.58428853E-02
  1.10175324E-09  3.30335591E-02 -2.43484116E-09  6.27685430E-09  1.48368447E-08
  1.38014969E-01 -1.43048322E-08  1.20165017E-09  1.04137883E-09  7.08711221E-03
 -5.38855345E-09  2.50719910E-09 -2.17349579E-09  1.18304672E-11  1.56725401E-02
 -9.47784536E-10  2.07798650E-04 -2.09998619E-01 -1.04481729E-01  2.09998611E-01
  1.04481723E-01 -5.22209876E-02  1.09728282E-01  4.96437640E-02  3.06119868E-01
 -3.63811331E-02  2.15814495E-01  4.20580144E-02  2.02115194E-01 -2.63052898E-02
  6.27592059E-03 -2.56420954E-02  1.03754427E-03  3.58748293E-03 -1.54104514E-03
  2.78345201E-03 -5.22209908E-02  1.09728290E-01  4.96437095E-02 -3.06119909E-01
 -3.63811378E-02  2.15814510E-01  4.20579789E-02 -2.02115221E-01 -2.63052929E-02
  6.27592018E-03 -2.56420960E-02  1.03754471E-03 -3.58748996E-03 -1.54104572E-03
 -2.78345220E-03 -3.49982784E-03  8.62934977E-03 -2.01638908E-01 -1.26768493E-09
 -7.57693505E-02  1.72137488E-02 -1.41869735E-01 -8.46220311E-10 -5.82314004E-02
  7.66285517E-03 -8.42836715E-03 -5.62405771E-03 -2.59405303E-09 -7.89042147E-03
  2.75876774E-10  5.66279657E-02 -1.37296395E-01  3.06468670E-01 -1.46266367E-08
 -5.58495989E-02 -7.27600657E-02  3.86707680E-02 -4.54772573E-09 -1.52538890E-02
  1.00301981E-02 -2.99355745E-03  5.95372268E-03 -3.13084306E-09 -2.44763104E-03
  3.75960879E-10 -6.34189176E-02 -1.88727032E-02 -6.34189276E-02 -1.88727068E-02
 -2.63419262E-03  4.60514376E-03  5.41744171E-02  4.33843881E-02  2.82722477E-01
  1.57668530E-02  3.93414278E-02  2.84576638E-02  1.99070894E-01  2.25622249E-03
 -3.81670341E-03 -3.08975242E-04 -2.02279875E-03  1.00465705E-02 -1.94808854E-02
 -2.63427398E-03  4.60532108E-03  5.41740350E-02 -4.33849021E-02  2.82722507E-01
  1.57671908E-02  3.93411542E-02 -2.84580077E-02  1.99070916E-01  2.25621296E-03
 -3.81672969E-03 -3.08967828E-04  2.02276643E-03  1.00465753E-02  1.94808858E-02
  2.65876352E-02 -6.04902971E-02 -6.59309877E-02 -1.34249654E-07  2.25821667E-01
 -9.72635368E-02 -5.96455110E-02 -6.36271908E-08  1.69446363E-01 -1.68958569E-03
 -3.86114696E-03  8.92653738E-03 -1.44150581E-08 -1.21275989E-02 -9.93520602E-09
 -5.93355152E-03  1.14854010E-02  7.61648698E-02  3.05191017E-07  2.98448859E-01
  1.96083192E-03  2.17328138E-02  5.83171407E-10  1.61871359E-01 -1.69290671E-03
  2.00373242E-03 -6.85924086E-04 -1.87819675E-08 -3.99503532E-03 -1.22906351E-09
  1.14972255E-02  9.24804187E-03  1.14970485E-02  9.24791113E-03  4.35191485E-02
 -9.46552508E-02  2.03115242E-01 -2.79168943E-01 -5.68089198E-03 -1.82443319E-01
  1.46143987E-01 -1.87249940E-01 -4.47871176E-03  5.57114634E-03  1.40199093E-02
 -3.83881662E-03 -1.71285387E-02 -3.42622204E-04  4.11088155E-04 -4.35191395E-02
  9.46552356E-02 -2.03115415E-01 -2.79168806E-01  5.68037848E-03  1.82443270E-01
 -1.46144110E-01 -1.87249847E-01  4.47834942E-03 -5.57115625E-03 -1.40198945E-02
  3.83881805E-03 -1.71285448E-02  3.42604034E-04  4.11052773E-04 -2.31686992E-08
  5.20389300E-08  4.20987321E-08 -1.91607155E-01 -1.77837410E-07  8.88766777E-08
  4.51356767E-08 -1.02770350E-01 -1.34771305E-07 -9.14382322E-10  3.19660966E-09
 -5.68749421E-09 -1.64149316E-02  1.02772405E-08 -1.44916437E-02  2.70240519E-09
 -4.16706542E-09 -4.69393020E-08  3.43785330E-01 -2.64654638E-07  8.21813715E-09
 -2.43196808E-08  4.98530339E-03 -1.46259202E-07  2.06624229E-11  4.26313570E-10
  7.20510925E-10 -2.30615183E-02  4.42313494E-09  1.08973551E-04  1.07679365E-01
  7.87953547E-02 -1.07679385E-01 -7.87953757E-02  6.97348657E-04 -7.87992768E-03
  2.82553652E-01  2.83561993E-02 -1.72864075E-01  2.84702162E-02  2.26111377E-01
  6.43946884E-03 -1.37070025E-01  3.63058047E-03 -2.83815476E-03 -3.18185824E-03
 -9.58159453E-03 -3.69155398E-03  9.47956503E-03  6.97347399E-04 -7.87992563E-03
  2.82553643E-01 -2.83562494E-02 -1.72864117E-01  2.84702254E-02  2.26111373E-01
 -6.43950810E-03 -1.37070060E-01  3.63058309E-03 -2.83815806E-03 -3.18185846E-03
  9.58159320E-03 -3.69155668E-03 -9.47956651E-03  5.59529407E-02 -1.19569601E-01
  1.20489538E-01  1.23121236E-08  3.31153926E-01 -3.04261891E-01  8.83476341E-02
  9.86981561E-09  2.90132151E-01 -7.48906958E-03  6.93069920E-03  1.43269994E-02
  9.50581112E-10  3.67860377E-03  2.67537507E-10 -1.24083977E-02  3.03001052E-02
 -5.26440546E-02  6.10078841E-09 -6.07057888E-02 -3.01811374E-02  8.09425481E-02
 -2.79189406E-09 -6.07602954E-02 -3.56924237E-02  3.34071410E-02 -3.41063713E-03
  7.23082770E-09  2.45479912E-02  7.69946327E-10  7.50814358E-02  7.59225253E-02
  7.50814302E-02  7.59225247E-02  9.67651093E-04  4.20361912E-03 -2.80120697E-01
 -1.41870679E-02 -1.27230878E-01 -3.23846678E-02 -2.27209706E-01  2.89129937E-03
 -1.05516222E-01 -2.70190514E-03  1.57458604E-03  3.74565323E-03  8.54533875E-03
 -2.36545044E-03  7.05936850E-03  9.67648790E-04  4.20361472E-03 -2.80121118E-01
  1.41874978E-02 -1.27230946E-01 -3.23845925E-02 -2.27210038E-01 -2.89093482E-03
 -1.05516281E-01 -2.70192831E-03  1.57460710E-03  3.74564951E-03 -8.54534515E-03
 -2.36545369E-03 -7.05937171E-03  6.82249943E-03 -2.86663071E-02 -2.38332614E-01
  7.17483146E-10  3.62311883E-01  7.01963380E-02 -2.25587682E-01 -7.86177030E-10
  3.59271869E-01 -1.69518944E-04 -1.19727714E-02  1.09601998E-02 -4.39679650E-09
 -1.01316018E-02 -1.67190826E-09 -4.89587946E-04  4.24964443E-03  1.15527720E-01
 -5.24870960E-08 -3.57349304E-02  1.56659694E-03 -9.73681980E-02  8.18069697E-08
 -2.66219600E-02  4.02715100E-02 -3.52174594E-02 -3.98420317E-04  1.87273609E-08
  1.97390824E-02  2.28985825E-09  9.15639049E-03 -3.00976968E-02  9.15633668E-03
 -3.00977016E-02  2.43287839E-03  3.16533091E-03  3.51960708E-01  2.85358663E-01
 -1.64044213E-02 -6.54192256E-02  2.77078516E-01  2.45296654E-01 -1.39522694E-02
  1.67915634E-02 -1.35043674E-02  2.98217518E-03 -6.85231845E-03 -5.30965864E-04
  5.84780912E-04 -2.43288110E-03 -3.16533328E-03 -3.51960309E-01  2.85358696E-01
  1.64045795E-02  6.54192758E-02 -2.77078188E-01  2.45296697E-01  1.39524012E-02
 -1.67915625E-02  1.35043669E-02 -2.98217978E-03 -6.85230228E-03  5.30968562E-04
  5.84789500E-04 -4.75621059E-09  1.93838134E-08  1.36963129E-07 -8.02596788E-02
 -2.26439369E-07 -4.49775434E-08  1.30389643E-07 -7.17292971E-02 -2.26175816E-07
 -5.07279250E-10  7.25248206E-09 -6.08970670E-09 -5.91897321E-03  5.98857470E-09
 -7.03973233E-03  1.32638005E-09 -5.36132286E-09 -7.39570403E-08 -5.24999238E-02
  1.87421594E-08 -6.77320460E-09  7.40656221E-08  1.19196707E-01  1.47409237E-08
 -1.86944320E-08  1.54560870E-08  2.14078656E-10  3.72943980E-02 -1.24311379E-08
 -2.02435292E-03  4.71104672E-02  1.12983912E-02 -4.71104831E-02 -1.12983517E-02
  5.96733638E-04  1.55124808E-03  1.73326080E-02  4.27468341E-03  4.32011789E-01
 -1.81796783E-02  1.13691672E-02  6.75453035E-03  3.80857910E-01  1.50273346E-03
  7.39124147E-04  5.66094609E-04 -4.41782276E-04  1.17103491E-02 -2.01272428E-02
 -5.96733981E-04 -1.55124780E-03 -1.73325747E-02  4.27468922E-03 -4.32011732E-01
  1.81796826E-02 -1.13691401E-02  6.75453620E-03 -3.80857862E-01 -1.50273333E-03