
    -----------------------------------------------------------------------
          Psi4: An Open-Source Ab Initio Electronic Structure Package
                               Psi4 1.3.2 release

                         Git: Rev {HEAD} ecbda83 


    R. M. Parrish, L. A. Burns, D. G. A. Smith, A. C. Simmonett,
    A. E. DePrince III, E. G. Hohenstein, U. Bozkaya, A. Yu. Sokolov,
    R. Di Remigio, R. M. Richard, J. F. Gonthier, A. M. James,
    H. R. McAlexander, A. Kumar, M. Saitow, X. Wang, B. P. Pritchard,
    P. Verma, H. F. Schaefer III, K. Patkowski, R. A. King, E. F. Valeev,
    F. A. Evangelista, J. M. Turney, T. D. Crawford, and C. D. Sherrill,
    J. Chem. Theory Comput. 13(7) pp 3185--3197 (2017).
    (doi: 10.1021/acs.jctc.7b00174)


                         Additional Contributions by
    P. Kraus, H. Kruse, M. H. Lechner, M. C. Schieber, R. A. Shaw,
    A. Alenaizan, R. Galvelis, Z. L. Glick, S. Lehtola, and J. P. Misiewicz

    -----------------------------------------------------------------------


    Psi4 started on: Wednesday, 04 November 2020 02:40AM

    Process ID: 121378
    Host:       node93.bme.utexas.edu
    PSIDATADIR: /home/xy3866/psi4conda/share/psi4
    Memory:     500.0 MiB
    Threads:    8
    
  ==> Input File <==

--------------------------------------------------------------------------
#psi4
#
memory 32 gb

molecule  {
0 1
  O        1.5890300     1.0650170     0.1165590
  O        1.3046730    -1.1635400    -0.2742115
  N       -1.2047650    -1.1860200     0.0435410
  C       -0.5869271     0.1500587     0.4086436
  C       -1.2872470     1.2925570    -0.2818200
  C        0.9223610     0.0094930     0.0395840
  H       -0.6685550     0.2311640     1.4926420
  H       -1.7458480    -1.1434940    -0.8256840
  H       -1.8050530    -1.5837490     0.7705650
  H       -2.3371450     1.3649650     0.0138330
  H       -0.7761520     2.2140110    -0.0029500
  H       -1.2289870     1.1856370    -1.3693840
  H       -0.3506960    -1.7809300    -0.1207870
units angstrom
no_reorient  #important for SAPT in psi4, default
symmetry c1  #important for SAPT in psi4, default
}

set PROPERTIES_ORIGIN ["COM"]
properties('MP2/aug-cc-pvtz', properties = ['dipole'])
--------------------------------------------------------------------------

  Memory set to  29.802 GiB by Python driver.
    SCF Algorithm Type (re)set to DF.

*** tstart() called on node93.bme.utexas.edu
*** at Wed Nov  4 02:40:38 2020

   => Loading Basis Set <=

    Name: AUG-CC-PVTZ
    Role: ORBITAL
    Keyword: BASIS
    atoms 1-2  entry O          line   327 file /home/xy3866/psi4conda/share/psi4/basis/aug-cc-pvtz.gbs 
    atoms 3    entry N          line   281 file /home/xy3866/psi4conda/share/psi4/basis/aug-cc-pvtz.gbs 
    atoms 4-6  entry C          line   235 file /home/xy3866/psi4conda/share/psi4/basis/aug-cc-pvtz.gbs 
    atoms 7-13 entry H          line    36 file /home/xy3866/psi4conda/share/psi4/basis/aug-cc-pvtz.gbs 


         ---------------------------------------------------------
                                   SCF
               by Justin Turney, Rob Parrish, Andy Simmonett
                          and Daniel G. A. Smith
                              RHF Reference
                        8 Threads,  30517 MiB Core
         ---------------------------------------------------------

  ==> Geometry <==

    Molecular point group: c1
    Full point group: C1

    Geometry (in Angstrom), charge = 0, multiplicity = 1:

       Center              X                  Y                   Z               Mass       
    ------------   -----------------  -----------------  -----------------  -----------------
         O            1.487846164302     1.068016167315     0.116077584241    15.994914619570
         O            1.203489164302    -1.160540832685    -0.274692915759    15.994914619570
         N           -1.305948835698    -1.183020832685     0.043059584241    14.003074004430
         C           -0.688110935698     0.153057867315     0.408162184241    12.000000000000
         C           -1.388430835698     1.295556167315    -0.282301415759    12.000000000000
         C            0.821177164302     0.012492167315     0.039102584241    12.000000000000
         H           -0.769738835698     0.234163167315     1.492160584241     1.007825032230
         H           -1.847031835698    -1.140494832685    -0.826165415759     1.007825032230
         H           -1.906236835698    -1.580749832685     0.770083584241     1.007825032230
         H           -2.438328835698     1.367964167315     0.013351584241     1.007825032230
         H           -0.877335835698     2.217010167315    -0.003431415759     1.007825032230
         H           -1.330170835698     1.188636167315    -1.369865415759     1.007825032230
         H           -0.451879835698    -1.777930832685    -0.121268415759     1.007825032230

  Running in c1 symmetry.

  Rotational constants: A =      0.16058  B =      0.11572  C =      0.07298 [cm^-1]
  Rotational constants: A =   4814.11690  B =   3469.33099  C =   2187.88112 [MHz]
  Nuclear repulsion =  249.670707183968148

  Charge       = 0
  Multiplicity = 1
  Electrons    = 48
  Nalpha       = 24
  Nbeta        = 24

  ==> Algorithm <==

  SCF Algorithm Type is DF.
  DIIS enabled.
  MOM disabled.
  Fractional occupation disabled.
  Guess Type is SAD.
  Energy threshold   = 1.00e-10
  Density threshold  = 1.00e-10
  Integral threshold = 0.00e+00

  ==> Primary Basis <==

  Basis Set: AUG-CC-PVTZ
    Blend: AUG-CC-PVTZ
    Number of shells: 147
    Number of basis function: 437
    Number of Cartesian functions: 505
    Spherical Harmonics?: true
    Max angular momentum: 3

   => Loading Basis Set <=

    Name: (AUG-CC-PVTZ AUX)
    Role: JKFIT
    Keyword: DF_BASIS_SCF
    atoms 1-2  entry O          line   286 file /home/xy3866/psi4conda/share/psi4/basis/aug-cc-pvtz-jkfit.gbs 
    atoms 3    entry N          line   224 file /home/xy3866/psi4conda/share/psi4/basis/aug-cc-pvtz-jkfit.gbs 
    atoms 4-6  entry C          line   162 file /home/xy3866/psi4conda/share/psi4/basis/aug-cc-pvtz-jkfit.gbs 
    atoms 7-13 entry H          line    70 file /home/xy3866/psi4conda/share/psi4/basis/aug-cc-pvtz-jkfit.gbs 

  ==> Pre-Iterations <==

   -------------------------------------------------------
    Irrep   Nso     Nmo     Nalpha   Nbeta   Ndocc  Nsocc
   -------------------------------------------------------
     A        437     437       0       0       0       0
   -------------------------------------------------------
    Total     437     437      24      24      24       0
   -------------------------------------------------------

  ==> Integral Setup <==

  DFHelper Memory: AOs need 1.383 GiB; user supplied 22.352 GiB. Using in-core AOs.

  ==> MemDFJK: Density-Fitted J/K Matrices <==

    J tasked:                   Yes
    K tasked:                   Yes
    wK tasked:                   No
    OpenMP threads:               8
    Memory [MiB]:             22888
    Algorithm:                 Core
    Schwarz Cutoff:           1E-12
    Mask sparsity (%):       1.4097
    Fitting Condition:        1E-10

   => Auxiliary Basis Set <=

  Basis Set: (AUG-CC-PVTZ AUX)
    Blend: AUG-CC-PVTZ-JKFIT
    Number of shells: 278
    Number of basis function: 946
    Number of Cartesian functions: 1171
    Spherical Harmonics?: true
    Max angular momentum: 4

  Minimum eigenvalue in the overlap matrix is 7.4419828821E-06.
  Using Symmetric Orthogonalization.

  SCF Guess: Superposition of Atomic Densities via on-the-fly atomic UHF.

  ==> Iterations <==

                           Total Energy        Delta E     RMS |[F,P]|

   @DF-RHF iter SAD:  -321.12959062767345   -3.21130e+02   0.00000e+00 
   @DF-RHF iter   1:  -321.69853281969836   -5.68942e-01   1.68110e-03 DIIS
   @DF-RHF iter   2:  -321.88552648182718   -1.86994e-01   1.02422e-03 DIIS
   @DF-RHF iter   3:  -321.95118116081557   -6.56547e-02   1.65932e-04 DIIS
   @DF-RHF iter   4:  -321.95429824414680   -3.11708e-03   6.23700e-05 DIIS
   @DF-RHF iter   5:  -321.95477456690355   -4.76323e-04   1.35907e-05 DIIS
   @DF-RHF iter   6:  -321.95480331310586   -2.87462e-05   5.97515e-06 DIIS
   @DF-RHF iter   7:  -321.95480706499734   -3.75189e-06   1.88602e-06 DIIS
   @DF-RHF iter   8:  -321.95480765759032   -5.92593e-07   6.36351e-07 DIIS
   @DF-RHF iter   9:  -321.95480774225359   -8.46633e-08   2.00940e-07 DIIS
   @DF-RHF iter  10:  -321.95480775344089   -1.11873e-08   7.48881e-08 DIIS
   @DF-RHF iter  11:  -321.95480775491052   -1.46963e-09   2.71433e-08 DIIS
   @DF-RHF iter  12:  -321.95480775511794   -2.07422e-10   1.05885e-08 DIIS
   @DF-RHF iter  13:  -321.95480775514932   -3.13776e-11   3.63962e-09 DIIS
   @DF-RHF iter  14:  -321.95480775515250   -3.18323e-12   1.33479e-09 DIIS
   @DF-RHF iter  15:  -321.95480775515375   -1.25056e-12   3.55163e-10 DIIS
   @DF-RHF iter  16:  -321.95480775515381   -5.68434e-14   1.01279e-10 DIIS
   @DF-RHF iter  17:  -321.95480775515347    3.41061e-13   3.65722e-11 DIIS
  Energy and wave function converged.


  ==> Post-Iterations <==

    Orbital Energies [Eh]
    ---------------------

    Doubly Occupied:                                                      

       1A    -20.489300     2A    -20.472323     3A    -15.709080  
       4A    -11.327759     5A    -11.312822     6A    -11.251973  
       7A     -1.366132     8A     -1.319744     9A     -1.253874  
      10A     -1.062860    11A     -0.910146    12A     -0.805442  
      13A     -0.778187    14A     -0.723133    15A     -0.675561  
      16A     -0.630287    17A     -0.584230    18A     -0.572671  
      19A     -0.561194    20A     -0.553853    21A     -0.513528  
      22A     -0.406814    23A     -0.384677    24A     -0.376517  

    Virtual:                                                              

      25A     -0.002398    26A      0.022233    27A      0.026074  
      28A      0.042444    29A      0.051466    30A      0.055598  
      31A      0.063423    32A      0.082273    33A      0.092371  
      34A      0.098426    35A      0.111053    36A      0.113517  
      37A      0.119579    38A      0.124531    39A      0.135028  
      40A      0.138635    41A      0.142642    42A      0.147194  
      43A      0.153369    44A      0.156947    45A      0.171145  
      46A      0.181474    47A      0.190098    48A      0.219057  
      49A      0.225734    50A      0.232973    51A      0.240538  
      52A      0.248372    53A      0.251824    54A      0.258132  
      55A      0.264485    56A      0.275165    57A      0.282696  
      58A      0.288733    59A      0.291119    60A      0.301023  
      61A      0.306877    62A      0.319996    63A      0.329703  
      64A      0.330764    65A      0.346266    66A      0.346885  
      67A      0.350152    68A      0.355039    69A      0.360907  
      70A      0.369460    71A      0.374185    72A      0.377653  
      73A      0.390574    74A      0.397482    75A      0.404211  
      76A      0.412572    77A      0.416474    78A      0.421610  
      79A      0.430395    80A      0.435583    81A      0.440586  
      82A      0.442251    83A      0.457183    84A      0.473133  
      85A      0.477122    86A      0.482567    87A      0.493454  
      88A      0.498899    89A      0.513542    90A      0.518621  
      91A      0.533512    92A      0.542748    93A      0.548428  
      94A      0.570300    95A      0.576311    96A      0.583749  
      97A      0.598368    98A      0.599846    99A      0.607856  
     100A      0.612053   101A      0.619042   102A      0.627925  
     103A      0.640949   104A      0.664040   105A      0.687908  
     106A      0.697126   107A      0.719681   108A      0.724913  
     109A      0.740100   110A      0.755317   111A      0.765209  
     112A      0.773439   113A      0.787137   114A      0.800536  
     115A      0.810600   116A      0.822333   117A      0.831343  
     118A      0.836121   119A      0.847618   120A      0.857828  
     121A      0.860135   122A      0.867593   123A      0.874231  
     124A      0.885501   125A      0.889464   126A      0.897281  
     127A      0.909134   128A      0.925935   129A      0.930958  
     130A      0.937187   131A      0.943297   132A      0.958987  
     133A      0.964988   134A      0.973543   135A      0.978162  
     136A      0.988563   137A      1.002765   138A      1.004439  
     139A      1.018505   140A      1.026996   141A      1.043827  
     142A      1.048340   143A      1.057429   144A      1.067550  
     145A      1.074298   146A      1.090705   147A      1.105063  
     148A      1.112559   149A      1.119477   150A      1.132906  
     151A      1.149831   152A      1.153504   153A      1.160727  
     154A      1.171013   155A      1.188199   156A      1.195940  
     157A      1.208065   158A      1.215688   159A      1.227606  
     160A      1.236904   161A      1.247848   162A      1.268833  
     163A      1.278354   164A      1.286445   165A      1.294838  
     166A      1.312499   167A      1.320084   168A      1.346757  
     169A      1.353124   170A      1.372903   171A      1.379142  
     172A      1.390333   173A      1.401490   174A      1.410551  
     175A      1.419782   176A      1.447851   177A      1.451539  
     178A      1.473779   179A      1.478360   180A      1.482553  
     181A      1.499764   182A      1.522707   183A      1.526477  
     184A      1.537327   185A      1.556655   186A      1.578005  
     187A      1.580589   188A      1.604049   189A      1.608561  
     190A      1.615731   191A      1.644670   192A      1.654165  
     193A      1.665436   194A      1.672360   195A      1.686309  
     196A      1.702835   197A      1.712820   198A      1.713750  
     199A      1.725358   200A      1.732604   201A      1.755800  
     202A      1.766063   203A      1.775044   204A      1.786945  
     205A      1.792431   206A      1.816425   207A      1.825212  
     208A      1.833206   209A      1.848459   210A      1.854675  
     211A      1.860575   212A      1.880939   213A      1.884235  
     214A      1.910275   215A      1.927156   216A      1.956984  
     217A      1.970963   218A      1.996927   219A      2.014852  
     220A      2.034659   221A      2.042243   222A      2.072849  
     223A      2.079974   224A      2.094507   225A      2.100353  
     226A      2.131743   227A      2.145548   228A      2.169090  
     229A      2.178581   230A      2.192212   231A      2.214773  
     232A      2.219363   233A      2.245036   234A      2.268818  
     235A      2.289966   236A      2.317207   237A      2.333109  
     238A      2.352904   239A      2.393361   240A      2.407258  
     241A      2.427440   242A      2.434741   243A      2.456535  
     244A      2.472366   245A      2.505830   246A      2.517432  
     247A      2.523216   248A      2.551595   249A      2.555802  
     250A      2.574404   251A      2.594111   252A      2.633126  
     253A      2.642874   254A      2.661852   255A      2.671246  
     256A      2.698770   257A      2.720735   258A      2.738920  
     259A      2.758055   260A      2.799473   261A      2.820370  
     262A      2.829547   263A      2.844453   264A      2.891548  
     265A      2.918578   266A      2.952688   267A      2.965690  
     268A      2.993778   269A      3.023038   270A      3.074631  
     271A      3.085324   272A      3.151883   273A      3.176456  
     274A      3.200330   275A      3.249319   276A      3.289830  
     277A      3.336650   278A      3.354364   279A      3.390951  
     280A      3.438686   281A      3.452266   282A      3.484265  
     283A      3.511782   284A      3.538855   285A      3.577226  
     286A      3.616523   287A      3.635259   288A      3.642816  
     289A      3.653614   290A      3.682156   291A      3.691647  
     292A      3.704357   293A      3.715241   294A      3.759364  
     295A      3.785682   296A      3.792095   297A      3.818724  
     298A      3.826750   299A      3.871064   300A      3.891451  
     301A      3.910780   302A      3.925461   303A      3.949314  
     304A      3.962531   305A      3.980236   306A      3.998542  
     307A      4.019058   308A      4.036131   309A      4.062313  
     310A      4.080737   311A      4.089675   312A      4.120078  
     313A      4.133235   314A      4.157934   315A      4.186382  
     316A      4.194805   317A      4.201691   318A      4.229437  
     319A      4.245218   320A      4.249801   321A      4.271330  
     322A      4.292153   323A      4.320658   324A      4.348282  
     325A      4.378394   326A      4.384579   327A      4.400550  
     328A      4.437900   329A      4.465721   330A      4.486494  
     331A      4.509671   332A      4.512419   333A      4.536823  
     334A      4.565475   335A      4.585482   336A      4.610032  
     337A      4.640882   338A      4.656477   339A      4.664514  
     340A      4.685563   341A      4.703073   342A      4.748311  
     343A      4.787142   344A      4.793672   345A      4.813046  
     346A      4.813568   347A      4.834365   348A      4.838704  
     349A      4.875850   350A      4.888382   351A      4.910402  
     352A      4.930068   353A      4.961863   354A      4.999560  
     355A      5.045347   356A      5.058806   357A      5.083883  
     358A      5.086855   359A      5.121175   360A      5.134697  
     361A      5.145856   362A      5.175626   363A      5.184885  
     364A      5.209610   365A      5.245313   366A      5.259298  
     367A      5.280017   368A      5.297749   369A      5.307921  
     370A      5.353856   371A      5.401739   372A      5.411343  
     373A      5.414539   374A      5.439404   375A      5.494550  
     376A      5.525112   377A      5.550852   378A      5.643882  
     379A      5.710622   380A      5.733800   381A      5.756583  
     382A      5.793787   383A      5.834149   384A      5.856576  
     385A      5.867023   386A      5.952541   387A      6.059351  
     388A      6.076595   389A      6.098131   390A      6.143711  
     391A      6.162008   392A      6.188921   393A      6.259208  
     394A      6.283666   395A      6.321790   396A      6.395508  
     397A      6.414036   398A      6.541692   399A      6.644587  
     400A      6.766690   401A      6.786698   402A      6.801468  
     403A      6.830927   404A      6.899280   405A      6.920762  
     406A      6.946796   407A      6.987887   408A      7.002548  
     409A      7.027665   410A      7.058005   411A      7.061338  
     412A      7.091658   413A      7.166131   414A      7.212087  
     415A      7.250842   416A      7.277862   417A      7.416231  
     418A      7.443049   419A      7.461131   420A      7.493501  
     421A      7.695311   422A      7.703813   423A      7.740313  
     424A      7.745957   425A      7.771465   426A      7.799733  
     427A      7.828944   428A      7.943921   429A      8.019298  
     430A      8.077093   431A      8.130487   432A     14.817625  
     433A     15.552257   434A     17.102250   435A     18.461328  
     436A     19.097723   437A     20.641007  

    Final Occupation by Irrep:
              A 
    DOCC [    24 ]

  @DF-RHF Final Energy:  -321.95480775515347

   => Energetics <=

    Nuclear Repulsion Energy =            249.6707071839681475
    One-Electron Energy =                -935.1668135527428376
    Two-Electron Energy =                 363.5412986136212226
    Total Energy =                       -321.9548077551534675

Computation Completed

*** tstop() called on node93.bme.utexas.edu at Wed Nov  4 02:40:48 2020
Module time:
	user time   =      64.03 seconds =       1.07 minutes
	system time =       1.58 seconds =       0.03 minutes
	total time  =         10 seconds =       0.17 minutes
Total time:
	user time   =      64.03 seconds =       1.07 minutes
	system time =       1.58 seconds =       0.03 minutes
	total time  =         10 seconds =       0.17 minutes
   => Loading Basis Set <=

    Name: (AUG-CC-PVTZ AUX)
    Role: RIFIT
    Keyword: DF_BASIS_MP2
    atoms 1-2  entry O          line   264 file /home/xy3866/psi4conda/share/psi4/basis/aug-cc-pvtz-ri.gbs 
    atoms 3    entry N          line   206 file /home/xy3866/psi4conda/share/psi4/basis/aug-cc-pvtz-ri.gbs 
    atoms 4-6  entry C          line   148 file /home/xy3866/psi4conda/share/psi4/basis/aug-cc-pvtz-ri.gbs 
    atoms 7-13 entry H          line    30 file /home/xy3866/psi4conda/share/psi4/basis/aug-cc-pvtz-ri.gbs 


*** tstart() called on node93.bme.utexas.edu
*** at Wed Nov  4 02:40:48 2020


  //>>>>>>>>>>>>>>>>>>>>>>>>>>>>>>>>>>>//
  //               DFMP2               //
  //<<<<<<<<<<<<<<<<<<<<<<<<<<<<<<<<<<<//

	 --------------------------------------------------------
	                          DF-MP2                         
	      2nd-Order Density-Fitted Moller-Plesset Theory     
	              RMP2 Wavefunction,   8 Threads             
	                                                         
	        Rob Parrish, Justin Turney, Andy Simmonett,      
	           Ed Hohenstein, and C. David Sherrill          
	 --------------------------------------------------------

   => Auxiliary Basis Set <=

  Basis Set: (AUG-CC-PVTZ AUX)
    Blend: AUG-CC-PVTZ-RI
    Number of shells: 266
    Number of basis function: 958
    Number of Cartesian functions: 1201
    Spherical Harmonics?: true
    Max angular momentum: 4

	 --------------------------------------------------------
	                 NBF =   437, NAUX =   958
	 --------------------------------------------------------
	   CLASS    FOCC     OCC    AOCC    AVIR     VIR    FVIR
	   PAIRS       0      24      24     413     413       0
	 --------------------------------------------------------

  DFHelper Memory: AOs need 1.383 GiB; user supplied 22.352 GiB. Using in-core AOs.


         ------------------------------------------------------------
                                     CPHF                           
                                  Rob Parrish                       
         ------------------------------------------------------------

  ==> Geometry <==

    Molecular point group: c1
    Full point group: C1

    Geometry (in Angstrom), charge = 0, multiplicity = 1:

       Center              X                  Y                   Z               Mass       
    ------------   -----------------  -----------------  -----------------  -----------------
         O            1.487846164302     1.068016167315     0.116077584241    15.994914619570
         O            1.203489164302    -1.160540832685    -0.274692915759    15.994914619570
         N           -1.305948835698    -1.183020832685     0.043059584241    14.003074004430
         C           -0.688110935698     0.153057867315     0.408162184241    12.000000000000
         C           -1.388430835698     1.295556167315    -0.282301415759    12.000000000000
         C            0.821177164302     0.012492167315     0.039102584241    12.000000000000
         H           -0.769738835698     0.234163167315     1.492160584241     1.007825032230
         H           -1.847031835698    -1.140494832685    -0.826165415759     1.007825032230
         H           -1.906236835698    -1.580749832685     0.770083584241     1.007825032230
         H           -2.438328835698     1.367964167315     0.013351584241     1.007825032230
         H           -0.877335835698     2.217010167315    -0.003431415759     1.007825032230
         H           -1.330170835698     1.188636167315    -1.369865415759     1.007825032230
         H           -0.451879835698    -1.777930832685    -0.121268415759     1.007825032230

  Nuclear repulsion =  249.670707183968148
  Reference energy  = -321.954807755153467

  ==> Basis Set <==

  Basis Set: AUG-CC-PVTZ
    Blend: AUG-CC-PVTZ
    Number of shells: 147
    Number of basis function: 437
    Number of Cartesian functions: 505
    Spherical Harmonics?: true
    Max angular momentum: 3

  ==> CGRSolver (by Rob Parrish) <==

   Number of roots    =         1
   Preconditioning    =    JACOBI
   Convergence cutoff =     1E-06
   Maximum iterations =       100

  ==> CPHFRHamiltonian (by Rob Parrish) <== 

  ==> MemDFJK: Density-Fitted J/K Matrices <==

    J tasked:                   Yes
    K tasked:                   Yes
    wK tasked:                   No
    OpenMP threads:               8
    Memory [MiB]:             22888
    Algorithm:                 Core
    Schwarz Cutoff:           1E-12
    Mask sparsity (%):       1.4097
    Fitting Condition:        1E-10

   => Auxiliary Basis Set <=

  Basis Set: (AUG-CC-PVTZ AUX)
    Blend: AUG-CC-PVTZ-JKFIT
    Number of shells: 278
    Number of basis function: 946
    Number of Cartesian functions: 1171
    Spherical Harmonics?: true
    Max angular momentum: 4

  ==> CPHF Iterations <==

  => Iterations <=

             Iter  Converged  Remaining    Residual
  CGR           1          0          1   1.135E-01
  CGR           2          0          1   3.048E-02
  CGR           3          0          1   1.219E-02
  CGR           4          0          1   3.123E-03
  CGR           5          0          1   1.074E-03
  CGR           6          0          1   4.467E-04
  CGR           7          0          1   1.415E-04
  CGR           8          0          1   4.610E-05
  CGR           9          0          1   1.560E-05
  CGR          10          0          1   6.673E-06
  CGR          11          0          1   2.223E-06
  CGR          12          1          0   6.918E-07

    CGRSolver converged.

	-----------------------------------------------------------
	 ==================> DF-MP2 Energies <==================== 
	-----------------------------------------------------------
	 Reference Energy          =    -321.9548077551534675 [Eh]
	 Singles Energy            =      -0.0000000000000000 [Eh]
	 Same-Spin Energy          =      -0.3220648263993253 [Eh]
	 Opposite-Spin Energy      =      -1.0067548353024438 [Eh]
	 Correlation Energy        =      -1.3288196617017691 [Eh]
	 Total Energy              =    -323.2836274168552109 [Eh]
	-----------------------------------------------------------
	 ================> DF-SCS-MP2 Energies <================== 
	-----------------------------------------------------------
	 SCS Same-Spin Scale       =       0.3333333333333333 [-]
	 SCS Opposite-Spin Scale   =       1.2000000000000000 [-]
	 SCS Same-Spin Energy      =      -0.1073549421331084 [Eh]
	 SCS Opposite-Spin Energy  =      -1.2081058023629325 [Eh]
	 SCS Correlation Energy    =      -1.3154607444960409 [Eh]
	 SCS Total Energy          =    -323.2702684996494895 [Eh]
	-----------------------------------------------------------



Properties will be evaluated at   0.000000,   0.000000,   0.000000 [a0]

Properties computed using the MP2 density matrix

  Nuclear Dipole Moment: [e a0]
     X:    -9.0024      Y:     0.4798      Z:    -0.0432

  Electronic Dipole Moment: [e a0]
     X:     5.1690      Y:    -1.5843      Z:     0.3271

  Dipole Moment: [e a0]
     X:    -3.8334      Y:    -1.1045      Z:     0.2839     Total:     3.9994

  Dipole Moment: [D]
     X:    -9.7436      Y:    -2.8073      Z:     0.7215     Total:    10.1656


*** tstop() called on node93.bme.utexas.edu at Wed Nov  4 02:41:17 2020
Module time:
	user time   =     195.55 seconds =       3.26 minutes
	system time =       4.10 seconds =       0.07 minutes
	total time  =         29 seconds =       0.48 minutes
Total time:
	user time   =     260.55 seconds =       4.34 minutes
	system time =       5.72 seconds =       0.10 minutes
	total time  =         39 seconds =       0.65 minutes

    Psi4 stopped on: Wednesday, 04 November 2020 02:41AM
    Psi4 wall time for execution: 0:00:38.78

*** Psi4 exiting successfully. Buy a developer a beer!
