
    -----------------------------------------------------------------------
          Psi4: An Open-Source Ab Initio Electronic Structure Package
                               Psi4 1.3.2 release

                         Git: Rev {HEAD} ecbda83 


    R. M. Parrish, L. A. Burns, D. G. A. Smith, A. C. Simmonett,
    A. E. DePrince III, E. G. Hohenstein, U. Bozkaya, A. Yu. Sokolov,
    R. Di Remigio, R. M. Richard, J. F. Gonthier, A. M. James,
    H. R. McAlexander, A. Kumar, M. Saitow, X. Wang, B. P. Pritchard,
    P. Verma, H. F. Schaefer III, K. Patkowski, R. A. King, E. F. Valeev,
    F. A. Evangelista, J. M. Turney, T. D. Crawford, and C. D. Sherrill,
    J. Chem. Theory Comput. 13(7) pp 3185--3197 (2017).
    (doi: 10.1021/acs.jctc.7b00174)


                         Additional Contributions by
    P. Kraus, H. Kruse, M. H. Lechner, M. C. Schieber, R. A. Shaw,
    A. Alenaizan, R. Galvelis, Z. L. Glick, S. Lehtola, and J. P. Misiewicz

    -----------------------------------------------------------------------


    Psi4 started on: Wednesday, 04 November 2020 03:14AM

    Process ID: 122892
    Host:       node93.bme.utexas.edu
    PSIDATADIR: /home/xy3866/psi4conda/share/psi4
    Memory:     500.0 MiB
    Threads:    8
    
  ==> Input File <==

--------------------------------------------------------------------------
#psi4
#
memory 32 gb

molecule  {
0 1
  O        1.5890300     1.0650170     0.1165590
  O        1.2943400    -1.1672870    -0.2725970
  N       -1.2047650    -1.1860200     0.0435410
  C       -0.5716828     0.1538179     0.4174204
  C       -1.2872470     1.2925570    -0.2818200
  C        0.9223610     0.0094930     0.0395840
  H       -0.6685550     0.2311640     1.4926420
  H       -1.7458480    -1.1434940    -0.8256840
  H       -1.8050530    -1.5837490     0.7705650
  H       -2.3371450     1.3649650     0.0138330
  H       -0.7640682     2.2038891     0.0077001
  H       -1.2289870     1.1856370    -1.3693840
  H       -0.3506960    -1.7809300    -0.1207870
units angstrom
no_reorient  #important for SAPT in psi4, default
symmetry c1  #important for SAPT in psi4, default
}

set PROPERTIES_ORIGIN ["COM"]
properties('MP2/aug-cc-pvtz', properties = ['dipole'])
--------------------------------------------------------------------------

  Memory set to  29.802 GiB by Python driver.
    SCF Algorithm Type (re)set to DF.

*** tstart() called on node93.bme.utexas.edu
*** at Wed Nov  4 03:14:31 2020

   => Loading Basis Set <=

    Name: AUG-CC-PVTZ
    Role: ORBITAL
    Keyword: BASIS
    atoms 1-2  entry O          line   327 file /home/xy3866/psi4conda/share/psi4/basis/aug-cc-pvtz.gbs 
    atoms 3    entry N          line   281 file /home/xy3866/psi4conda/share/psi4/basis/aug-cc-pvtz.gbs 
    atoms 4-6  entry C          line   235 file /home/xy3866/psi4conda/share/psi4/basis/aug-cc-pvtz.gbs 
    atoms 7-13 entry H          line    36 file /home/xy3866/psi4conda/share/psi4/basis/aug-cc-pvtz.gbs 


         ---------------------------------------------------------
                                   SCF
               by Justin Turney, Rob Parrish, Andy Simmonett
                          and Daniel G. A. Smith
                              RHF Reference
                        8 Threads,  30517 MiB Core
         ---------------------------------------------------------

  ==> Geometry <==

    Molecular point group: c1
    Full point group: C1

    Geometry (in Angstrom), charge = 0, multiplicity = 1:

       Center              X                  Y                   Z               Mass       
    ------------   -----------------  -----------------  -----------------  -----------------
         O            1.487511124648     1.068297181371     0.114484293664    15.994914619570
         O            1.192821124648    -1.164006818629    -0.274671706336    15.994914619570
         N           -1.306283875352    -1.182739818629     0.041466293664    14.003074004430
         C           -0.673201675352     0.157098081371     0.415345693664    12.000000000000
         C           -1.388765875352     1.295837181371    -0.283894706336    12.000000000000
         C            0.820842124648     0.012773181371     0.037509293664    12.000000000000
         H           -0.770073875352     0.234444181371     1.490567293664     1.007825032230
         H           -1.847366875352    -1.140213818629    -0.827758706336     1.007825032230
         H           -1.906571875352    -1.580468818629     0.768490293664     1.007825032230
         H           -2.438663875352     1.368245181371     0.011758293664     1.007825032230
         H           -0.865587075352     2.207169281371     0.005625393664     1.007825032230
         H           -1.330505875352     1.188917181371    -1.371458706336     1.007825032230
         H           -0.452214875352    -1.777649818629    -0.122861706336     1.007825032230

  Running in c1 symmetry.

  Rotational constants: A =      0.16032  B =      0.11619  C =      0.07316 [cm^-1]
  Rotational constants: A =   4806.14517  B =   3483.38593  C =   2193.17420 [MHz]
  Nuclear repulsion =  249.787159525207443

  Charge       = 0
  Multiplicity = 1
  Electrons    = 48
  Nalpha       = 24
  Nbeta        = 24

  ==> Algorithm <==

  SCF Algorithm Type is DF.
  DIIS enabled.
  MOM disabled.
  Fractional occupation disabled.
  Guess Type is SAD.
  Energy threshold   = 1.00e-10
  Density threshold  = 1.00e-10
  Integral threshold = 0.00e+00

  ==> Primary Basis <==

  Basis Set: AUG-CC-PVTZ
    Blend: AUG-CC-PVTZ
    Number of shells: 147
    Number of basis function: 437
    Number of Cartesian functions: 505
    Spherical Harmonics?: true
    Max angular momentum: 3

   => Loading Basis Set <=

    Name: (AUG-CC-PVTZ AUX)
    Role: JKFIT
    Keyword: DF_BASIS_SCF
    atoms 1-2  entry O          line   286 file /home/xy3866/psi4conda/share/psi4/basis/aug-cc-pvtz-jkfit.gbs 
    atoms 3    entry N          line   224 file /home/xy3866/psi4conda/share/psi4/basis/aug-cc-pvtz-jkfit.gbs 
    atoms 4-6  entry C          line   162 file /home/xy3866/psi4conda/share/psi4/basis/aug-cc-pvtz-jkfit.gbs 
    atoms 7-13 entry H          line    70 file /home/xy3866/psi4conda/share/psi4/basis/aug-cc-pvtz-jkfit.gbs 

  ==> Pre-Iterations <==

   -------------------------------------------------------
    Irrep   Nso     Nmo     Nalpha   Nbeta   Ndocc  Nsocc
   -------------------------------------------------------
     A        437     437       0       0       0       0
   -------------------------------------------------------
    Total     437     437      24      24      24       0
   -------------------------------------------------------

  ==> Integral Setup <==

  DFHelper Memory: AOs need 1.384 GiB; user supplied 22.352 GiB. Using in-core AOs.

  ==> MemDFJK: Density-Fitted J/K Matrices <==

    J tasked:                   Yes
    K tasked:                   Yes
    wK tasked:                   No
    OpenMP threads:               8
    Memory [MiB]:             22888
    Algorithm:                 Core
    Schwarz Cutoff:           1E-12
    Mask sparsity (%):       1.3929
    Fitting Condition:        1E-10

   => Auxiliary Basis Set <=

  Basis Set: (AUG-CC-PVTZ AUX)
    Blend: AUG-CC-PVTZ-JKFIT
    Number of shells: 278
    Number of basis function: 946
    Number of Cartesian functions: 1171
    Spherical Harmonics?: true
    Max angular momentum: 4

  Minimum eigenvalue in the overlap matrix is 7.4050350954E-06.
  Using Symmetric Orthogonalization.

  SCF Guess: Superposition of Atomic Densities via on-the-fly atomic UHF.

  ==> Iterations <==

                           Total Energy        Delta E     RMS |[F,P]|

   @DF-RHF iter SAD:  -321.12501915148709   -3.21125e+02   0.00000e+00 
   @DF-RHF iter   1:  -321.70055415051445   -5.75535e-01   1.67453e-03 DIIS
   @DF-RHF iter   2:  -321.88654143802097   -1.85987e-01   1.01750e-03 DIIS
   @DF-RHF iter   3:  -321.95129763969084   -6.47562e-02   1.65685e-04 DIIS
   @DF-RHF iter   4:  -321.95441424237350   -3.11660e-03   6.22570e-05 DIIS
   @DF-RHF iter   5:  -321.95488892981393   -4.74687e-04   1.36990e-05 DIIS
   @DF-RHF iter   6:  -321.95491810203811   -2.91722e-05   6.12133e-06 DIIS
   @DF-RHF iter   7:  -321.95492203284846   -3.93081e-06   1.90010e-06 DIIS
   @DF-RHF iter   8:  -321.95492264660322   -6.13755e-07   6.31029e-07 DIIS
   @DF-RHF iter   9:  -321.95492273146652   -8.48633e-08   1.98970e-07 DIIS
   @DF-RHF iter  10:  -321.95492274225450   -1.07880e-08   7.41553e-08 DIIS
   @DF-RHF iter  11:  -321.95492274365921   -1.40471e-09   2.71960e-08 DIIS
   @DF-RHF iter  12:  -321.95492274386623   -2.07024e-10   1.06582e-08 DIIS
   @DF-RHF iter  13:  -321.95492274389915   -3.29123e-11   3.62447e-09 DIIS
   @DF-RHF iter  14:  -321.95492274390278   -3.63798e-12   1.33292e-09 DIIS
   @DF-RHF iter  15:  -321.95492274390375   -9.66338e-13   3.55611e-10 DIIS
   @DF-RHF iter  16:  -321.95492274390307    6.82121e-13   1.02042e-10 DIIS
   @DF-RHF iter  17:  -321.95492274390352   -4.54747e-13   3.72681e-11 DIIS
  Energy and wave function converged.


  ==> Post-Iterations <==

    Orbital Energies [Eh]
    ---------------------

    Doubly Occupied:                                                      

       1A    -20.489764     2A    -20.473267     3A    -15.706419  
       4A    -11.327899     5A    -11.313067     6A    -11.252387  
       7A     -1.366211     8A     -1.316832     9A     -1.255227  
      10A     -1.062053    11A     -0.910778    12A     -0.803488  
      13A     -0.775325    14A     -0.723584    15A     -0.675624  
      16A     -0.630812    17A     -0.584364    18A     -0.574745  
      19A     -0.559903    20A     -0.553523    21A     -0.513870  
      22A     -0.408167    23A     -0.386060    24A     -0.377544  

    Virtual:                                                              

      25A     -0.002017    26A      0.022427    27A      0.026221  
      28A      0.042440    29A      0.051566    30A      0.055747  
      31A      0.063518    32A      0.082679    33A      0.092512  
      34A      0.098248    35A      0.111228    36A      0.113632  
      37A      0.119677    38A      0.124764    39A      0.135273  
      40A      0.138533    41A      0.142353    42A      0.147168  
      43A      0.153311    44A      0.157177    45A      0.171735  
      46A      0.181754    47A      0.190202    48A      0.218422  
      49A      0.225732    50A      0.232838    51A      0.240533  
      52A      0.248490    53A      0.251470    54A      0.258320  
      55A      0.264052    56A      0.274914    57A      0.282501  
      58A      0.289005    59A      0.291151    60A      0.300491  
      61A      0.307131    62A      0.320140    63A      0.329937  
      64A      0.330591    65A      0.346544    66A      0.347299  
      67A      0.350691    68A      0.355337    69A      0.360679  
      70A      0.369623    71A      0.374921    72A      0.377895  
      73A      0.390906    74A      0.397840    75A      0.404529  
      76A      0.412978    77A      0.416101    78A      0.421771  
      79A      0.430340    80A      0.436430    81A      0.440456  
      82A      0.442244    83A      0.456421    84A      0.473391  
      85A      0.476959    86A      0.482948    87A      0.493794  
      88A      0.499155    89A      0.513242    90A      0.518163  
      91A      0.533773    92A      0.543265    93A      0.548013  
      94A      0.570124    95A      0.576251    96A      0.583909  
      97A      0.598512    98A      0.600355    99A      0.607094  
     100A      0.612856   101A      0.618071   102A      0.627972  
     103A      0.641353   104A      0.664447   105A      0.688411  
     106A      0.696093   107A      0.719143   108A      0.725514  
     109A      0.740730   110A      0.754534   111A      0.765174  
     112A      0.773946   113A      0.787956   114A      0.800919  
     115A      0.810262   116A      0.823442   117A      0.830832  
     118A      0.835229   119A      0.848391   120A      0.857594  
     121A      0.859923   122A      0.868420   123A      0.874345  
     124A      0.886898   125A      0.890694   126A      0.896278  
     127A      0.909022   128A      0.924494   129A      0.930813  
     130A      0.937280   131A      0.942831   132A      0.958967  
     133A      0.965243   134A      0.973602   135A      0.978943  
     136A      0.988633   137A      1.002378   138A      1.004668  
     139A      1.018543   140A      1.027059   141A      1.044470  
     142A      1.049037   143A      1.057392   144A      1.067986  
     145A      1.073697   146A      1.090725   147A      1.104871  
     148A      1.112301   149A      1.118753   150A      1.132808  
     151A      1.150539   152A      1.153933   153A      1.161370  
     154A      1.171052   155A      1.189553   156A      1.196564  
     157A      1.207887   158A      1.216535   159A      1.228275  
     160A      1.236364   161A      1.249552   162A      1.269520  
     163A      1.279016   164A      1.287220   165A      1.295752  
     166A      1.312009   167A      1.320244   168A      1.347733  
     169A      1.353878   170A      1.373746   171A      1.380824  
     172A      1.391749   173A      1.400920   174A      1.411580  
     175A      1.419502   176A      1.448447   177A      1.451718  
     178A      1.473040   179A      1.479218   180A      1.482500  
     181A      1.500378   182A      1.520436   183A      1.526697  
     184A      1.537944   185A      1.556337   186A      1.578350  
     187A      1.581680   188A      1.605194   189A      1.610982  
     190A      1.614952   191A      1.645063   192A      1.653983  
     193A      1.666603   194A      1.673528   195A      1.686975  
     196A      1.703717   197A      1.712493   198A      1.713895  
     199A      1.724457   200A      1.732479   201A      1.756843  
     202A      1.766799   203A      1.774337   204A      1.786134  
     205A      1.792133   206A      1.817352   207A      1.823958  
     208A      1.832870   209A      1.848862   210A      1.854539  
     211A      1.861283   212A      1.879725   213A      1.885076  
     214A      1.912453   215A      1.926530   216A      1.956468  
     217A      1.973049   218A      1.998281   219A      2.014709  
     220A      2.033733   221A      2.042819   222A      2.071638  
     223A      2.081264   224A      2.093298   225A      2.100547  
     226A      2.133230   227A      2.147219   228A      2.169374  
     229A      2.179996   230A      2.190306   231A      2.214840  
     232A      2.218892   233A      2.245034   234A      2.270739  
     235A      2.290479   236A      2.315672   237A      2.333021  
     238A      2.356463   239A      2.391098   240A      2.406768  
     241A      2.426075   242A      2.438003   243A      2.457697  
     244A      2.471759   245A      2.506128   246A      2.517594  
     247A      2.522394   248A      2.550064   249A      2.556601  
     250A      2.575767   251A      2.592102   252A      2.632811  
     253A      2.640719   254A      2.661158   255A      2.672415  
     256A      2.698389   257A      2.719471   258A      2.739316  
     259A      2.760598   260A      2.800829   261A      2.821149  
     262A      2.835365   263A      2.844639   264A      2.891674  
     265A      2.917794   266A      2.950907   267A      2.969522  
     268A      2.993211   269A      3.025452   270A      3.068572  
     271A      3.086280   272A      3.154564   273A      3.177282  
     274A      3.200085   275A      3.252333   276A      3.290585  
     277A      3.333275   278A      3.354702   279A      3.388839  
     280A      3.438691   281A      3.454692   282A      3.482570  
     283A      3.509528   284A      3.536142   285A      3.577433  
     286A      3.611605   287A      3.635309   288A      3.643237  
     289A      3.654447   290A      3.681529   291A      3.687971  
     292A      3.703973   293A      3.714011   294A      3.761257  
     295A      3.786139   296A      3.792604   297A      3.822058  
     298A      3.832916   299A      3.869805   300A      3.893991  
     301A      3.907358   302A      3.925931   303A      3.949030  
     304A      3.964180   305A      3.985095   306A      3.998918  
     307A      4.020237   308A      4.039121   309A      4.063338  
     310A      4.079253   311A      4.091055   312A      4.118249  
     313A      4.135067   314A      4.155018   315A      4.187592  
     316A      4.194805   317A      4.204286   318A      4.228933  
     319A      4.245865   320A      4.249379   321A      4.269987  
     322A      4.295814   323A      4.322790   324A      4.352627  
     325A      4.378933   326A      4.385939   327A      4.400610  
     328A      4.433241   329A      4.468154   330A      4.489828  
     331A      4.509693   332A      4.513785   333A      4.540368  
     334A      4.567152   335A      4.585306   336A      4.608711  
     337A      4.640419   338A      4.656392   339A      4.663329  
     340A      4.683253   341A      4.703334   342A      4.750079  
     343A      4.783997   344A      4.788632   345A      4.813081  
     346A      4.816272   347A      4.832440   348A      4.842084  
     349A      4.880826   350A      4.889704   351A      4.911831  
     352A      4.927465   353A      4.963070   354A      5.003404  
     355A      5.044901   356A      5.059417   357A      5.082373  
     358A      5.092229   359A      5.122524   360A      5.135606  
     361A      5.147316   362A      5.175355   363A      5.184540  
     364A      5.211351   365A      5.242840   366A      5.254708  
     367A      5.279394   368A      5.297320   369A      5.312982  
     370A      5.349877   371A      5.404107   372A      5.411390  
     373A      5.414584   374A      5.447267   375A      5.500048  
     376A      5.530771   377A      5.543233   378A      5.645090  
     379A      5.713828   380A      5.738452   381A      5.748979  
     382A      5.798045   383A      5.838845   384A      5.861840  
     385A      5.867419   386A      5.957742   387A      6.062370  
     388A      6.084608   389A      6.096318   390A      6.144252  
     391A      6.150230   392A      6.189989   393A      6.262459  
     394A      6.277722   395A      6.321122   396A      6.393004  
     397A      6.411060   398A      6.541425   399A      6.636961  
     400A      6.765839   401A      6.787968   402A      6.797289  
     403A      6.829780   404A      6.900062   405A      6.916996  
     406A      6.939812   407A      6.987126   408A      7.000476  
     409A      7.027569   410A      7.058100   411A      7.064572  
     412A      7.090813   413A      7.167714   414A      7.214341  
     415A      7.253221   416A      7.277516   417A      7.417744  
     418A      7.442668   419A      7.463681   420A      7.495300  
     421A      7.700671   422A      7.706821   423A      7.745724  
     424A      7.748149   425A      7.773104   426A      7.801249  
     427A      7.831114   428A      7.942746   429A      8.025868  
     430A      8.083561   431A      8.132120   432A     14.877861  
     433A     15.618231   434A     17.128435   435A     18.456741  
     436A     19.033928   437A     20.672934  

    Final Occupation by Irrep:
              A 
    DOCC [    24 ]

  @DF-RHF Final Energy:  -321.95492274390352

   => Energetics <=

    Nuclear Repulsion Energy =            249.7871595252074428
    One-Electron Energy =                -935.4023370406782760
    Two-Electron Energy =                 363.6602547715672813
    Total Energy =                       -321.9549227439035235

Computation Completed

*** tstop() called on node93.bme.utexas.edu at Wed Nov  4 03:14:41 2020
Module time:
	user time   =      64.34 seconds =       1.07 minutes
	system time =       1.60 seconds =       0.03 minutes
	total time  =         10 seconds =       0.17 minutes
Total time:
	user time   =      64.34 seconds =       1.07 minutes
	system time =       1.60 seconds =       0.03 minutes
	total time  =         10 seconds =       0.17 minutes
   => Loading Basis Set <=

    Name: (AUG-CC-PVTZ AUX)
    Role: RIFIT
    Keyword: DF_BASIS_MP2
    atoms 1-2  entry O          line   264 file /home/xy3866/psi4conda/share/psi4/basis/aug-cc-pvtz-ri.gbs 
    atoms 3    entry N          line   206 file /home/xy3866/psi4conda/share/psi4/basis/aug-cc-pvtz-ri.gbs 
    atoms 4-6  entry C          line   148 file /home/xy3866/psi4conda/share/psi4/basis/aug-cc-pvtz-ri.gbs 
    atoms 7-13 entry H          line    30 file /home/xy3866/psi4conda/share/psi4/basis/aug-cc-pvtz-ri.gbs 


*** tstart() called on node93.bme.utexas.edu
*** at Wed Nov  4 03:14:41 2020


  //>>>>>>>>>>>>>>>>>>>>>>>>>>>>>>>>>>>//
  //               DFMP2               //
  //<<<<<<<<<<<<<<<<<<<<<<<<<<<<<<<<<<<//

	 --------------------------------------------------------
	                          DF-MP2                         
	      2nd-Order Density-Fitted Moller-Plesset Theory     
	              RMP2 Wavefunction,   8 Threads             
	                                                         
	        Rob Parrish, Justin Turney, Andy Simmonett,      
	           Ed Hohenstein, and C. David Sherrill          
	 --------------------------------------------------------

   => Auxiliary Basis Set <=

  Basis Set: (AUG-CC-PVTZ AUX)
    Blend: AUG-CC-PVTZ-RI
    Number of shells: 266
    Number of basis function: 958
    Number of Cartesian functions: 1201
    Spherical Harmonics?: true
    Max angular momentum: 4

	 --------------------------------------------------------
	                 NBF =   437, NAUX =   958
	 --------------------------------------------------------
	   CLASS    FOCC     OCC    AOCC    AVIR     VIR    FVIR
	   PAIRS       0      24      24     413     413       0
	 --------------------------------------------------------

  DFHelper Memory: AOs need 1.384 GiB; user supplied 22.352 GiB. Using in-core AOs.


         ------------------------------------------------------------
                                     CPHF                           
                                  Rob Parrish                       
         ------------------------------------------------------------

  ==> Geometry <==

    Molecular point group: c1
    Full point group: C1

    Geometry (in Angstrom), charge = 0, multiplicity = 1:

       Center              X                  Y                   Z               Mass       
    ------------   -----------------  -----------------  -----------------  -----------------
         O            1.487511124648     1.068297181371     0.114484293664    15.994914619570
         O            1.192821124648    -1.164006818629    -0.274671706336    15.994914619570
         N           -1.306283875352    -1.182739818629     0.041466293664    14.003074004430
         C           -0.673201675352     0.157098081371     0.415345693664    12.000000000000
         C           -1.388765875352     1.295837181371    -0.283894706336    12.000000000000
         C            0.820842124648     0.012773181371     0.037509293664    12.000000000000
         H           -0.770073875352     0.234444181371     1.490567293664     1.007825032230
         H           -1.847366875352    -1.140213818629    -0.827758706336     1.007825032230
         H           -1.906571875352    -1.580468818629     0.768490293664     1.007825032230
         H           -2.438663875352     1.368245181371     0.011758293664     1.007825032230
         H           -0.865587075352     2.207169281371     0.005625393664     1.007825032230
         H           -1.330505875352     1.188917181371    -1.371458706336     1.007825032230
         H           -0.452214875352    -1.777649818629    -0.122861706336     1.007825032230

  Nuclear repulsion =  249.787159525207443
  Reference energy  = -321.954922743903523

  ==> Basis Set <==

  Basis Set: AUG-CC-PVTZ
    Blend: AUG-CC-PVTZ
    Number of shells: 147
    Number of basis function: 437
    Number of Cartesian functions: 505
    Spherical Harmonics?: true
    Max angular momentum: 3

  ==> CGRSolver (by Rob Parrish) <==

   Number of roots    =         1
   Preconditioning    =    JACOBI
   Convergence cutoff =     1E-06
   Maximum iterations =       100

  ==> CPHFRHamiltonian (by Rob Parrish) <== 

  ==> MemDFJK: Density-Fitted J/K Matrices <==

    J tasked:                   Yes
    K tasked:                   Yes
    wK tasked:                   No
    OpenMP threads:               8
    Memory [MiB]:             22888
    Algorithm:                 Core
    Schwarz Cutoff:           1E-12
    Mask sparsity (%):       1.3929
    Fitting Condition:        1E-10

   => Auxiliary Basis Set <=

  Basis Set: (AUG-CC-PVTZ AUX)
    Blend: AUG-CC-PVTZ-JKFIT
    Number of shells: 278
    Number of basis function: 946
    Number of Cartesian functions: 1171
    Spherical Harmonics?: true
    Max angular momentum: 4

  ==> CPHF Iterations <==

  => Iterations <=

             Iter  Converged  Remaining    Residual
  CGR           1          0          1   1.136E-01
  CGR           2          0          1   3.049E-02
  CGR           3          0          1   1.222E-02
  CGR           4          0          1   3.144E-03
  CGR           5          0          1   1.124E-03
  CGR           6          0          1   4.501E-04
  CGR           7          0          1   1.415E-04
  CGR           8          0          1   4.634E-05
  CGR           9          0          1   1.602E-05
  CGR          10          0          1   6.948E-06
  CGR          11          0          1   2.299E-06
  CGR          12          1          0   7.193E-07

    CGRSolver converged.

	-----------------------------------------------------------
	 ==================> DF-MP2 Energies <==================== 
	-----------------------------------------------------------
	 Reference Energy          =    -321.9549227439035235 [Eh]
	 Singles Energy            =      -0.0000000000000000 [Eh]
	 Same-Spin Energy          =      -0.3219897972872329 [Eh]
	 Opposite-Spin Energy      =      -1.0067520760765007 [Eh]
	 Correlation Energy        =      -1.3287418733637337 [Eh]
	 Total Energy              =    -323.2836646172672772 [Eh]
	-----------------------------------------------------------
	 ================> DF-SCS-MP2 Energies <================== 
	-----------------------------------------------------------
	 SCS Same-Spin Scale       =       0.3333333333333333 [-]
	 SCS Opposite-Spin Scale   =       1.2000000000000000 [-]
	 SCS Same-Spin Energy      =      -0.1073299324290776 [Eh]
	 SCS Opposite-Spin Energy  =      -1.2081024912918008 [Eh]
	 SCS Correlation Energy    =      -1.3154324237208783 [Eh]
	 SCS Total Energy          =    -323.2703551676244160 [Eh]
	-----------------------------------------------------------



Properties will be evaluated at  -0.000000,   0.000000,   0.000000 [a0]

Properties computed using the MP2 density matrix

  Nuclear Dipole Moment: [e a0]
     X:    -8.9933      Y:     0.4721      Z:    -0.0437

  Electronic Dipole Moment: [e a0]
     X:     5.1809      Y:    -1.5639      Z:     0.3337

  Dipole Moment: [e a0]
     X:    -3.8124      Y:    -1.0918      Z:     0.2900     Total:     3.9763

  Dipole Moment: [D]
     X:    -9.6903      Y:    -2.7750      Z:     0.7372     Total:    10.1067


*** tstop() called on node93.bme.utexas.edu at Wed Nov  4 03:15:10 2020
Module time:
	user time   =     195.46 seconds =       3.26 minutes
	system time =       4.24 seconds =       0.07 minutes
	total time  =         29 seconds =       0.48 minutes
Total time:
	user time   =     260.79 seconds =       4.35 minutes
	system time =       5.87 seconds =       0.10 minutes
	total time  =         39 seconds =       0.65 minutes

    Psi4 stopped on: Wednesday, 04 November 2020 03:15AM
    Psi4 wall time for execution: 0:00:38.71

*** Psi4 exiting successfully. Buy a developer a beer!
