
    -----------------------------------------------------------------------
          Psi4: An Open-Source Ab Initio Electronic Structure Package
                               Psi4 1.3.2 release

                         Git: Rev {HEAD} ecbda83 


    R. M. Parrish, L. A. Burns, D. G. A. Smith, A. C. Simmonett,
    A. E. DePrince III, E. G. Hohenstein, U. Bozkaya, A. Yu. Sokolov,
    R. Di Remigio, R. M. Richard, J. F. Gonthier, A. M. James,
    H. R. McAlexander, A. Kumar, M. Saitow, X. Wang, B. P. Pritchard,
    P. Verma, H. F. Schaefer III, K. Patkowski, R. A. King, E. F. Valeev,
    F. A. Evangelista, J. M. Turney, T. D. Crawford, and C. D. Sherrill,
    J. Chem. Theory Comput. 13(7) pp 3185--3197 (2017).
    (doi: 10.1021/acs.jctc.7b00174)


                         Additional Contributions by
    P. Kraus, H. Kruse, M. H. Lechner, M. C. Schieber, R. A. Shaw,
    A. Alenaizan, R. Galvelis, Z. L. Glick, S. Lehtola, and J. P. Misiewicz

    -----------------------------------------------------------------------


    Psi4 started on: Wednesday, 04 November 2020 02:59AM

    Process ID: 122154
    Host:       node93.bme.utexas.edu
    PSIDATADIR: /home/xy3866/psi4conda/share/psi4
    Memory:     500.0 MiB
    Threads:    8
    
  ==> Input File <==

--------------------------------------------------------------------------
#psi4
#
memory 32 gb

molecule  {
0 1
  O        1.5890300     1.0650170     0.1165590
  O        1.2943400    -1.1672870    -0.2725970
  N       -1.2195418    -1.1977629     0.1199671
  C       -0.5886430     0.1367320     0.4064510
  C       -1.2872470     1.2925570    -0.2818200
  C        0.9223610     0.0094930     0.0395840
  H       -0.6941572     0.1799865     1.4936998
  H       -1.7458480    -1.1434940    -0.8256840
  H       -1.8050530    -1.5837490     0.7705650
  H       -2.3371450     1.3649650     0.0138330
  H       -0.7761520     2.2140110    -0.0029500
  H       -1.2289870     1.1856370    -1.3693840
  H       -0.3506960    -1.7809300    -0.1207870
units angstrom
no_reorient  #important for SAPT in psi4, default
symmetry c1  #important for SAPT in psi4, default
}

set PROPERTIES_ORIGIN ["COM"]
properties('MP2/aug-cc-pvtz', properties = ['dipole'])
--------------------------------------------------------------------------

  Memory set to  29.802 GiB by Python driver.
    SCF Algorithm Type (re)set to DF.

*** tstart() called on node93.bme.utexas.edu
*** at Wed Nov  4 02:59:19 2020

   => Loading Basis Set <=

    Name: AUG-CC-PVTZ
    Role: ORBITAL
    Keyword: BASIS
    atoms 1-2  entry O          line   327 file /home/xy3866/psi4conda/share/psi4/basis/aug-cc-pvtz.gbs 
    atoms 3    entry N          line   281 file /home/xy3866/psi4conda/share/psi4/basis/aug-cc-pvtz.gbs 
    atoms 4-6  entry C          line   235 file /home/xy3866/psi4conda/share/psi4/basis/aug-cc-pvtz.gbs 
    atoms 7-13 entry H          line    36 file /home/xy3866/psi4conda/share/psi4/basis/aug-cc-pvtz.gbs 


         ---------------------------------------------------------
                                   SCF
               by Justin Turney, Rob Parrish, Andy Simmonett
                          and Daniel G. A. Smith
                              RHF Reference
                        8 Threads,  30517 MiB Core
         ---------------------------------------------------------

  ==> Geometry <==

    Molecular point group: c1
    Full point group: C1

    Geometry (in Angstrom), charge = 0, multiplicity = 1:

       Center              X                  Y                   Z               Mass       
    ------------   -----------------  -----------------  -----------------  -----------------
         O            1.492546897909     1.072910938475     0.104052801343    15.994914619570
         O            1.197856897909    -1.159393061525    -0.285103198657    15.994914619570
         N           -1.316024902091    -1.189868961525     0.107460901343    14.003074004430
         C           -0.685126102091     0.144625938475     0.393944801343    12.000000000000
         C           -1.383730102091     1.300450938475    -0.294326198657    12.000000000000
         C            0.825877897909     0.017386938475     0.027077801343    12.000000000000
         H           -0.790640302091     0.187880438475     1.481193601343     1.007825032230
         H           -1.842331102091    -1.135600061525    -0.838190198657     1.007825032230
         H           -1.901536102091    -1.575855061525     0.758058801343     1.007825032230
         H           -2.433628102091     1.372858938475     0.001326801343     1.007825032230
         H           -0.872635102091     2.221904938475    -0.015456198657     1.007825032230
         H           -1.325470102091     1.193530938475    -1.381890198657     1.007825032230
         H           -0.447179102091    -1.773036061525    -0.133293198657     1.007825032230

  Running in c1 symmetry.

  Rotational constants: A =      0.15980  B =      0.11540  C =      0.07276 [cm^-1]
  Rotational constants: A =   4790.76727  B =   3459.59649  C =   2181.42195 [MHz]
  Nuclear repulsion =  249.500085157954487

  Charge       = 0
  Multiplicity = 1
  Electrons    = 48
  Nalpha       = 24
  Nbeta        = 24

  ==> Algorithm <==

  SCF Algorithm Type is DF.
  DIIS enabled.
  MOM disabled.
  Fractional occupation disabled.
  Guess Type is SAD.
  Energy threshold   = 1.00e-10
  Density threshold  = 1.00e-10
  Integral threshold = 0.00e+00

  ==> Primary Basis <==

  Basis Set: AUG-CC-PVTZ
    Blend: AUG-CC-PVTZ
    Number of shells: 147
    Number of basis function: 437
    Number of Cartesian functions: 505
    Spherical Harmonics?: true
    Max angular momentum: 3

   => Loading Basis Set <=

    Name: (AUG-CC-PVTZ AUX)
    Role: JKFIT
    Keyword: DF_BASIS_SCF
    atoms 1-2  entry O          line   286 file /home/xy3866/psi4conda/share/psi4/basis/aug-cc-pvtz-jkfit.gbs 
    atoms 3    entry N          line   224 file /home/xy3866/psi4conda/share/psi4/basis/aug-cc-pvtz-jkfit.gbs 
    atoms 4-6  entry C          line   162 file /home/xy3866/psi4conda/share/psi4/basis/aug-cc-pvtz-jkfit.gbs 
    atoms 7-13 entry H          line    70 file /home/xy3866/psi4conda/share/psi4/basis/aug-cc-pvtz-jkfit.gbs 

  ==> Pre-Iterations <==

   -------------------------------------------------------
    Irrep   Nso     Nmo     Nalpha   Nbeta   Ndocc  Nsocc
   -------------------------------------------------------
     A        437     437       0       0       0       0
   -------------------------------------------------------
    Total     437     437      24      24      24       0
   -------------------------------------------------------

  ==> Integral Setup <==

  DFHelper Memory: AOs need 1.383 GiB; user supplied 22.352 GiB. Using in-core AOs.

  ==> MemDFJK: Density-Fitted J/K Matrices <==

    J tasked:                   Yes
    K tasked:                   Yes
    wK tasked:                   No
    OpenMP threads:               8
    Memory [MiB]:             22888
    Algorithm:                 Core
    Schwarz Cutoff:           1E-12
    Mask sparsity (%):       1.4107
    Fitting Condition:        1E-10

   => Auxiliary Basis Set <=

  Basis Set: (AUG-CC-PVTZ AUX)
    Blend: AUG-CC-PVTZ-JKFIT
    Number of shells: 278
    Number of basis function: 946
    Number of Cartesian functions: 1171
    Spherical Harmonics?: true
    Max angular momentum: 4

  Minimum eigenvalue in the overlap matrix is 7.8114465869E-06.
  Using Symmetric Orthogonalization.

  SCF Guess: Superposition of Atomic Densities via on-the-fly atomic UHF.

  ==> Iterations <==

                           Total Energy        Delta E     RMS |[F,P]|

   @DF-RHF iter SAD:  -321.12871456951063   -3.21129e+02   0.00000e+00 
   @DF-RHF iter   1:  -321.69040840986946   -5.61694e-01   1.67575e-03 DIIS
   @DF-RHF iter   2:  -321.87667679825466   -1.86268e-01   1.01930e-03 DIIS
   @DF-RHF iter   3:  -321.94163132372506   -6.49545e-02   1.66484e-04 DIIS
   @DF-RHF iter   4:  -321.94477456244283   -3.14324e-03   6.23646e-05 DIIS
   @DF-RHF iter   5:  -321.94525936198380   -4.84800e-04   1.38874e-05 DIIS
   @DF-RHF iter   6:  -321.94528953752604   -3.01755e-05   6.18250e-06 DIIS
   @DF-RHF iter   7:  -321.94529361720413   -4.07968e-06   1.91305e-06 DIIS
   @DF-RHF iter   8:  -321.94529424327033   -6.26066e-07   6.51993e-07 DIIS
   @DF-RHF iter   9:  -321.94529433139274   -8.81224e-08   2.04440e-07 DIIS
   @DF-RHF iter  10:  -321.94529434305662   -1.16639e-08   7.58166e-08 DIIS
   @DF-RHF iter  11:  -321.94529434459122   -1.53460e-09   2.77246e-08 DIIS
   @DF-RHF iter  12:  -321.94529434480370   -2.12481e-10   1.08602e-08 DIIS
   @DF-RHF iter  13:  -321.94529434483690   -3.31966e-11   3.74278e-09 DIIS
   @DF-RHF iter  14:  -321.94529434484093   -4.03588e-12   1.37717e-09 DIIS
   @DF-RHF iter  15:  -321.94529434484156   -6.25278e-13   3.72857e-10 DIIS
   @DF-RHF iter  16:  -321.94529434484105    5.11591e-13   1.06753e-10 DIIS
   @DF-RHF iter  17:  -321.94529434484167   -6.25278e-13   3.80153e-11 DIIS
  Energy and wave function converged.


  ==> Post-Iterations <==

    Orbital Energies [Eh]
    ---------------------

    Doubly Occupied:                                                      

       1A    -20.491669     2A    -20.474658     3A    -15.707432  
       4A    -11.329998     5A    -11.312084     6A    -11.252849  
       7A     -1.367672     8A     -1.322374     9A     -1.256376  
      10A     -1.061218    11A     -0.911191    12A     -0.822129  
      13A     -0.760847    14A     -0.730071    15A     -0.665065  
      16A     -0.630850    17A     -0.582432    18A     -0.572148  
      19A     -0.565279    20A     -0.552164    21A     -0.513419  
      22A     -0.408726    23A     -0.386820    24A     -0.378691  

    Virtual:                                                              

      25A     -0.001905    26A      0.022536    27A      0.026317  
      28A      0.042401    29A      0.051621    30A      0.055650  
      31A      0.063554    32A      0.082982    33A      0.092052  
      34A      0.098073    35A      0.111512    36A      0.115482  
      37A      0.117736    38A      0.124015    39A      0.134710  
      40A      0.138593    41A      0.142839    42A      0.146562  
      43A      0.153388    44A      0.157208    45A      0.172127  
      46A      0.180225    47A      0.190001    48A      0.217284  
      49A      0.225333    50A      0.233111    51A      0.239821  
      52A      0.248087    53A      0.251824    54A      0.257628  
      55A      0.267971    56A      0.276940    57A      0.282225  
      58A      0.287826    59A      0.292999    60A      0.300639  
      61A      0.304378    62A      0.318996    63A      0.328952  
      64A      0.330623    65A      0.345981    66A      0.349155  
      67A      0.350926    68A      0.354194    69A      0.360945  
      70A      0.370097    71A      0.373934    72A      0.383793  
      73A      0.392278    74A      0.394278    75A      0.401854  
      76A      0.411401    77A      0.416456    78A      0.422165  
      79A      0.430906    80A      0.436403    81A      0.440934  
      82A      0.443746    83A      0.455489    84A      0.467536  
      85A      0.478619    86A      0.482516    87A      0.493678  
      88A      0.498646    89A      0.513551    90A      0.519414  
      91A      0.535221    92A      0.540527    93A      0.549865  
      94A      0.568949    95A      0.576359    96A      0.586214  
      97A      0.598160    98A      0.601960    99A      0.607516  
     100A      0.614054   101A      0.617980   102A      0.627266  
     103A      0.642692   104A      0.662481   105A      0.689359  
     106A      0.693962   107A      0.716169   108A      0.730023  
     109A      0.733037   110A      0.761177   111A      0.764428  
     112A      0.773982   113A      0.785962   114A      0.801629  
     115A      0.811383   116A      0.818936   117A      0.828464  
     118A      0.836520   119A      0.844830   120A      0.857522  
     121A      0.863530   122A      0.865183   123A      0.873024  
     124A      0.885148   125A      0.889525   126A      0.897343  
     127A      0.905772   128A      0.923437   129A      0.928785  
     130A      0.937999   131A      0.942768   132A      0.960849  
     133A      0.966588   134A      0.968866   135A      0.979370  
     136A      0.987231   137A      0.996101   138A      1.011967  
     139A      1.020802   140A      1.029888   141A      1.044428  
     142A      1.049897   143A      1.059158   144A      1.067846  
     145A      1.081903   146A      1.095981   147A      1.100934  
     148A      1.113921   149A      1.121428   150A      1.133480  
     151A      1.147373   152A      1.154428   153A      1.158871  
     154A      1.171828   155A      1.190455   156A      1.197203  
     157A      1.207604   158A      1.217678   159A      1.231345  
     160A      1.236112   161A      1.247508   162A      1.273885  
     163A      1.280787   164A      1.284140   165A      1.289612  
     166A      1.313248   167A      1.319736   168A      1.348162  
     169A      1.354425   170A      1.372940   171A      1.379647  
     172A      1.390655   173A      1.400582   174A      1.409784  
     175A      1.417045   176A      1.448735   177A      1.457965  
     178A      1.472565   179A      1.476724   180A      1.488868  
     181A      1.500394   182A      1.522744   183A      1.526646  
     184A      1.537798   185A      1.560483   186A      1.571794  
     187A      1.581938   188A      1.603150   189A      1.610557  
     190A      1.621154   191A      1.639963   192A      1.648276  
     193A      1.658588   194A      1.671098   195A      1.686757  
     196A      1.697501   197A      1.706656   198A      1.712826  
     199A      1.726400   200A      1.739813   201A      1.753625  
     202A      1.765419   203A      1.774241   204A      1.778521  
     205A      1.788043   206A      1.821317   207A      1.828685  
     208A      1.831345   209A      1.848122   210A      1.856157  
     211A      1.865471   212A      1.874083   213A      1.885078  
     214A      1.910626   215A      1.924195   216A      1.954613  
     217A      1.969965   218A      1.987350   219A      2.011402  
     220A      2.023630   221A      2.045619   222A      2.061223  
     223A      2.079609   224A      2.099500   225A      2.114842  
     226A      2.134560   227A      2.160718   228A      2.164864  
     229A      2.175535   230A      2.209622   231A      2.217149  
     232A      2.224227   233A      2.247618   234A      2.262765  
     235A      2.282960   236A      2.314497   237A      2.326562  
     238A      2.352315   239A      2.382410   240A      2.407791  
     241A      2.423903   242A      2.426048   243A      2.463980  
     244A      2.477622   245A      2.507815   246A      2.517833  
     247A      2.537566   248A      2.550608   249A      2.556991  
     250A      2.568761   251A      2.593806   252A      2.631533  
     253A      2.640173   254A      2.667587   255A      2.672809  
     256A      2.696822   257A      2.725791   258A      2.741152  
     259A      2.752353   260A      2.801345   261A      2.824445  
     262A      2.837465   263A      2.855496   264A      2.896150  
     265A      2.909957   266A      2.965692   267A      2.970108  
     268A      3.011471   269A      3.019081   270A      3.074626  
     271A      3.086157   272A      3.147843   273A      3.178872  
     274A      3.196954   275A      3.260060   276A      3.291995  
     277A      3.315605   278A      3.349065   279A      3.402955  
     280A      3.440331   281A      3.453521   282A      3.483813  
     283A      3.513275   284A      3.536083   285A      3.573480  
     286A      3.621251   287A      3.630282   288A      3.643306  
     289A      3.647820   290A      3.683177   291A      3.691797  
     292A      3.711768   293A      3.718386   294A      3.753648  
     295A      3.767370   296A      3.792452   297A      3.798531  
     298A      3.820881   299A      3.867971   300A      3.873027  
     301A      3.912069   302A      3.915278   303A      3.944308  
     304A      3.952750   305A      3.984801   306A      3.995235  
     307A      4.013840   308A      4.034888   309A      4.061850  
     310A      4.087336   311A      4.095190   312A      4.119644  
     313A      4.135004   314A      4.161981   315A      4.167181  
     316A      4.199224   317A      4.208840   318A      4.230278  
     319A      4.242709   320A      4.252799   321A      4.267522  
     322A      4.285939   323A      4.321172   324A      4.332380  
     325A      4.359814   326A      4.376155   327A      4.411093  
     328A      4.440383   329A      4.470838   330A      4.487513  
     331A      4.506604   332A      4.532166   333A      4.549185  
     334A      4.558284   335A      4.577403   336A      4.584080  
     337A      4.636792   338A      4.660578   339A      4.662349  
     340A      4.677043   341A      4.702507   342A      4.731421  
     343A      4.775585   344A      4.788868   345A      4.804494  
     346A      4.815670   347A      4.826826   348A      4.847631  
     349A      4.868723   350A      4.893504   351A      4.913545  
     352A      4.948253   353A      4.981865   354A      5.007028  
     355A      5.056465   356A      5.068370   357A      5.076171  
     358A      5.087298   359A      5.117612   360A      5.131909  
     361A      5.157494   362A      5.174367   363A      5.175784  
     364A      5.196371   365A      5.245889   366A      5.252223  
     367A      5.282685   368A      5.314064   369A      5.322832  
     370A      5.368425   371A      5.381949   372A      5.413228  
     373A      5.418970   374A      5.485206   375A      5.510270  
     376A      5.535699   377A      5.576985   378A      5.632408  
     379A      5.725106   380A      5.735901   381A      5.752376  
     382A      5.768533   383A      5.827118   384A      5.853324  
     385A      5.875413   386A      5.953754   387A      6.041724  
     388A      6.051639   389A      6.076901   390A      6.137275  
     391A      6.165518   392A      6.174803   393A      6.235404  
     394A      6.269961   395A      6.379656   396A      6.457197  
     397A      6.497822   398A      6.553980   399A      6.662442  
     400A      6.756200   401A      6.766711   402A      6.785759  
     403A      6.823505   404A      6.862708   405A      6.923949  
     406A      6.940425   407A      6.985985   408A      6.988523  
     409A      7.026145   410A      7.052616   411A      7.068742  
     412A      7.144278   413A      7.191429   414A      7.248011  
     415A      7.257719   416A      7.333521   417A      7.414338  
     418A      7.442141   419A      7.459447   420A      7.494203  
     421A      7.664143   422A      7.702877   423A      7.722062  
     424A      7.754311   425A      7.770473   426A      7.794288  
     427A      7.830024   428A      7.942595   429A      8.020914  
     430A      8.076644   431A      8.125633   432A     14.853128  
     433A     15.608113   434A     17.080234   435A     18.388168  
     436A     19.233983   437A     20.655657  

    Final Occupation by Irrep:
              A 
    DOCC [    24 ]

  @DF-RHF Final Energy:  -321.94529434484167

   => Energetics <=

    Nuclear Repulsion Energy =            249.5000851579544872
    One-Electron Energy =                -934.7784375652811377
    Two-Electron Energy =                 363.3330580624850086
    Total Energy =                       -321.9452943448416704

Computation Completed

*** tstop() called on node93.bme.utexas.edu at Wed Nov  4 02:59:30 2020
Module time:
	user time   =      64.08 seconds =       1.07 minutes
	system time =       1.58 seconds =       0.03 minutes
	total time  =         11 seconds =       0.18 minutes
Total time:
	user time   =      64.08 seconds =       1.07 minutes
	system time =       1.58 seconds =       0.03 minutes
	total time  =         11 seconds =       0.18 minutes
   => Loading Basis Set <=

    Name: (AUG-CC-PVTZ AUX)
    Role: RIFIT
    Keyword: DF_BASIS_MP2
    atoms 1-2  entry O          line   264 file /home/xy3866/psi4conda/share/psi4/basis/aug-cc-pvtz-ri.gbs 
    atoms 3    entry N          line   206 file /home/xy3866/psi4conda/share/psi4/basis/aug-cc-pvtz-ri.gbs 
    atoms 4-6  entry C          line   148 file /home/xy3866/psi4conda/share/psi4/basis/aug-cc-pvtz-ri.gbs 
    atoms 7-13 entry H          line    30 file /home/xy3866/psi4conda/share/psi4/basis/aug-cc-pvtz-ri.gbs 


*** tstart() called on node93.bme.utexas.edu
*** at Wed Nov  4 02:59:30 2020


  //>>>>>>>>>>>>>>>>>>>>>>>>>>>>>>>>>>>//
  //               DFMP2               //
  //<<<<<<<<<<<<<<<<<<<<<<<<<<<<<<<<<<<//

	 --------------------------------------------------------
	                          DF-MP2                         
	      2nd-Order Density-Fitted Moller-Plesset Theory     
	              RMP2 Wavefunction,   8 Threads             
	                                                         
	        Rob Parrish, Justin Turney, Andy Simmonett,      
	           Ed Hohenstein, and C. David Sherrill          
	 --------------------------------------------------------

   => Auxiliary Basis Set <=

  Basis Set: (AUG-CC-PVTZ AUX)
    Blend: AUG-CC-PVTZ-RI
    Number of shells: 266
    Number of basis function: 958
    Number of Cartesian functions: 1201
    Spherical Harmonics?: true
    Max angular momentum: 4

	 --------------------------------------------------------
	                 NBF =   437, NAUX =   958
	 --------------------------------------------------------
	   CLASS    FOCC     OCC    AOCC    AVIR     VIR    FVIR
	   PAIRS       0      24      24     413     413       0
	 --------------------------------------------------------

  DFHelper Memory: AOs need 1.383 GiB; user supplied 22.352 GiB. Using in-core AOs.


         ------------------------------------------------------------
                                     CPHF                           
                                  Rob Parrish                       
         ------------------------------------------------------------

  ==> Geometry <==

    Molecular point group: c1
    Full point group: C1

    Geometry (in Angstrom), charge = 0, multiplicity = 1:

       Center              X                  Y                   Z               Mass       
    ------------   -----------------  -----------------  -----------------  -----------------
         O            1.492546897909     1.072910938475     0.104052801343    15.994914619570
         O            1.197856897909    -1.159393061525    -0.285103198657    15.994914619570
         N           -1.316024902091    -1.189868961525     0.107460901343    14.003074004430
         C           -0.685126102091     0.144625938475     0.393944801343    12.000000000000
         C           -1.383730102091     1.300450938475    -0.294326198657    12.000000000000
         C            0.825877897909     0.017386938475     0.027077801343    12.000000000000
         H           -0.790640302091     0.187880438475     1.481193601343     1.007825032230
         H           -1.842331102091    -1.135600061525    -0.838190198657     1.007825032230
         H           -1.901536102091    -1.575855061525     0.758058801343     1.007825032230
         H           -2.433628102091     1.372858938475     0.001326801343     1.007825032230
         H           -0.872635102091     2.221904938475    -0.015456198657     1.007825032230
         H           -1.325470102091     1.193530938475    -1.381890198657     1.007825032230
         H           -0.447179102091    -1.773036061525    -0.133293198657     1.007825032230

  Nuclear repulsion =  249.500085157954487
  Reference energy  = -321.945294344841670

  ==> Basis Set <==

  Basis Set: AUG-CC-PVTZ
    Blend: AUG-CC-PVTZ
    Number of shells: 147
    Number of basis function: 437
    Number of Cartesian functions: 505
    Spherical Harmonics?: true
    Max angular momentum: 3

  ==> CGRSolver (by Rob Parrish) <==

   Number of roots    =         1
   Preconditioning    =    JACOBI
   Convergence cutoff =     1E-06
   Maximum iterations =       100

  ==> CPHFRHamiltonian (by Rob Parrish) <== 

  ==> MemDFJK: Density-Fitted J/K Matrices <==

    J tasked:                   Yes
    K tasked:                   Yes
    wK tasked:                   No
    OpenMP threads:               8
    Memory [MiB]:             22888
    Algorithm:                 Core
    Schwarz Cutoff:           1E-12
    Mask sparsity (%):       1.4107
    Fitting Condition:        1E-10

   => Auxiliary Basis Set <=

  Basis Set: (AUG-CC-PVTZ AUX)
    Blend: AUG-CC-PVTZ-JKFIT
    Number of shells: 278
    Number of basis function: 946
    Number of Cartesian functions: 1171
    Spherical Harmonics?: true
    Max angular momentum: 4

  ==> CPHF Iterations <==

  => Iterations <=

             Iter  Converged  Remaining    Residual
  CGR           1          0          1   1.137E-01
  CGR           2          0          1   3.058E-02
  CGR           3          0          1   1.223E-02
  CGR           4          0          1   3.110E-03
  CGR           5          0          1   1.092E-03
  CGR           6          0          1   4.484E-04
  CGR           7          0          1   1.386E-04
  CGR           8          0          1   4.748E-05
  CGR           9          0          1   1.588E-05
  CGR          10          0          1   6.944E-06
  CGR          11          0          1   2.311E-06
  CGR          12          1          0   7.014E-07

    CGRSolver converged.

	-----------------------------------------------------------
	 ==================> DF-MP2 Energies <==================== 
	-----------------------------------------------------------
	 Reference Energy          =    -321.9452943448416704 [Eh]
	 Singles Energy            =      -0.0000000000000000 [Eh]
	 Same-Spin Energy          =      -0.3225277055542247 [Eh]
	 Opposite-Spin Energy      =      -1.0075302586040182 [Eh]
	 Correlation Energy        =      -1.3300579641582428 [Eh]
	 Total Energy              =    -323.2753523089999135 [Eh]
	-----------------------------------------------------------
	 ================> DF-SCS-MP2 Energies <================== 
	-----------------------------------------------------------
	 SCS Same-Spin Scale       =       0.3333333333333333 [-]
	 SCS Opposite-Spin Scale   =       1.2000000000000000 [-]
	 SCS Same-Spin Energy      =      -0.1075092351847416 [Eh]
	 SCS Opposite-Spin Energy  =      -1.2090363103248218 [Eh]
	 SCS Correlation Energy    =      -1.3165455455095634 [Eh]
	 SCS Total Energy          =    -323.2618398903512116 [Eh]
	-----------------------------------------------------------



Properties will be evaluated at  -0.000000,   0.000000,  -0.000000 [a0]

Properties computed using the MP2 density matrix

  Nuclear Dipole Moment: [e a0]
     X:    -8.9955      Y:     0.4640      Z:    -0.1214

  Electronic Dipole Moment: [e a0]
     X:     5.2039      Y:    -1.5628      Z:     0.3885

  Dipole Moment: [e a0]
     X:    -3.7916      Y:    -1.0989      Z:     0.2671     Total:     3.9566

  Dipole Moment: [D]
     X:    -9.6373      Y:    -2.7930      Z:     0.6790     Total:    10.0568


*** tstop() called on node93.bme.utexas.edu at Wed Nov  4 02:59:59 2020
Module time:
	user time   =     195.50 seconds =       3.26 minutes
	system time =       4.25 seconds =       0.07 minutes
	total time  =         29 seconds =       0.48 minutes
Total time:
	user time   =     260.58 seconds =       4.34 minutes
	system time =       5.87 seconds =       0.10 minutes
	total time  =         40 seconds =       0.67 minutes

    Psi4 stopped on: Wednesday, 04 November 2020 02:59AM
    Psi4 wall time for execution: 0:00:39.96

*** Psi4 exiting successfully. Buy a developer a beer!
