
    -----------------------------------------------------------------------
          Psi4: An Open-Source Ab Initio Electronic Structure Package
                               Psi4 1.3.2 release

                         Git: Rev {HEAD} ecbda83 


    R. M. Parrish, L. A. Burns, D. G. A. Smith, A. C. Simmonett,
    A. E. DePrince III, E. G. Hohenstein, U. Bozkaya, A. Yu. Sokolov,
    R. Di Remigio, R. M. Richard, J. F. Gonthier, A. M. James,
    H. R. McAlexander, A. Kumar, M. Saitow, X. Wang, B. P. Pritchard,
    P. Verma, H. F. Schaefer III, K. Patkowski, R. A. King, E. F. Valeev,
    F. A. Evangelista, J. M. Turney, T. D. Crawford, and C. D. Sherrill,
    J. Chem. Theory Comput. 13(7) pp 3185--3197 (2017).
    (doi: 10.1021/acs.jctc.7b00174)


                         Additional Contributions by
    P. Kraus, H. Kruse, M. H. Lechner, M. C. Schieber, R. A. Shaw,
    A. Alenaizan, R. Galvelis, Z. L. Glick, S. Lehtola, and J. P. Misiewicz

    -----------------------------------------------------------------------


    Psi4 started on: Wednesday, 04 November 2020 03:32AM

    Process ID: 124002
    Host:       node93.bme.utexas.edu
    PSIDATADIR: /home/xy3866/psi4conda/share/psi4
    Memory:     500.0 MiB
    Threads:    8
    
  ==> Input File <==

--------------------------------------------------------------------------
#psi4
#
memory 32 gb

molecule  {
0 1
  O        1.5890300     1.0650170     0.1165590
  O        1.2943400    -1.1672870    -0.2725970
  N       -1.2047650    -1.1860200     0.0435410
  C       -0.5886430     0.1367320     0.4064510
  C       -1.2872470     1.2925570    -0.2818200
  C        0.9006490     0.0044281    -0.0389916
  H       -0.7253895     0.2343252     1.4866779
  H       -1.7458480    -1.1434940    -0.8256840
  H       -1.8050530    -1.5837490     0.7705650
  H       -2.3371450     1.3649650     0.0138330
  H       -0.7761520     2.2140110    -0.0029500
  H       -1.2289870     1.1856370    -1.3693840
  H       -0.3506960    -1.7809300    -0.1207870
units angstrom
no_reorient  #important for SAPT in psi4, default
symmetry c1  #important for SAPT in psi4, default
}

set PROPERTIES_ORIGIN ["COM"]
properties('MP2/aug-cc-pvtz', properties = ['dipole'])
--------------------------------------------------------------------------

  Memory set to  29.802 GiB by Python driver.
    SCF Algorithm Type (re)set to DF.

*** tstart() called on node93.bme.utexas.edu
*** at Wed Nov  4 03:32:30 2020

   => Loading Basis Set <=

    Name: AUG-CC-PVTZ
    Role: ORBITAL
    Keyword: BASIS
    atoms 1-2  entry O          line   327 file /home/xy3866/psi4conda/share/psi4/basis/aug-cc-pvtz.gbs 
    atoms 3    entry N          line   281 file /home/xy3866/psi4conda/share/psi4/basis/aug-cc-pvtz.gbs 
    atoms 4-6  entry C          line   235 file /home/xy3866/psi4conda/share/psi4/basis/aug-cc-pvtz.gbs 
    atoms 7-13 entry H          line    36 file /home/xy3866/psi4conda/share/psi4/basis/aug-cc-pvtz.gbs 


         ---------------------------------------------------------
                                   SCF
               by Justin Turney, Rob Parrish, Andy Simmonett
                          and Daniel G. A. Smith
                              RHF Reference
                        8 Threads,  30517 MiB Core
         ---------------------------------------------------------

  ==> Geometry <==

    Molecular point group: c1
    Full point group: C1

    Geometry (in Angstrom), charge = 0, multiplicity = 1:

       Center              X                  Y                   Z               Mass       
    ------------   -----------------  -----------------  -----------------  -----------------
         O            1.493502566504     1.071131871322     0.126739348769    15.994914619570
         O            1.198812566504    -1.161172128678    -0.262416651231    15.994914619570
         N           -1.300292433496    -1.179905128678     0.053721348769    14.003074004430
         C           -0.684170433496     0.142846871322     0.416631348769    12.000000000000
         C           -1.382774433496     1.298671871322    -0.271639651231    12.000000000000
         C            0.805121566504     0.010542971322    -0.028811251231    12.000000000000
         H           -0.820916933496     0.240440071322     1.496858248769     1.007825032230
         H           -1.841375433496    -1.137379128678    -0.815503651231     1.007825032230
         H           -1.900580433496    -1.577634128678     0.780745348769     1.007825032230
         H           -2.432672433496     1.371079871322     0.024013348769     1.007825032230
         H           -0.871679433496     2.220125871322     0.007230348769     1.007825032230
         H           -1.324514433496     1.191751871322    -1.359203651231     1.007825032230
         H           -0.446223433496    -1.774815128678    -0.110606651231     1.007825032230

  Running in c1 symmetry.

  Rotational constants: A =      0.16057  B =      0.11633  C =      0.07317 [cm^-1]
  Rotational constants: A =   4813.81554  B =   3487.39639  C =   2193.55393 [MHz]
  Nuclear repulsion =  249.841030165708844

  Charge       = 0
  Multiplicity = 1
  Electrons    = 48
  Nalpha       = 24
  Nbeta        = 24

  ==> Algorithm <==

  SCF Algorithm Type is DF.
  DIIS enabled.
  MOM disabled.
  Fractional occupation disabled.
  Guess Type is SAD.
  Energy threshold   = 1.00e-10
  Density threshold  = 1.00e-10
  Integral threshold = 0.00e+00

  ==> Primary Basis <==

  Basis Set: AUG-CC-PVTZ
    Blend: AUG-CC-PVTZ
    Number of shells: 147
    Number of basis function: 437
    Number of Cartesian functions: 505
    Spherical Harmonics?: true
    Max angular momentum: 3

   => Loading Basis Set <=

    Name: (AUG-CC-PVTZ AUX)
    Role: JKFIT
    Keyword: DF_BASIS_SCF
    atoms 1-2  entry O          line   286 file /home/xy3866/psi4conda/share/psi4/basis/aug-cc-pvtz-jkfit.gbs 
    atoms 3    entry N          line   224 file /home/xy3866/psi4conda/share/psi4/basis/aug-cc-pvtz-jkfit.gbs 
    atoms 4-6  entry C          line   162 file /home/xy3866/psi4conda/share/psi4/basis/aug-cc-pvtz-jkfit.gbs 
    atoms 7-13 entry H          line    70 file /home/xy3866/psi4conda/share/psi4/basis/aug-cc-pvtz-jkfit.gbs 

  ==> Pre-Iterations <==

   -------------------------------------------------------
    Irrep   Nso     Nmo     Nalpha   Nbeta   Ndocc  Nsocc
   -------------------------------------------------------
     A        437     437       0       0       0       0
   -------------------------------------------------------
    Total     437     437      24      24      24       0
   -------------------------------------------------------

  ==> Integral Setup <==

  DFHelper Memory: AOs need 1.384 GiB; user supplied 22.352 GiB. Using in-core AOs.

  ==> MemDFJK: Density-Fitted J/K Matrices <==

    J tasked:                   Yes
    K tasked:                   Yes
    wK tasked:                   No
    OpenMP threads:               8
    Memory [MiB]:             22888
    Algorithm:                 Core
    Schwarz Cutoff:           1E-12
    Mask sparsity (%):       1.4002
    Fitting Condition:        1E-10

   => Auxiliary Basis Set <=

  Basis Set: (AUG-CC-PVTZ AUX)
    Blend: AUG-CC-PVTZ-JKFIT
    Number of shells: 278
    Number of basis function: 946
    Number of Cartesian functions: 1171
    Spherical Harmonics?: true
    Max angular momentum: 4

  Minimum eigenvalue in the overlap matrix is 6.9041909372E-06.
  Using Symmetric Orthogonalization.

  SCF Guess: Superposition of Atomic Densities via on-the-fly atomic UHF.

  ==> Iterations <==

                           Total Energy        Delta E     RMS |[F,P]|

   @DF-RHF iter SAD:  -321.13564835699083   -3.21136e+02   0.00000e+00 
   @DF-RHF iter   1:  -321.68984851395066   -5.54200e-01   1.68651e-03 DIIS
   @DF-RHF iter   2:  -321.87714371866571   -1.87295e-01   1.03759e-03 DIIS
   @DF-RHF iter   3:  -321.94459876387629   -6.74550e-02   1.72179e-04 DIIS
   @DF-RHF iter   4:  -321.94782401332998   -3.22525e-03   6.75071e-05 DIIS
   @DF-RHF iter   5:  -321.94835401678438   -5.30003e-04   1.58058e-05 DIIS
   @DF-RHF iter   6:  -321.94838602536601   -3.20086e-05   7.45460e-06 DIIS
   @DF-RHF iter   7:  -321.94839182988250   -5.80452e-06   1.80305e-06 DIIS
   @DF-RHF iter   8:  -321.94839245291206   -6.23030e-07   5.61367e-07 DIIS
   @DF-RHF iter   9:  -321.94839253157556   -7.86635e-08   1.93105e-07 DIIS
   @DF-RHF iter  10:  -321.94839254226457   -1.06890e-08   6.96422e-08 DIIS
   @DF-RHF iter  11:  -321.94839254379713   -1.53256e-09   2.58416e-08 DIIS
   @DF-RHF iter  12:  -321.94839254402405   -2.26919e-10   1.02534e-08 DIIS
   @DF-RHF iter  13:  -321.94839254406168   -3.76303e-11   3.67093e-09 DIIS
   @DF-RHF iter  14:  -321.94839254406526   -3.58114e-12   1.43133e-09 DIIS
   @DF-RHF iter  15:  -321.94839254406463    6.25278e-13   4.28403e-10 DIIS
   @DF-RHF iter  16:  -321.94839254406639   -1.76215e-12   1.42105e-10 DIIS
   @DF-RHF iter  17:  -321.94839254406554    8.52651e-13   6.47990e-11 DIIS
  Energy and wave function converged.


  ==> Post-Iterations <==

    Orbital Energies [Eh]
    ---------------------

    Doubly Occupied:                                                      

       1A    -20.495436     2A    -20.469220     3A    -15.709963  
       4A    -11.329794     5A    -11.312978     6A    -11.250867  
       7A     -1.370758     8A     -1.320851     9A     -1.249869  
      10A     -1.061052    11A     -0.908476    12A     -0.810438  
      13A     -0.780692    14A     -0.725480    15A     -0.676732  
      16A     -0.631100    17A     -0.579280    18A     -0.570539  
      19A     -0.561269    20A     -0.553673    21A     -0.513225  
      22A     -0.409638    23A     -0.382857    24A     -0.373991  

    Virtual:                                                              

      25A     -0.002805    26A      0.021690    27A      0.025941  
      28A      0.042150    29A      0.051400    30A      0.055091  
      31A      0.063748    32A      0.081956    33A      0.093174  
      34A      0.098180    35A      0.110338    36A      0.112156  
      37A      0.119821    38A      0.124332    39A      0.133464  
      40A      0.138937    41A      0.143103    42A      0.146263  
      43A      0.152901    44A      0.156805    45A      0.171627  
      46A      0.180669    47A      0.190196    48A      0.216417  
      49A      0.222818    50A      0.234492    51A      0.241639  
      52A      0.246583    53A      0.252881    54A      0.258759  
      55A      0.265492    56A      0.274021    57A      0.282963  
      58A      0.288504    59A      0.291757    60A      0.301461  
      61A      0.304955    62A      0.318302    63A      0.329169  
      64A      0.329894    65A      0.341865    66A      0.348108  
      67A      0.349673    68A      0.355408    69A      0.363232  
      70A      0.372635    71A      0.374183    72A      0.377378  
      73A      0.391763    74A      0.398100    75A      0.405423  
      76A      0.411782    77A      0.417403    78A      0.423139  
      79A      0.431149    80A      0.436303    81A      0.439586  
      82A      0.443912    83A      0.457562    84A      0.472064  
      85A      0.476891    86A      0.483813    87A      0.494279  
      88A      0.500541    89A      0.514103    90A      0.519483  
      91A      0.533104    92A      0.541862    93A      0.543075  
      94A      0.569476    95A      0.578074    96A      0.583313  
      97A      0.596098    98A      0.599565    99A      0.608696  
     100A      0.610358   101A      0.617177   102A      0.630228  
     103A      0.640108   104A      0.661270   105A      0.689549  
     106A      0.699189   107A      0.720011   108A      0.727917  
     109A      0.739249   110A      0.750850   111A      0.764448  
     112A      0.779252   113A      0.790499   114A      0.800061  
     115A      0.808069   116A      0.818818   117A      0.830416  
     118A      0.834723   119A      0.846698   120A      0.853213  
     121A      0.861577   122A      0.866957   123A      0.873536  
     124A      0.883734   125A      0.889360   126A      0.896153  
     127A      0.914866   128A      0.924341   129A      0.929308  
     130A      0.934643   131A      0.945330   132A      0.961399  
     133A      0.968855   134A      0.972668   135A      0.980782  
     136A      0.989387   137A      0.999185   138A      1.006341  
     139A      1.019076   140A      1.025337   141A      1.046018  
     142A      1.047562   143A      1.054278   144A      1.065890  
     145A      1.072371   146A      1.091349   147A      1.105422  
     148A      1.111405   149A      1.117711   150A      1.131015  
     151A      1.152670   152A      1.157116   153A      1.160842  
     154A      1.172784   155A      1.194009   156A      1.195238  
     157A      1.208817   158A      1.219820   159A      1.223994  
     160A      1.234784   161A      1.251170   162A      1.266870  
     163A      1.277137   164A      1.284075   165A      1.299829  
     166A      1.314332   167A      1.321147   168A      1.337884  
     169A      1.355216   170A      1.375769   171A      1.384645  
     172A      1.390564   173A      1.395924   174A      1.412675  
     175A      1.424133   176A      1.444863   177A      1.451234  
     178A      1.471843   179A      1.478710   180A      1.483537  
     181A      1.498623   182A      1.518214   183A      1.520691  
     184A      1.535517   185A      1.553892   186A      1.577458  
     187A      1.579193   188A      1.605800   189A      1.612405  
     190A      1.617928   191A      1.645683   192A      1.655696  
     193A      1.667609   194A      1.673845   195A      1.687779  
     196A      1.702197   197A      1.707218   198A      1.712771  
     199A      1.725327   200A      1.736625   201A      1.752375  
     202A      1.761404   203A      1.775049   204A      1.793778  
     205A      1.797275   206A      1.810036   207A      1.819539  
     208A      1.832112   209A      1.848096   210A      1.855963  
     211A      1.875802   212A      1.885684   213A      1.887403  
     214A      1.910621   215A      1.928685   216A      1.954311  
     217A      1.974541   218A      2.006701   219A      2.015603  
     220A      2.036443   221A      2.040438   222A      2.073372  
     223A      2.079463   224A      2.090415   225A      2.099401  
     226A      2.129877   227A      2.149564   228A      2.172752  
     229A      2.178361   230A      2.187932   231A      2.208139  
     232A      2.220207   233A      2.240166   234A      2.268081  
     235A      2.292420   236A      2.311775   237A      2.337297  
     238A      2.348434   239A      2.381959   240A      2.396941  
     241A      2.430861   242A      2.435928   243A      2.461491  
     244A      2.474803   245A      2.512994   246A      2.519868  
     247A      2.526278   248A      2.547900   249A      2.554934  
     250A      2.571502   251A      2.589179   252A      2.630802  
     253A      2.645745   254A      2.655960   255A      2.673134  
     256A      2.698962   257A      2.716086   258A      2.746648  
     259A      2.758252   260A      2.799684   261A      2.825165  
     262A      2.833898   263A      2.847040   264A      2.901363  
     265A      2.915263   266A      2.956302   267A      2.962488  
     268A      2.995187   269A      3.041149   270A      3.052034  
     271A      3.077837   272A      3.154629   273A      3.191665  
     274A      3.209799   275A      3.245222   276A      3.292245  
     277A      3.329125   278A      3.351100   279A      3.378042  
     280A      3.446594   281A      3.456039   282A      3.482814  
     283A      3.505465   284A      3.534165   285A      3.593641  
     286A      3.616056   287A      3.642644   288A      3.649381  
     289A      3.668004   290A      3.685496   291A      3.692184  
     292A      3.697262   293A      3.716451   294A      3.771555  
     295A      3.790089   296A      3.791740   297A      3.820555  
     298A      3.827946   299A      3.861719   300A      3.876373  
     301A      3.911939   302A      3.924040   303A      3.954322  
     304A      3.964414   305A      3.979476   306A      4.001683  
     307A      4.013810   308A      4.026541   309A      4.055764  
     310A      4.072511   311A      4.088310   312A      4.125243  
     313A      4.135690   314A      4.146569   315A      4.187312  
     316A      4.199025   317A      4.217784   318A      4.224192  
     319A      4.243629   320A      4.262338   321A      4.270286  
     322A      4.291036   323A      4.305276   324A      4.341366  
     325A      4.383339   326A      4.387687   327A      4.417531  
     328A      4.442916   329A      4.461444   330A      4.488496  
     331A      4.504329   332A      4.513846   333A      4.530596  
     334A      4.565373   335A      4.584512   336A      4.608217  
     337A      4.641593   338A      4.651191   339A      4.674804  
     340A      4.685771   341A      4.700609   342A      4.750489  
     343A      4.779937   344A      4.786368   345A      4.800608  
     346A      4.816014   347A      4.831504   348A      4.839875  
     349A      4.874355   350A      4.891435   351A      4.916848  
     352A      4.941517   353A      4.951713   354A      4.987684  
     355A      5.050465   356A      5.059115   357A      5.081919  
     358A      5.088240   359A      5.124268   360A      5.127503  
     361A      5.165279   362A      5.181356   363A      5.191793  
     364A      5.205186   365A      5.246115   366A      5.253366  
     367A      5.272830   368A      5.303555   369A      5.308001  
     370A      5.345573   371A      5.397017   372A      5.409978  
     373A      5.416001   374A      5.450283   375A      5.500330  
     376A      5.509289   377A      5.559463   378A      5.629400  
     379A      5.714242   380A      5.733502   381A      5.761376  
     382A      5.784116   383A      5.836964   384A      5.861197  
     385A      5.872230   386A      5.948521   387A      6.057889  
     388A      6.086535   389A      6.098865   390A      6.144593  
     391A      6.162809   392A      6.190483   393A      6.251736  
     394A      6.281327   395A      6.325310   396A      6.397857  
     397A      6.415049   398A      6.545206   399A      6.659479  
     400A      6.770131   401A      6.788366   402A      6.807494  
     403A      6.835051   404A      6.892209   405A      6.925626  
     406A      6.951084   407A      6.985937   408A      7.015370  
     409A      7.035179   410A      7.045936   411A      7.067823  
     412A      7.093213   413A      7.168447   414A      7.209325  
     415A      7.250420   416A      7.263878   417A      7.410933  
     418A      7.448819   419A      7.451538   420A      7.500714  
     421A      7.697450   422A      7.717638   423A      7.726008  
     424A      7.754361   425A      7.759987   426A      7.798985  
     427A      7.806782   428A      7.935948   429A      8.031742  
     430A      8.074844   431A      8.130080   432A     14.784811  
     433A     15.537957   434A     17.070936   435A     18.427362  
     436A     18.953704   437A     20.771006  

    Final Occupation by Irrep:
              A 
    DOCC [    24 ]

  @DF-RHF Final Energy:  -321.94839254406554

   => Energetics <=

    Nuclear Repulsion Energy =            249.8410301657088439
    One-Electron Energy =                -935.4824953448044198
    Two-Electron Energy =                 363.6930726350300347
    Total Energy =                       -321.9483925440655412

Computation Completed

*** tstop() called on node93.bme.utexas.edu at Wed Nov  4 03:32:40 2020
Module time:
	user time   =      63.76 seconds =       1.06 minutes
	system time =       1.51 seconds =       0.03 minutes
	total time  =         10 seconds =       0.17 minutes
Total time:
	user time   =      63.76 seconds =       1.06 minutes
	system time =       1.51 seconds =       0.03 minutes
	total time  =         10 seconds =       0.17 minutes
   => Loading Basis Set <=

    Name: (AUG-CC-PVTZ AUX)
    Role: RIFIT
    Keyword: DF_BASIS_MP2
    atoms 1-2  entry O          line   264 file /home/xy3866/psi4conda/share/psi4/basis/aug-cc-pvtz-ri.gbs 
    atoms 3    entry N          line   206 file /home/xy3866/psi4conda/share/psi4/basis/aug-cc-pvtz-ri.gbs 
    atoms 4-6  entry C          line   148 file /home/xy3866/psi4conda/share/psi4/basis/aug-cc-pvtz-ri.gbs 
    atoms 7-13 entry H          line    30 file /home/xy3866/psi4conda/share/psi4/basis/aug-cc-pvtz-ri.gbs 


*** tstart() called on node93.bme.utexas.edu
*** at Wed Nov  4 03:32:40 2020


  //>>>>>>>>>>>>>>>>>>>>>>>>>>>>>>>>>>>//
  //               DFMP2               //
  //<<<<<<<<<<<<<<<<<<<<<<<<<<<<<<<<<<<//

	 --------------------------------------------------------
	                          DF-MP2                         
	      2nd-Order Density-Fitted Moller-Plesset Theory     
	              RMP2 Wavefunction,   8 Threads             
	                                                         
	        Rob Parrish, Justin Turney, Andy Simmonett,      
	           Ed Hohenstein, and C. David Sherrill          
	 --------------------------------------------------------

   => Auxiliary Basis Set <=

  Basis Set: (AUG-CC-PVTZ AUX)
    Blend: AUG-CC-PVTZ-RI
    Number of shells: 266
    Number of basis function: 958
    Number of Cartesian functions: 1201
    Spherical Harmonics?: true
    Max angular momentum: 4

	 --------------------------------------------------------
	                 NBF =   437, NAUX =   958
	 --------------------------------------------------------
	   CLASS    FOCC     OCC    AOCC    AVIR     VIR    FVIR
	   PAIRS       0      24      24     413     413       0
	 --------------------------------------------------------

  DFHelper Memory: AOs need 1.384 GiB; user supplied 22.352 GiB. Using in-core AOs.


         ------------------------------------------------------------
                                     CPHF                           
                                  Rob Parrish                       
         ------------------------------------------------------------

  ==> Geometry <==

    Molecular point group: c1
    Full point group: C1

    Geometry (in Angstrom), charge = 0, multiplicity = 1:

       Center              X                  Y                   Z               Mass       
    ------------   -----------------  -----------------  -----------------  -----------------
         O            1.493502566504     1.071131871322     0.126739348769    15.994914619570
         O            1.198812566504    -1.161172128678    -0.262416651231    15.994914619570
         N           -1.300292433496    -1.179905128678     0.053721348769    14.003074004430
         C           -0.684170433496     0.142846871322     0.416631348769    12.000000000000
         C           -1.382774433496     1.298671871322    -0.271639651231    12.000000000000
         C            0.805121566504     0.010542971322    -0.028811251231    12.000000000000
         H           -0.820916933496     0.240440071322     1.496858248769     1.007825032230
         H           -1.841375433496    -1.137379128678    -0.815503651231     1.007825032230
         H           -1.900580433496    -1.577634128678     0.780745348769     1.007825032230
         H           -2.432672433496     1.371079871322     0.024013348769     1.007825032230
         H           -0.871679433496     2.220125871322     0.007230348769     1.007825032230
         H           -1.324514433496     1.191751871322    -1.359203651231     1.007825032230
         H           -0.446223433496    -1.774815128678    -0.110606651231     1.007825032230

  Nuclear repulsion =  249.841030165708844
  Reference energy  = -321.948392544065541

  ==> Basis Set <==

  Basis Set: AUG-CC-PVTZ
    Blend: AUG-CC-PVTZ
    Number of shells: 147
    Number of basis function: 437
    Number of Cartesian functions: 505
    Spherical Harmonics?: true
    Max angular momentum: 3

  ==> CGRSolver (by Rob Parrish) <==

   Number of roots    =         1
   Preconditioning    =    JACOBI
   Convergence cutoff =     1E-06
   Maximum iterations =       100

  ==> CPHFRHamiltonian (by Rob Parrish) <== 

  ==> MemDFJK: Density-Fitted J/K Matrices <==

    J tasked:                   Yes
    K tasked:                   Yes
    wK tasked:                   No
    OpenMP threads:               8
    Memory [MiB]:             22888
    Algorithm:                 Core
    Schwarz Cutoff:           1E-12
    Mask sparsity (%):       1.4002
    Fitting Condition:        1E-10

   => Auxiliary Basis Set <=

  Basis Set: (AUG-CC-PVTZ AUX)
    Blend: AUG-CC-PVTZ-JKFIT
    Number of shells: 278
    Number of basis function: 946
    Number of Cartesian functions: 1171
    Spherical Harmonics?: true
    Max angular momentum: 4

  ==> CPHF Iterations <==

  => Iterations <=

             Iter  Converged  Remaining    Residual
  CGR           1          0          1   1.156E-01
  CGR           2          0          1   3.191E-02
  CGR           3          0          1   1.328E-02
  CGR           4          0          1   4.222E-03
  CGR           5          0          1   1.912E-03
  CGR           6          0          1   7.821E-04
  CGR           7          0          1   2.345E-04
  CGR           8          0          1   1.021E-04
  CGR           9          0          1   3.290E-05
  CGR          10          0          1   1.146E-05
  CGR          11          0          1   3.154E-06
  CGR          12          0          1   1.036E-06
  CGR          13          1          0   4.353E-07

    CGRSolver converged.

	-----------------------------------------------------------
	 ==================> DF-MP2 Energies <==================== 
	-----------------------------------------------------------
	 Reference Energy          =    -321.9483925440655412 [Eh]
	 Singles Energy            =      -0.0000000000000000 [Eh]
	 Same-Spin Energy          =      -0.3226114583458149 [Eh]
	 Opposite-Spin Energy      =      -1.0079907661478562 [Eh]
	 Correlation Energy        =      -1.3306022244936710 [Eh]
	 Total Energy              =    -323.2789947685591869 [Eh]
	-----------------------------------------------------------
	 ================> DF-SCS-MP2 Energies <================== 
	-----------------------------------------------------------
	 SCS Same-Spin Scale       =       0.3333333333333333 [-]
	 SCS Opposite-Spin Scale   =       1.2000000000000000 [-]
	 SCS Same-Spin Energy      =      -0.1075371527819383 [Eh]
	 SCS Opposite-Spin Energy  =      -1.2095889193774274 [Eh]
	 SCS Correlation Energy    =      -1.3171260721593656 [Eh]
	 SCS Total Energy          =    -323.2655186162248810 [Eh]
	-----------------------------------------------------------



Properties will be evaluated at   0.000000,  -0.000000,   0.000000 [a0]

Properties computed using the MP2 density matrix

  Nuclear Dipole Moment: [e a0]
     X:    -9.0186      Y:     0.5032      Z:     0.0213

  Electronic Dipole Moment: [e a0]
     X:     5.1794      Y:    -1.6846      Z:     0.2417

  Dipole Moment: [e a0]
     X:    -3.8392      Y:    -1.1814      Z:     0.2629     Total:     4.0255

  Dipole Moment: [D]
     X:    -9.7583      Y:    -3.0029      Z:     0.6683     Total:    10.2317


*** tstop() called on node93.bme.utexas.edu at Wed Nov  4 03:33:09 2020
Module time:
	user time   =     197.64 seconds =       3.29 minutes
	system time =       4.20 seconds =       0.07 minutes
	total time  =         29 seconds =       0.48 minutes
Total time:
	user time   =     262.40 seconds =       4.37 minutes
	system time =       5.74 seconds =       0.10 minutes
	total time  =         39 seconds =       0.65 minutes

    Psi4 stopped on: Wednesday, 04 November 2020 03:33AM
    Psi4 wall time for execution: 0:00:38.86

*** Psi4 exiting successfully. Buy a developer a beer!
