9868                                                                    
Freq      RMP2-FC                                                     6-31G(d)            
Number of atoms                            I                8
Info1-9                                    I   N=           9
          20          18        1002           0           0         100
           6           2           1
Charge                                     I                0
Multiplicity                               I                1
Number of electrons                        I               42
Number of alpha electrons                  I               21
Number of beta electrons                   I               21
Number of basis functions                  I               81
Number of independent functions            I               81
Number of point charges in /Mol/           I                0
Number of translation vectors              I                0
Atomic numbers                             I   N=           8
           9           9           9           6           6           1
           1           1
Nuclear charges                            R   N=           8
  9.00000000E+00  9.00000000E+00  9.00000000E+00  6.00000000E+00  6.00000000E+00
  1.00000000E+00  1.00000000E+00  1.00000000E+00
Current cartesian coordinates              R   N=          24
  9.91677317E-01 -1.69627879E+00 -1.66722696E+00  9.91664110E-01  2.29200453E+00
 -6.35410159E-01  9.91675928E-01 -5.95716886E-01  2.30263516E+00  4.79645060E-02
 -2.73806985E-06  1.36887413E-06 -2.78106935E+00 -6.99272822E-06  1.06332996E-06
 -3.45884356E+00  1.38738328E+00  1.36363744E+00 -3.45884224E+00  4.87241848E-01
 -1.88333261E+00 -3.45884131E+00 -1.87464643E+00  5.19698232E-01
Force Field                                I                0
Int Atom Types                             I   N=           8
           0           0           0           0           0           0
           0           0
MM charges                                 R   N=           8
  0.00000000E+00  0.00000000E+00  0.00000000E+00  0.00000000E+00  0.00000000E+00
  0.00000000E+00  0.00000000E+00  0.00000000E+00
Integer atomic weights                     I   N=           8
          19          19          19          12          12           1
           1           1
Real atomic weights                        R   N=           8
  1.89984032E+01  1.89984032E+01  1.89984032E+01  1.20000000E+01  1.20000000E+01
  1.00782504E+00  1.00782504E+00  1.00782504E+00
Atom fragment info                         I   N=           8
           0           0           0           0           0           0
           0           0
Atom residue num                           I   N=           8
           0           0           0           0           0           0
           0           0
Nuclear spins                              I   N=           8
           1           1           1           0           0           1
           1           1
Nuclear ZEff                               R   N=           8
 -6.75000000E+00 -6.75000000E+00 -6.75000000E+00 -3.60000000E+00 -3.60000000E+00
 -1.00000000E+00 -1.00000000E+00 -1.00000000E+00
Nuclear QMom                               R   N=           8
  0.00000000E+00  0.00000000E+00  0.00000000E+00  0.00000000E+00  0.00000000E+00
  0.00000000E+00  0.00000000E+00  0.00000000E+00
Nuclear GFac                               R   N=           8
  2.62886700E+00  2.62886700E+00  2.62886700E+00  0.00000000E+00  0.00000000E+00
  2.79284600E+00  2.79284600E+00  2.79284600E+00
MicOpt                                     I   N=           8
          -1          -1          -1          -1          -1          -1
          -1          -1
Number of contracted shells                I               26
Number of primitive shells                 I               67
Pure/Cartesian d shells                    I                1
Pure/Cartesian f shells                    I                0
Highest angular momentum                   I                2
Largest degree of contraction              I                6
Shell types                                I   N=          26
           0          -1          -1           2           0          -1
          -1           2           0          -1          -1           2
           0          -1          -1           2           0          -1
          -1           2           0           0           0           0
           0           0
Number of primitives per shell             I   N=          26
           6           3           1           1           6           3
           1           1           6           3           1           1
           6           3           1           1           6           3
           1           1           3           1           3           1
           3           1
Shell to atom map                          I   N=          26
           1           1           1           1           2           2
           2           2           3           3           3           3
           4           4           4           4           5           5
           5           5           6           6           7           7
           8           8
Primitive exponents                        R   N=          67
  7.00171309E+03  1.05136609E+03  2.39285690E+02  6.73974453E+01  2.15199573E+01
  7.40310130E+00  2.08479528E+01  4.80830834E+00  1.34406986E+00  3.58151393E-01
  8.00000000E-01  7.00171309E+03  1.05136609E+03  2.39285690E+02  6.73974453E+01
  2.15199573E+01  7.40310130E+00  2.08479528E+01  4.80830834E+00  1.34406986E+00
  3.58151393E-01  8.00000000E-01  7.00171309E+03  1.05136609E+03  2.39285690E+02
  6.73974453E+01  2.15199573E+01  7.40310130E+00  2.08479528E+01  4.80830834E+00
  1.34406986E+00  3.58151393E-01  8.00000000E-01  3.04752488E+03  4.57369518E+02
  1.03948685E+02  2.92101553E+01  9.28666296E+00  3.16392696E+00  7.86827235E+00
  1.88128854E+00  5.44249258E-01  1.68714478E-01  8.00000000E-01  3.04752488E+03
  4.57369518E+02  1.03948685E+02  2.92101553E+01  9.28666296E+00  3.16392696E+00
  7.86827235E+00  1.88128854E+00  5.44249258E-01  1.68714478E-01  8.00000000E-01
  1.87311370E+01  2.82539436E+00  6.40121692E-01  1.61277759E-01  1.87311370E+01
  2.82539436E+00  6.40121692E-01  1.61277759E-01  1.87311370E+01  2.82539436E+00
  6.40121692E-01  1.61277759E-01
Contraction coefficients                   R   N=          67
  1.81961690E-03  1.39160796E-02  6.84053245E-02  2.33185760E-01  4.71267439E-01
  3.56618546E-01 -1.08506975E-01 -1.46451658E-01  1.12868858E+00  1.00000000E+00
  1.00000000E+00  1.81961690E-03  1.39160796E-02  6.84053245E-02  2.33185760E-01
  4.71267439E-01  3.56618546E-01 -1.08506975E-01 -1.46451658E-01  1.12868858E+00
  1.00000000E+00  1.00000000E+00  1.81961690E-03  1.39160796E-02  6.84053245E-02
  2.33185760E-01  4.71267439E-01  3.56618546E-01 -1.08506975E-01 -1.46451658E-01
  1.12868858E+00  1.00000000E+00  1.00000000E+00  1.83473713E-03  1.40373228E-02
  6.88426223E-02  2.32184443E-01  4.67941348E-01  3.62311985E-01 -1.19332420E-01
 -1.60854152E-01  1.14345644E+00  1.00000000E+00  1.00000000E+00  1.83473713E-03
  1.40373228E-02  6.88426223E-02  2.32184443E-01  4.67941348E-01  3.62311985E-01
 -1.19332420E-01 -1.60854152E-01  1.14345644E+00  1.00000000E+00  1.00000000E+00
  3.34946043E-02  2.34726953E-01  8.13757326E-01  1.00000000E+00  3.34946043E-02
  2.34726953E-01  8.13757326E-01  1.00000000E+00  3.34946043E-02  2.34726953E-01
  8.13757326E-01  1.00000000E+00
P(S=P) Contraction coefficients            R   N=          67
  0.00000000E+00  0.00000000E+00  0.00000000E+00  0.00000000E+00  0.00000000E+00
  0.00000000E+00  7.16287242E-02  3.45912103E-01  7.22469956E-01  1.00000000E+00
  0.00000000E+00  0.00000000E+00  0.00000000E+00  0.00000000E+00  0.00000000E+00
  0.00000000E+00  0.00000000E+00  7.16287242E-02  3.45912103E-01  7.22469956E-01
  1.00000000E+00  0.00000000E+00  0.00000000E+00  0.00000000E+00  0.00000000E+00
  0.00000000E+00  0.00000000E+00  0.00000000E+00  7.16287242E-02  3.45912103E-01
  7.22469956E-01  1.00000000E+00  0.00000000E+00  0.00000000E+00  0.00000000E+00
  0.00000000E+00  0.00000000E+00  0.00000000E+00  0.00000000E+00  6.89990666E-02
  3.16423961E-01  7.44308291E-01  1.00000000E+00  0.00000000E+00  0.00000000E+00
  0.00000000E+00  0.00000000E+00  0.00000000E+00  0.00000000E+00  0.00000000E+00
  6.89990666E-02  3.16423961E-01  7.44308291E-01  1.00000000E+00  0.00000000E+00
  0.00000000E+00  0.00000000E+00  0.00000000E+00  0.00000000E+00  0.00000000E+00
  0.00000000E+00  0.00000000E+00  0.00000000E+00  0.00000000E+00  0.00000000E+00
  0.00000000E+00  0.00000000E+00
Coordinates of each shell                  R   N=          78
  9.91677317E-01 -1.69627879E+00 -1.66722696E+00  9.91677317E-01 -1.69627879E+00
 -1.66722696E+00  9.91677317E-01 -1.69627879E+00 -1.66722696E+00  9.91677317E-01
 -1.69627879E+00 -1.66722696E+00  9.91664110E-01  2.29200453E+00 -6.35410159E-01
  9.91664110E-01  2.29200453E+00 -6.35410159E-01  9.91664110E-01  2.29200453E+00
 -6.35410159E-01  9.91664110E-01  2.29200453E+00 -6.35410159E-01  9.91675928E-01
 -5.95716886E-01  2.30263516E+00  9.91675928E-01 -5.95716886E-01  2.30263516E+00
  9.91675928E-01 -5.95716886E-01  2.30263516E+00  9.91675928E-01 -5.95716886E-01
  2.30263516E+00  4.79645060E-02 -2.73806985E-06  1.36887413E-06  4.79645060E-02
 -2.73806985E-06  1.36887413E-06  4.79645060E-02 -2.73806985E-06  1.36887413E-06
  4.79645060E-02 -2.73806985E-06  1.36887413E-06 -2.78106935E+00 -6.99272822E-06
  1.06332996E-06 -2.78106935E+00 -6.99272822E-06  1.06332996E-06 -2.78106935E+00
 -6.99272822E-06  1.06332996E-06 -2.78106935E+00 -6.99272822E-06  1.06332996E-06
 -3.45884356E+00  1.38738328E+00  1.36363744E+00 -3.45884356E+00  1.38738328E+00
  1.36363744E+00 -3.45884224E+00  4.87241848E-01 -1.88333261E+00 -3.45884224E+00
  4.87241848E-01 -1.88333261E+00 -3.45884131E+00 -1.87464643E+00  5.19698232E-01
 -3.45884131E+00 -1.87464643E+00  5.19698232E-01
Constraint Structure                       R   N=          24
  9.91677317E-01 -1.69627879E+00 -1.66722696E+00  9.91664110E-01  2.29200453E+00
 -6.35410159E-01  9.91675928E-01 -5.95716886E-01  2.30263516E+00  4.79645060E-02
 -2.73806985E-06  1.36887413E-06 -2.78106935E+00 -6.99272822E-06  1.06332996E-06
 -3.45884356E+00  1.38738328E+00  1.36363744E+00 -3.45884224E+00  4.87241848E-01
 -1.88333261E+00 -3.45884131E+00 -1.87464643E+00  5.19698232E-01
Num ILSW                                   I              100
ILSW                                       I   N=         100
           0           1           0           0           2           0
           0           0           0           0           0          -1
           0           0           0           0           0           0
           0           0           0           0           1           0
           1           0           0           0           0           0
           0           0      100000           0          -1           0
           0           0           0           0           0           0
           0           0           0           1           1           0
           0           0           1           0           0           0
           0           0           4          40           0           0
           0           0           0           0           0           0
           0           0           0           0           0           0
           0           0           0           0           0           0
           0           0           0           0           0           0
           0           0           0           0           0           0
           0           0           0           0           0           0
           0           0           0           0
Num RLSW                                   I               40
RLSW                                       R   N=          40
  1.00000000E+00  1.00000000E+00  1.00000000E+00  1.00000000E+00  1.00000000E+00
  0.00000000E+00  0.00000000E+00  1.00000000E+00  0.00000000E+00  0.00000000E+00
  0.00000000E+00  0.00000000E+00  1.00000000E+00  0.00000000E+00  0.00000000E+00
  0.00000000E+00  0.00000000E+00  1.00000000E+00  0.00000000E+00  0.00000000E+00
  0.00000000E+00  0.00000000E+00  1.00000000E+00  0.00000000E+00  0.00000000E+00
  0.00000000E+00  0.00000000E+00  1.00000000E+00  0.00000000E+00  0.00000000E+00
  0.00000000E+00  0.00000000E+00  0.00000000E+00  0.00000000E+00  0.00000000E+00
  0.00000000E+00  0.00000000E+00  0.00000000E+00  1.00000000E+00  1.00000000E+00
MxBond                                     I                4
NBond                                      I   N=           8
           1           1           1           4           4           1
           1           1
IBond                                      I   N=          32
           4           0           0           0           4           0
           0           0           4           0           0           0
           1           2           3           5           4           6
           7           8           5           0           0           0
           5           0           0           0           5           0
           0           0
RBond                                      R   N=          32
  1.00000000E+00  0.00000000E+00  0.00000000E+00  0.00000000E+00  1.00000000E+00
  0.00000000E+00  0.00000000E+00  0.00000000E+00  1.00000000E+00  0.00000000E+00
  0.00000000E+00  0.00000000E+00  1.00000000E+00  1.00000000E+00  1.00000000E+00
  1.00000000E+00  1.00000000E+00  1.00000000E+00  1.00000000E+00  1.00000000E+00
  1.00000000E+00  0.00000000E+00  0.00000000E+00  0.00000000E+00  1.00000000E+00
  0.00000000E+00  0.00000000E+00  0.00000000E+00  1.00000000E+00  0.00000000E+00
  0.00000000E+00  0.00000000E+00
Virial Ratio                               R      2.002424234751116E+00
SCF Energy                                 R     -3.758176167649096E+02
MP2 Energy                                 R     -3.765873062158976E+02
Total Energy                               R     -3.765873062158976E+02
Post-SCF wavefunction norm                 R      1.544623624119079E+00
RMS Force                                  R      3.061398214101240E-06
RMS Density                                R      1.138730445416023E-09
External E-field                           R   N=          35
  0.00000000E+00  0.00000000E+00  0.00000000E+00  0.00000000E+00  0.00000000E+00
  0.00000000E+00  0.00000000E+00  0.00000000E+00  0.00000000E+00  0.00000000E+00
  0.00000000E+00  0.00000000E+00  0.00000000E+00  0.00000000E+00  0.00000000E+00
  0.00000000E+00  0.00000000E+00  0.00000000E+00  0.00000000E+00  0.00000000E+00
  0.00000000E+00  0.00000000E+00  0.00000000E+00  0.00000000E+00  0.00000000E+00
  0.00000000E+00  0.00000000E+00  0.00000000E+00  0.00000000E+00  0.00000000E+00
  0.00000000E+00  0.00000000E+00  0.00000000E+00  0.00000000E+00  0.00000000E+00
IOpCl                                      I                0
IROHF                                      I                0
Alpha Orbital Energies                     R   N=          81
 -2.63320936E+01 -2.63320929E+01 -2.63320659E+01 -1.15056962E+01 -1.12572838E+01
 -1.71020731E+00 -1.61747075E+00 -1.61746970E+00 -1.06801704E+00 -9.12419879E-01
 -8.06824948E-01 -8.06824665E-01 -7.67509224E-01 -6.95759854E-01 -6.95759631E-01
 -6.49092100E-01 -6.49091601E-01 -6.32848431E-01 -5.86500399E-01 -5.86500330E-01
 -5.61400098E-01  2.44247810E-01  2.80335301E-01  2.80335372E-01  3.83686774E-01
  4.00099976E-01  4.00101042E-01  4.50310234E-01  7.07239409E-01  7.36209042E-01
  7.36209384E-01  7.91168327E-01  7.99911966E-01  7.99912127E-01  9.97021571E-01
  1.12172250E+00  1.12172258E+00  1.18825672E+00  1.34111738E+00  1.34111781E+00
  1.37971805E+00  1.42570540E+00  1.42570590E+00  1.51210504E+00  1.63518686E+00
  1.63518732E+00  1.64135211E+00  1.67813165E+00  1.67813176E+00  1.71089233E+00
  1.91360831E+00  1.91360889E+00  2.04887976E+00  2.04888004E+00  2.12122794E+00
  2.12807360E+00  2.14889576E+00  2.14889617E+00  2.23395075E+00  2.25162224E+00
  2.25162360E+00  2.36320827E+00  2.36320853E+00  2.37792342E+00  2.52078187E+00
  2.52078202E+00  2.54845178E+00  2.61788087E+00  2.76354791E+00  2.76355202E+00
  3.08504586E+00  3.08504660E+00  3.13643898E+00  3.36690610E+00  3.39684177E+00
  3.39684245E+00  4.57547609E+00  4.66067312E+00  4.66067874E+00  4.87124129E+00
  5.56689098E+00
Alpha MO coefficients                      R   N=        6561
 -6.38728951E-01 -1.14246064E-02  2.21574336E-04 -3.94206884E-04 -3.89726094E-04
 -5.15724767E-03 -1.57001308E-04  2.83251449E-04  1.92113088E-04  2.95615994E-03
  3.06481854E-03  2.99032582E-03 -9.25370264E-05 -8.58759947E-05  1.38554526E-04
 -1.05067967E-01 -1.87807664E-03  3.64071659E-05  8.71674086E-05 -2.68870583E-05
 -8.52302675E-04 -2.55155500E-05 -7.84977777E-05 -8.17281082E-05  4.87000181E-04
  5.44382499E-04  4.52166471E-04  2.14630561E-05  1.37905637E-07  4.47898342E-05
  7.54897608E-01  1.35056357E-02 -2.61977919E-04  1.63120671E-04 -6.34526794E-04
  6.08488094E-03  1.86365265E-04 -1.37661550E-04  3.79635512E-04 -3.49191533E-03
 -3.46281151E-03 -3.69229083E-03  3.96033594E-05 -1.44110299E-04  1.02285964E-04
 -2.87370720E-07  1.70818869E-06  3.03746121E-06  8.44302075E-05  6.16653024E-04
  9.55584768E-06 -1.59166264E-06  1.22386686E-05  8.93890489E-05  4.87168699E-07
 -9.42161015E-05  9.73409521E-05  2.18045918E-05  1.59252340E-04 -1.38102320E-04
  1.13465546E-07  1.43639911E-06 -3.47168595E-07 -5.37324752E-07 -3.92374077E-06
 -4.86721270E-06 -3.39465892E-06 -2.16919691E-05 -1.58436481E-04 -9.11970181E-07
  1.13377300E-06 -1.32488120E-06 -7.38665170E-06 -5.39498467E-05  1.77228663E-06
  2.00996295E-05  3.19108945E-05 -2.27348048E-05 -3.82070115E-05  3.69688664E-06
  5.06137749E-06 -5.05610804E-01 -9.04833162E-03  1.75551741E-04 -3.14422885E-04
 -3.06103240E-04 -4.06701918E-03 -1.25485719E-04  1.38623973E-04  2.47879642E-04
  2.33724034E-03  2.35178812E-03  2.43943127E-03 -6.82692765E-05 -7.36673463E-05
  1.12428265E-04  7.95419440E-01  1.42254768E-02 -2.75866658E-04 -6.65317702E-04
  1.84077444E-04  6.42814988E-03  1.95063172E-04  3.98230009E-04 -1.24400145E-04
 -3.68240507E-03 -3.89509270E-03 -3.64621128E-03 -1.51068368E-04  4.27040839E-05
  9.66883961E-05 -3.17096205E-01 -5.67604053E-03  1.10142131E-04 -7.12996711E-05
  2.65821580E-04 -2.54630739E-03 -7.90387892E-05 -4.68803063E-05 -1.90514202E-04
  1.46501518E-03  1.42308390E-03  1.58119771E-03 -1.04875097E-05  6.24058268E-05
  1.96290702E-05  7.06390986E-07 -4.19860039E-06 -7.46847111E-06  6.16595470E-04
 -8.43582133E-05 -2.34886601E-05  3.91156174E-06  8.93833573E-05 -1.22285385E-05
 -1.19855810E-06  1.15739850E-04 -1.23421230E-04  1.59238548E-04 -2.17856383E-05
 -1.10600103E-04 -2.78965270E-07 -3.53086823E-06  8.53238945E-07 -3.92326973E-06
  5.36863196E-07  1.19645219E-05  8.34434869E-06 -1.58422973E-04  2.16737332E-05
  2.24171485E-06 -1.30024228E-06  1.76939838E-06 -5.39447665E-05  7.38034165E-06
  1.41964554E-06  1.43908931E-05  2.59931716E-05  8.59691977E-06  1.65076122E-05
 -2.55975005E-05 -3.94666724E-05  5.70354776E-01  1.04291615E-02 -2.05343669E-04
  3.53349889E-04  3.47360271E-04  3.86577289E-03  1.98068783E-04 -4.24839432E-04
 -4.15237905E-04 -2.50416162E-03 -2.66000695E-03 -2.65254263E-03  9.53248574E-05
  9.35556518E-05 -1.86123844E-04  5.87528865E-01  1.07363852E-02 -2.11298736E-04
 -4.91845783E-04  1.36365738E-04  4.00430759E-03  2.02296461E-04  5.81357210E-04
 -1.60723798E-04 -2.58362063E-03 -2.87880086E-03 -2.59654199E-03 -1.31987861E-04
  3.65647608E-05  9.75480436E-05  5.64359040E-01  1.03219053E-02 -2.03263381E-04
  1.22769059E-04 -4.74672632E-04  3.81740789E-03  1.96591314E-04 -1.49185512E-04
  5.71741173E-04 -2.47642069E-03 -2.48819200E-03 -2.76752463E-03  3.32260863E-05
 -1.28140946E-04  9.03589824E-05 -4.45957160E-05  2.64665548E-04  4.71177938E-04
  9.22604700E-06 -5.31093847E-06  1.48235491E-03 -2.46854943E-04  1.34191476E-06
 -7.72416127E-07  7.56477893E-05  2.45088533E-04  2.40062541E-04  2.38272140E-06
 -1.37213952E-06 -8.62491649E-07  1.76027834E-05  2.22840109E-04 -5.38496561E-05
 -5.88978542E-08  3.38118712E-08 -7.55011396E-04 -5.26617492E-04 -2.37235414E-06
  1.36523236E-06 -1.41476129E-04 -1.48583387E-05 -1.47939671E-05 -8.07619948E-07
  4.64763404E-07  1.10399615E-08  5.50182595E-05 -6.36691294E-05  5.52026053E-05
 -6.33674397E-05  5.44900683E-05 -6.45330156E-05 -1.10553319E-04  3.25034215E-04
 -8.11669921E-05  2.32183042E-04  2.28207777E-04 -1.63536343E-04  7.26860259E-05
 -9.20134830E-04 -9.04382130E-04  1.02449234E-04 -2.79477656E-04 -2.60597373E-04
  2.00412042E-04  1.96980650E-04 -6.31054320E-04 -1.10554185E-04  3.25022131E-04
 -8.11649522E-05 -3.13724453E-04  8.69737295E-05 -1.63487155E-04  7.26735060E-05
  1.24326769E-03 -3.44671069E-04  1.02444060E-04 -7.38613974E-04  1.98524504E-04
 -2.70788813E-04  7.50705748E-05  3.24969825E-04 -1.10553234E-04  3.25037713E-04
 -8.11669732E-05  8.15400876E-05 -3.15181174E-04 -1.63550763E-04  7.26873603E-05
 -3.23141962E-04  1.24905922E-03  1.02451619E-04  2.07977556E-04 -7.48049328E-04
  7.03823287E-05 -2.72052568E-04  3.06082753E-04  9.96243940E-01  2.43948932E-02
  1.73833226E-03 -3.40627144E-09  4.75083763E-09 -8.80459226E-03  2.93360096E-03
 -1.24074502E-08  8.85372859E-09 -7.26161646E-04 -2.27951464E-04 -2.27939318E-04
 -7.90467158E-09  3.72399846E-09  2.03613162E-09  1.23824357E-03 -1.70233730E-04
  6.60415381E-05  1.49095337E-10 -3.23883447E-11  4.26822764E-03  2.43842476E-03
  6.79465966E-09 -1.54268363E-09 -1.61256726E-04 -1.44130514E-04 -1.44130282E-04
  1.44687162E-10 -1.17391655E-10  9.12329048E-12 -1.67561789E-04  2.38880531E-04
 -1.67561974E-04  2.38880468E-04 -1.67561376E-04  2.38879961E-04 -4.16628851E-05
 -2.93373728E-04  9.00026074E-05 -2.64785809E-05 -2.60248709E-05  6.60953417E-04
 -2.33549556E-04  8.45148379E-05  8.30657855E-05 -5.97753530E-05 -2.31300296E-04
 -2.33630517E-04 -5.40136819E-05 -5.30887993E-05  7.78698944E-05 -4.16632625E-05
 -2.93376280E-04  9.00026315E-05  3.57780804E-05 -9.91881006E-06  6.60962871E-04
 -2.33551919E-04 -1.14196159E-04  3.16587635E-05 -5.97764676E-05 -1.74647258E-04
 -2.90286507E-04  7.29840413E-05 -2.02333427E-05 -4.00999416E-05 -4.16628556E-05
 -2.93373629E-04  9.00025592E-05 -9.29885914E-06  3.59435534E-05  6.60952924E-04
 -2.33549394E-04  2.96808010E-05 -1.14725064E-04 -5.97753061E-05 -2.91450411E-04
 -1.73479918E-04 -1.89686243E-05  7.33219334E-05 -3.77698060E-05 -1.57516021E-03
  2.13813135E-04 -1.16676050E-04 -1.05671488E-10 -2.10189048E-10  3.08459403E-03
 -1.30924111E-03 -7.22565343E-09  1.70395519E-09 -5.56802332E-04 -2.60232107E-04
 -2.60232052E-04  2.33413739E-11 -2.25522864E-10  1.46583533E-10  9.95666527E-01
  2.88779178E-02  4.30088733E-04  1.02510499E-09  2.43604226E-10 -1.47137044E-02
 -7.74235006E-04 -4.30939448E-09 -1.84666678E-10 -1.91350416E-03 -1.92457837E-03
 -1.92457869E-03  8.18572521E-10 -1.31326391E-10 -2.91549754E-10  1.34571769E-04
  2.53900940E-03  1.34571529E-04  2.53900902E-03  1.34570505E-04  2.53900692E-03
 -1.20481281E-01  2.73621770E-01 -1.62322251E-02  3.72038906E-02  3.65669066E-02
  2.50168630E-01 -1.30082440E-02  2.81974230E-02  2.77146014E-02  1.00593411E-02
  1.52389583E-02  1.49903076E-02 -4.37277574E-03 -4.29790334E-03  8.31106679E-03
 -1.20479410E-01  2.73617293E-01 -1.62316239E-02 -5.02692112E-02  1.39361300E-02
  2.50165273E-01 -1.30078831E-02 -3.81000523E-02  1.05624646E-02  1.00590413E-02
  2.12855078E-02  8.94328934E-03  5.90835698E-03 -1.63797138E-03 -4.27988829E-03
 -1.20482081E-01  2.73623677E-01 -1.62323337E-02  1.30656641E-02 -5.05033394E-02
  2.50170085E-01 -1.30082848E-02  9.90266260E-03 -3.82771525E-02  1.00594365E-02
  8.81923447E-03  2.14102573E-02 -1.53567330E-03  5.93590638E-03 -4.03115339E-03
 -8.97002168E-02  1.78062808E-01  5.36557584E-02 -8.71748270E-07  6.51188016E-07
 -2.21659982E-02 -1.12193692E-03 -9.53351212E-08  3.88632030E-08 -9.59146958E-03
  3.98645451E-03  3.98693138E-03 -2.43907819E-07  1.32134190E-07  6.99915794E-08
 -1.01490988E-02  1.41538942E-02  2.04309785E-02  1.17624700E-08  1.92816335E-08
  2.81823186E-02  1.66420872E-02  7.99428270E-09  1.46322461E-08  8.79428748E-03
 -4.55111455E-04 -4.55113891E-04  6.90149037E-09  6.77027066E-09 -1.65819042E-10
  1.65822206E-03  1.36043839E-03  1.65821924E-03  1.36043748E-03  1.65821696E-03
  1.36042929E-03  1.46579046E-01 -3.42773350E-01  1.74193760E-02 -2.87981494E-02
 -1.76482458E-02 -2.91193049E-01  1.11559542E-02 -1.74821660E-02 -1.13315495E-02
 -1.57091444E-02 -1.85247751E-02 -1.74474577E-02  2.93761409E-03  2.38875342E-03
 -4.29536234E-03  2.57418462E-02 -6.01969663E-02  3.05909543E-03  8.83866531E-03
  1.02483722E-02 -5.11386707E-02  1.95916355E-03  5.24935403E-03  5.51715563E-03
 -2.75878077E-03 -4.11326592E-03 -2.20408940E-03 -7.90872232E-04 -3.74819424E-04
 -3.66669910E-04 -1.72319537E-01  4.02967264E-01 -2.04783712E-02  1.41791811E-02
 -3.62939647E-02  3.42328771E-01 -1.31149971E-02  8.47478293E-03 -2.25928852E-02
  1.84678264E-02  1.74515427E-02  2.48377278E-02 -1.31993544E-03  4.23587698E-03
 -2.74686692E-03  2.36532255E-07 -4.89002476E-07 -7.59434663E-08  1.63512543E-02
  1.23600664E-01  4.49937788E-08 -1.08269266E-08 -2.71259326E-05 -2.05100979E-04
  2.26792313E-08 -1.21089467E-02  1.21089168E-02  2.47533359E-03  1.87110598E-02
 -1.72980972E-02  4.49532689E-08 -6.77236799E-08 -7.71473046E-08  7.18994058E-04
  5.43493625E-03 -1.06265492E-07 -6.22348447E-08  7.60115969E-04  5.74591395E-03
 -2.64950542E-08  9.02946756E-05 -9.02917058E-05  2.08088925E-04  1.57295378E-03
  1.28996005E-04  5.69478535E-04 -1.53992807E-04 -6.69499899E-04  1.81031648E-04
  9.99915513E-05 -2.70639264E-05  1.14349845E-01 -2.67405821E-01  1.35891962E-02
 -1.14806578E-02 -2.49443171E-02 -2.27166660E-01  8.70296601E-03 -7.60646812E-03
 -1.49766101E-02 -1.22551019E-02 -1.34737066E-02 -1.45891002E-02  1.77776182E-03
  2.38638222E-03 -3.37038533E-03 -1.84117181E-01  4.30555730E-01 -2.18799940E-02
 -3.93778122E-02  1.26921013E-02  3.65766451E-01 -1.40127690E-02 -2.44557269E-02
  7.75467016E-03  1.97320868E-02  2.65523313E-02  1.86322206E-02  4.54135853E-03
 -1.34205461E-03 -2.89026814E-03  6.97644347E-02 -1.63143379E-01  8.29070796E-03
  7.16512848E-03  1.80324539E-02 -1.38593490E-01  5.30962475E-03  3.65499966E-03
  1.09799546E-02 -7.47680479E-03 -6.66189315E-03 -1.04591368E-02 -6.93835526E-05
 -1.87109862E-03  2.71932217E-04 -5.15250297E-07  1.06668808E-06 -2.43807781E-07
  1.23600120E-01 -1.63511896E-02 -1.05123608E-07  3.41406775E-08 -2.05042189E-04
  2.71151797E-05 -1.49283181E-07  1.49807378E-02 -1.49805680E-02  1.87107983E-02
 -2.47524234E-03 -1.39821781E-02 -1.13839773E-07  1.81257486E-07  1.75454312E-07
  5.43494578E-03 -7.18998115E-04  2.38783114E-07  1.34793716E-07  5.74592164E-03
 -7.60119891E-04  5.36934511E-08 -1.11706030E-04  1.11706721E-04  1.57294671E-03
 -2.08086368E-04  1.04258852E-04  4.44296467E-04 -1.20121464E-04  2.71088997E-04
 -7.32617241E-05 -7.15295904E-04  1.93461655E-04  3.78326664E-02 -8.85695448E-02
 -7.69333189E-02  5.13743888E-02  5.04947464E-02 -1.05029664E-01 -4.17633446E-02
  3.40099065E-02  3.34275770E-02 -1.08298065E-03 -6.72319574E-04 -8.30903680E-04
 -4.98923855E-03 -4.90381288E-03  5.30103148E-03  3.78326713E-02 -8.85695122E-02
 -7.69326592E-02 -6.94170809E-02  1.92444259E-02 -1.05029751E-01 -4.17629363E-02
 -4.59541544E-02  1.27398233E-02 -1.08303954E-03  3.18459266E-03 -4.68770321E-03
  6.74139298E-03 -1.86891100E-03 -2.72985927E-03  3.78327033E-02 -8.85696407E-02
 -7.69334657E-02  1.80421200E-02 -6.97391886E-02 -1.05029770E-01 -4.17634188E-02
  1.19439119E-02 -4.61673964E-02 -1.08298705E-03 -4.76706639E-03  3.26383051E-03
 -1.75216629E-03  6.77273343E-03 -2.57117000E-03 -1.06582391E-01  2.45123364E-01
 -1.65535792E-01 -4.51074343E-07  9.29493257E-08  9.32510585E-02 -4.72466490E-02
 -8.61676657E-08 -6.86406088E-10  1.49741267E-02 -7.52293765E-03 -7.52288154E-03
  4.00322676E-08  1.06900962E-09  8.46694621E-09 -1.59639707E-01  2.98812052E-01
  7.30085835E-02  1.43644084E-07  1.78171299E-08  2.79540527E-01  9.83480016E-03
 -2.27588712E-08  3.94401875E-08  1.29988562E-02  5.62746750E-03  5.62746967E-03
  1.16055200E-08  4.82972604E-09 -3.25214559E-09  9.25529863E-02  1.12755826E-02
  9.25529821E-02  1.12755879E-02  9.25529472E-02  1.12755784E-02  4.41661239E-02
 -1.09691370E-01 -1.98260511E-02  1.77784392E-01  1.74740293E-01 -1.16911051E-01
 -1.21517664E-02  1.21400850E-01  1.19322150E-01 -9.37149942E-03  2.68764877E-03
  2.23388353E-03 -4.57585766E-03 -4.49751986E-03  1.51673537E-02  4.41657719E-02
 -1.09690542E-01 -1.98238417E-02 -2.40219174E-01  6.65959439E-02 -1.16909816E-01
 -1.21503729E-02 -1.64034932E-01  4.54753900E-02 -9.37151080E-03  1.37227835E-02
 -8.80121462E-03  6.18266725E-03 -1.71402252E-03 -7.81061276E-03  4.41662553E-02
 -1.09691672E-01 -1.98261724E-02  6.24362351E-02 -2.41337263E-01 -1.16911523E-01
 -1.21518061E-02  4.26348342E-02 -1.64798085E-01 -9.37152494E-03 -9.02826745E-03
  1.39498206E-02 -1.60698745E-03  6.21158801E-03 -7.35668372E-03 -1.05216216E-01
  2.55774582E-01  1.58758431E-01 -5.88947401E-07  5.71311917E-07  5.99158433E-02
 -1.23713453E-02 -8.26096352E-08  2.73056531E-08 -8.87047905E-03  2.81652028E-03
  2.81674747E-03 -1.60552349E-07  8.59646159E-08  3.51797240E-08  8.83250858E-02
 -1.62929876E-01  7.22071557E-02 -3.24806320E-08  6.89155099E-08 -1.81793286E-01
  1.46742739E-02 -2.81782081E-08  1.30193938E-08  1.05372887E-02 -8.80685792E-03
 -8.80687015E-03  7.76594029E-09  1.13401473E-08  3.54308537E-09 -7.53030529E-02
 -3.05038322E-02 -7.53030802E-02 -3.05038556E-02 -7.53030299E-02 -3.05037790E-02
 -3.47647415E-02  7.33593471E-02  1.48743511E-01 -2.86342909E-01 -5.81899402E-02
  1.40586184E-01  9.37144258E-02 -1.85884869E-01 -3.34181406E-02 -1.52405638E-03
 -1.24525490E-02  1.32823793E-03  1.03743101E-02  4.62024496E-03 -8.50019644E-03
 -5.29242088E-03  1.11678976E-02  2.26432279E-02  1.06122095E-01  2.43180076E-01