78858                                                                   
Freq      RMP2-FC                                                     6-31G(d)            
Number of atoms                            I               20
Info1-9                                    I   N=           9
          32          30        1002           0           0         100
           6           2           1
Charge                                     I                0
Multiplicity                               I                1
Number of electrons                        I               90
Number of alpha electrons                  I               45
Number of beta electrons                   I               45
Number of basis functions                  I              187
Number of independent functions            I              187
Number of point charges in /Mol/           I                0
Number of translation vectors              I                0
Atomic numbers                             I   N=          20
          16           8           8           7           6           6
           6           6           6           6           6           1
           1           1           1           1           1           1
           1           1
Nuclear charges                            R   N=          20
  1.60000000E+01  8.00000000E+00  8.00000000E+00  7.00000000E+00  6.00000000E+00
  6.00000000E+00  6.00000000E+00  6.00000000E+00  6.00000000E+00  6.00000000E+00
  6.00000000E+00  1.00000000E+00  1.00000000E+00  1.00000000E+00  1.00000000E+00
  1.00000000E+00  1.00000000E+00  1.00000000E+00  1.00000000E+00  1.00000000E+00
Current cartesian coordinates              R   N=          60
 -2.41521206E+00 -8.09851739E-01 -6.56407916E-01 -3.25045191E+00  7.14270057E-01
 -2.80440555E+00 -2.91370173E+00 -3.51834982E+00 -4.31973513E-01 -3.69874017E+00
  4.93791056E-01  1.91045090E+00  9.11980250E-01 -3.68145929E-01 -3.69786307E-01
  2.33402724E+00 -2.15435052E+00  9.59392846E-01  2.02281437E+00  1.80884932E+00
 -1.36971916E+00  4.92047319E+00 -1.75199076E+00  1.26971511E+00  4.61333680E+00
  2.18635165E+00 -1.04105356E+00  6.05650990E+00  4.22523514E-01  2.90551267E-01
 -3.33776544E+00  3.21007881E+00  2.29582444E+00  1.43257755E+00 -3.86230993E+00
  1.65815831E+00  8.83075396E-01  3.12777307E+00 -2.45430773E+00 -3.34528334E+00
 -6.02855327E-01  3.45389105E+00  6.05246540E+00 -3.13969586E+00  2.27631743E+00
  5.50440959E+00  3.86190206E+00 -1.82777262E+00  8.07362735E+00  7.24338915E-01
  5.36635814E-01 -4.53321872E+00  3.78663744E+00  3.87417463E+00 -3.97660564E+00
  4.18509321E+00  5.97630664E-01 -1.37150213E+00  3.73294841E+00  2.69612745E+00
Force Field                                I                0
Int Atom Types                             I   N=          20
           0           0           0           0           0           0
           0           0           0           0           0           0
           0           0           0           0           0           0
           0           0
MM charges                                 R   N=          20
  0.00000000E+00  0.00000000E+00  0.00000000E+00  0.00000000E+00  0.00000000E+00
  0.00000000E+00  0.00000000E+00  0.00000000E+00  0.00000000E+00  0.00000000E+00
  0.00000000E+00  0.00000000E+00  0.00000000E+00  0.00000000E+00  0.00000000E+00
  0.00000000E+00  0.00000000E+00  0.00000000E+00  0.00000000E+00  0.00000000E+00
Integer atomic weights                     I   N=          20
          32          16          16          14          12          12
          12          12          12          12          12           1
           1           1           1           1           1           1
           1           1
Real atomic weights                        R   N=          20
  3.19720718E+01  1.59949146E+01  1.59949146E+01  1.40030740E+01  1.20000000E+01
  1.20000000E+01  1.20000000E+01  1.20000000E+01  1.20000000E+01  1.20000000E+01
  1.20000000E+01  1.00782504E+00  1.00782504E+00  1.00782504E+00  1.00782504E+00
  1.00782504E+00  1.00782504E+00  1.00782504E+00  1.00782504E+00  1.00782504E+00
Atom fragment info                         I   N=          20
           0           0           0           0           0           0
           0           0           0           0           0           0
           0           0           0           0           0           0
           0           0
Atom residue num                           I   N=          20
           0           0           0           0           0           0
           0           0           0           0           0           0
           0           0           0           0           0           0
           0           0
Nuclear spins                              I   N=          20
           0           0           0           2           0           0
           0           0           0           0           0           1
           1           1           1           1           1           1
           1           1
Nuclear ZEff                               R   N=          20
 -1.36000000E+01 -5.60000000E+00 -5.60000000E+00 -4.55000000E+00 -3.60000000E+00
 -3.60000000E+00 -3.60000000E+00 -3.60000000E+00 -3.60000000E+00 -3.60000000E+00
 -3.60000000E+00 -1.00000000E+00 -1.00000000E+00 -1.00000000E+00 -1.00000000E+00
 -1.00000000E+00 -1.00000000E+00 -1.00000000E+00 -1.00000000E+00 -1.00000000E+00
Nuclear QMom                               R   N=          20
  0.00000000E+00  0.00000000E+00  0.00000000E+00  2.04400000E+00  0.00000000E+00
  0.00000000E+00  0.00000000E+00  0.00000000E+00  0.00000000E+00  0.00000000E+00
  0.00000000E+00  0.00000000E+00  0.00000000E+00  0.00000000E+00  0.00000000E+00
  0.00000000E+00  0.00000000E+00  0.00000000E+00  0.00000000E+00  0.00000000E+00
Nuclear GFac                               R   N=          20
  0.00000000E+00  0.00000000E+00  0.00000000E+00  4.03761000E-01  0.00000000E+00
  0.00000000E+00  0.00000000E+00  0.00000000E+00  0.00000000E+00  0.00000000E+00
  0.00000000E+00  2.79284600E+00  2.79284600E+00  2.79284600E+00  2.79284600E+00
  2.79284600E+00  2.79284600E+00  2.79284600E+00  2.79284600E+00  2.79284600E+00
MicOpt                                     I   N=          20
          -1          -1          -1          -1          -1          -1
          -1          -1          -1          -1          -1          -1
          -1          -1          -1          -1          -1          -1
          -1          -1
Number of contracted shells                I               63
Number of primitive shells                 I              163
Pure/Cartesian d shells                    I                1
Pure/Cartesian f shells                    I                0
Highest angular momentum                   I                2
Largest degree of contraction              I                6
Shell types                                I   N=          63
           0          -1          -1          -1           2           0
          -1          -1           2           0          -1          -1
           2           0          -1          -1           2           0
          -1          -1           2           0          -1          -1
           2           0          -1          -1           2           0
          -1          -1           2           0          -1          -1
           2           0          -1          -1           2           0
          -1          -1           2           0           0           0
           0           0           0           0           0           0
           0           0           0           0           0           0
           0           0           0
Number of primitives per shell             I   N=          63
           6           6           3           1           1           6
           3           1           1           6           3           1
           1           6           3           1           1           6
           3           1           1           6           3           1
           1           6           3           1           1           6
           3           1           1           6           3           1
           1           6           3           1           1           6
           3           1           1           3           1           3
           1           3           1           3           1           3
           1           3           1           3           1           3
           1           3           1
Shell to atom map                          I   N=          63
           1           1           1           1           1           2
           2           2           2           3           3           3
           3           4           4           4           4           5
           5           5           5           6           6           6
           6           7           7           7           7           8
           8           8           8           9           9           9
           9          10          10          10          10          11
          11          11          11          12          12          13
          13          14          14          15          15          16
          16          17          17          18          18          19
          19          20          20
Primitive exponents                        R   N=         163
  2.19171000E+04  3.30149000E+03  7.54146000E+02  2.12711000E+02  6.79896000E+01
  2.30515000E+01  4.23735000E+02  1.00710000E+02  3.21599000E+01  1.18079000E+01
  4.63110000E+00  1.87025000E+00  2.61584000E+00  9.22167000E-01  3.41287000E-01
  1.17167000E-01  6.50000000E-01  5.48467166E+03  8.25234946E+02  1.88046958E+02
  5.29645000E+01  1.68975704E+01  5.79963534E+00  1.55396162E+01  3.59993359E+00
  1.01376175E+00  2.70005823E-01  8.00000000E-01  5.48467166E+03  8.25234946E+02
  1.88046958E+02  5.29645000E+01  1.68975704E+01  5.79963534E+00  1.55396162E+01
  3.59993359E+00  1.01376175E+00  2.70005823E-01  8.00000000E-01  4.17351146E+03
  6.27457911E+02  1.42902093E+02  4.02343293E+01  1.28202129E+01  4.39043701E+00
  1.16263619E+01  2.71627981E+00  7.72218397E-01  2.12031498E-01  8.00000000E-01
  3.04752488E+03  4.57369518E+02  1.03948685E+02  2.92101553E+01  9.28666296E+00
  3.16392696E+00  7.86827235E+00  1.88128854E+00  5.44249258E-01  1.68714478E-01
  8.00000000E-01  3.04752488E+03  4.57369518E+02  1.03948685E+02  2.92101553E+01
  9.28666296E+00  3.16392696E+00  7.86827235E+00  1.88128854E+00  5.44249258E-01
  1.68714478E-01  8.00000000E-01  3.04752488E+03  4.57369518E+02  1.03948685E+02
  2.92101553E+01  9.28666296E+00  3.16392696E+00  7.86827235E+00  1.88128854E+00
  5.44249258E-01  1.68714478E-01  8.00000000E-01  3.04752488E+03  4.57369518E+02
  1.03948685E+02  2.92101553E+01  9.28666296E+00  3.16392696E+00  7.86827235E+00
  1.88128854E+00  5.44249258E-01  1.68714478E-01  8.00000000E-01  3.04752488E+03
  4.57369518E+02  1.03948685E+02  2.92101553E+01  9.28666296E+00  3.16392696E+00
  7.86827235E+00  1.88128854E+00  5.44249258E-01  1.68714478E-01  8.00000000E-01
  3.04752488E+03  4.57369518E+02  1.03948685E+02  2.92101553E+01  9.28666296E+00
  3.16392696E+00  7.86827235E+00  1.88128854E+00  5.44249258E-01  1.68714478E-01
  8.00000000E-01  3.04752488E+03  4.57369518E+02  1.03948685E+02  2.92101553E+01
  9.28666296E+00  3.16392696E+00  7.86827235E+00  1.88128854E+00  5.44249258E-01
  1.68714478E-01  8.00000000E-01  1.87311370E+01  2.82539436E+00  6.40121692E-01
  1.61277759E-01  1.87311370E+01  2.82539436E+00  6.40121692E-01  1.61277759E-01
  1.87311370E+01  2.82539436E+00  6.40121692E-01  1.61277759E-01  1.87311370E+01
  2.82539436E+00  6.40121692E-01  1.61277759E-01  1.87311370E+01  2.82539436E+00
  6.40121692E-01  1.61277759E-01  1.87311370E+01  2.82539436E+00  6.40121692E-01
  1.61277759E-01  1.87311370E+01  2.82539436E+00  6.40121692E-01  1.61277759E-01
  1.87311370E+01  2.82539436E+00  6.40121692E-01  1.61277759E-01  1.87311370E+01
  2.82539436E+00  6.40121692E-01  1.61277759E-01
Contraction coefficients                   R   N=         163
  1.86924085E-03  1.42303065E-02  6.96962317E-02  2.38487108E-01  4.83307220E-01
  3.38074154E-01 -2.37677050E-03 -3.16930067E-02 -1.13317024E-01  5.60900118E-02
  5.92255124E-01  4.55006095E-01 -2.50373114E-01  6.69567631E-02  1.05450627E+00
  1.00000000E+00  1.00000000E+00  1.83107443E-03  1.39501722E-02  6.84450781E-02
  2.32714336E-01  4.70192898E-01  3.58520853E-01 -1.10777550E-01 -1.48026263E-01
  1.13076702E+00  1.00000000E+00  1.00000000E+00  1.83107443E-03  1.39501722E-02
  6.84450781E-02  2.32714336E-01  4.70192898E-01  3.58520853E-01 -1.10777550E-01
 -1.48026263E-01  1.13076702E+00  1.00000000E+00  1.00000000E+00  1.83477216E-03
  1.39946270E-02  6.85865518E-02  2.32240873E-01  4.69069948E-01  3.60455199E-01
 -1.14961182E-01 -1.69117479E-01  1.14585195E+00  1.00000000E+00  1.00000000E+00
  1.83473713E-03  1.40373228E-02  6.88426223E-02  2.32184443E-01  4.67941348E-01
  3.62311985E-01 -1.19332420E-01 -1.60854152E-01  1.14345644E+00  1.00000000E+00
  1.00000000E+00  1.83473713E-03  1.40373228E-02  6.88426223E-02  2.32184443E-01
  4.67941348E-01  3.62311985E-01 -1.19332420E-01 -1.60854152E-01  1.14345644E+00
  1.00000000E+00  1.00000000E+00  1.83473713E-03  1.40373228E-02  6.88426223E-02
  2.32184443E-01  4.67941348E-01  3.62311985E-01 -1.19332420E-01 -1.60854152E-01
  1.14345644E+00  1.00000000E+00  1.00000000E+00  1.83473713E-03  1.40373228E-02
  6.88426223E-02  2.32184443E-01  4.67941348E-01  3.62311985E-01 -1.19332420E-01
 -1.60854152E-01  1.14345644E+00  1.00000000E+00  1.00000000E+00  1.83473713E-03
  1.40373228E-02  6.88426223E-02  2.32184443E-01  4.67941348E-01  3.62311985E-01
 -1.19332420E-01 -1.60854152E-01  1.14345644E+00  1.00000000E+00  1.00000000E+00
  1.83473713E-03  1.40373228E-02  6.88426223E-02  2.32184443E-01  4.67941348E-01
  3.62311985E-01 -1.19332420E-01 -1.60854152E-01  1.14345644E+00  1.00000000E+00
  1.00000000E+00  1.83473713E-03  1.40373228E-02  6.88426223E-02  2.32184443E-01
  4.67941348E-01  3.62311985E-01 -1.19332420E-01 -1.60854152E-01  1.14345644E+00
  1.00000000E+00  1.00000000E+00  3.34946043E-02  2.34726953E-01  8.13757326E-01
  1.00000000E+00  3.34946043E-02  2.34726953E-01  8.13757326E-01  1.00000000E+00
  3.34946043E-02  2.34726953E-01  8.13757326E-01  1.00000000E+00  3.34946043E-02
  2.34726953E-01  8.13757326E-01  1.00000000E+00  3.34946043E-02  2.34726953E-01
  8.13757326E-01  1.00000000E+00  3.34946043E-02  2.34726953E-01  8.13757326E-01
  1.00000000E+00  3.34946043E-02  2.34726953E-01  8.13757326E-01  1.00000000E+00
  3.34946043E-02  2.34726953E-01  8.13757326E-01  1.00000000E+00  3.34946043E-02
  2.34726953E-01  8.13757326E-01  1.00000000E+00
P(S=P) Contraction coefficients            R   N=         163
  0.00000000E+00  0.00000000E+00  0.00000000E+00  0.00000000E+00  0.00000000E+00
  0.00000000E+00  4.06100998E-03  3.06812999E-02  1.30451999E-01  3.27204999E-01
  4.52850998E-01  2.56041999E-01 -1.45104895E-02  3.10262776E-01  7.54482456E-01
  1.00000000E+00  0.00000000E+00  0.00000000E+00  0.00000000E+00  0.00000000E+00
  0.00000000E+00  0.00000000E+00  0.00000000E+00  7.08742682E-02  3.39752839E-01
  7.27158577E-01  1.00000000E+00  0.00000000E+00  0.00000000E+00  0.00000000E+00
  0.00000000E+00  0.00000000E+00  0.00000000E+00  0.00000000E+00  7.08742682E-02
  3.39752839E-01  7.27158577E-01  1.00000000E+00  0.00000000E+00  0.00000000E+00
  0.00000000E+00  0.00000000E+00  0.00000000E+00  0.00000000E+00  0.00000000E+00
  6.75797439E-02  3.23907296E-01  7.40895140E-01  1.00000000E+00  0.00000000E+00
  0.00000000E+00  0.00000000E+00  0.00000000E+00  0.00000000E+00  0.00000000E+00
  0.00000000E+00  6.89990666E-02  3.16423961E-01  7.44308291E-01  1.00000000E+00
  0.00000000E+00  0.00000000E+00  0.00000000E+00  0.00000000E+00  0.00000000E+00
  0.00000000E+00  0.00000000E+00  6.89990666E-02  3.16423961E-01  7.44308291E-01
  1.00000000E+00  0.00000000E+00  0.00000000E+00  0.00000000E+00  0.00000000E+00
  0.00000000E+00  0.00000000E+00  0.00000000E+00  6.89990666E-02  3.16423961E-01
  7.44308291E-01  1.00000000E+00  0.00000000E+00  0.00000000E+00  0.00000000E+00
  0.00000000E+00  0.00000000E+00  0.00000000E+00  0.00000000E+00  6.89990666E-02
  3.16423961E-01  7.44308291E-01  1.00000000E+00  0.00000000E+00  0.00000000E+00
  0.00000000E+00  0.00000000E+00  0.00000000E+00  0.00000000E+00  0.00000000E+00
  6.89990666E-02  3.16423961E-01  7.44308291E-01  1.00000000E+00  0.00000000E+00
  0.00000000E+00  0.00000000E+00  0.00000000E+00  0.00000000E+00  0.00000000E+00
  0.00000000E+00  6.89990666E-02  3.16423961E-01  7.44308291E-01  1.00000000E+00
  0.00000000E+00  0.00000000E+00  0.00000000E+00  0.00000000E+00  0.00000000E+00
  0.00000000E+00  0.00000000E+00  6.89990666E-02  3.16423961E-01  7.44308291E-01
  1.00000000E+00  0.00000000E+00  0.00000000E+00  0.00000000E+00  0.00000000E+00
  0.00000000E+00  0.00000000E+00  0.00000000E+00  0.00000000E+00  0.00000000E+00
  0.00000000E+00  0.00000000E+00  0.00000000E+00  0.00000000E+00  0.00000000E+00
  0.00000000E+00  0.00000000E+00  0.00000000E+00  0.00000000E+00  0.00000000E+00
  0.00000000E+00  0.00000000E+00  0.00000000E+00  0.00000000E+00  0.00000000E+00
  0.00000000E+00  0.00000000E+00  0.00000000E+00  0.00000000E+00  0.00000000E+00
  0.00000000E+00  0.00000000E+00  0.00000000E+00  0.00000000E+00  0.00000000E+00
  0.00000000E+00  0.00000000E+00  0.00000000E+00
Coordinates of each shell                  R   N=         189
 -2.41521206E+00 -8.09851739E-01 -6.56407916E-01 -2.41521206E+00 -8.09851739E-01
 -6.56407916E-01 -2.41521206E+00 -8.09851739E-01 -6.56407916E-01 -2.41521206E+00
 -8.09851739E-01 -6.56407916E-01 -2.41521206E+00 -8.09851739E-01 -6.56407916E-01
 -3.25045191E+00  7.14270057E-01 -2.80440555E+00 -3.25045191E+00  7.14270057E-01
 -2.80440555E+00 -3.25045191E+00  7.14270057E-01 -2.80440555E+00 -3.25045191E+00
  7.14270057E-01 -2.80440555E+00 -2.91370173E+00 -3.51834982E+00 -4.31973513E-01
 -2.91370173E+00 -3.51834982E+00 -4.31973513E-01 -2.91370173E+00 -3.51834982E+00
 -4.31973513E-01 -2.91370173E+00 -3.51834982E+00 -4.31973513E-01 -3.69874017E+00
  4.93791056E-01  1.91045090E+00 -3.69874017E+00  4.93791056E-01  1.91045090E+00
 -3.69874017E+00  4.93791056E-01  1.91045090E+00 -3.69874017E+00  4.93791056E-01
  1.91045090E+00  9.11980250E-01 -3.68145929E-01 -3.69786307E-01  9.11980250E-01
 -3.68145929E-01 -3.69786307E-01  9.11980250E-01 -3.68145929E-01 -3.69786307E-01
  9.11980250E-01 -3.68145929E-01 -3.69786307E-01  2.33402724E+00 -2.15435052E+00
  9.59392846E-01  2.33402724E+00 -2.15435052E+00  9.59392846E-01  2.33402724E+00
 -2.15435052E+00  9.59392846E-01  2.33402724E+00 -2.15435052E+00  9.59392846E-01
  2.02281437E+00  1.80884932E+00 -1.36971916E+00  2.02281437E+00  1.80884932E+00
 -1.36971916E+00  2.02281437E+00  1.80884932E+00 -1.36971916E+00  2.02281437E+00
  1.80884932E+00 -1.36971916E+00  4.92047319E+00 -1.75199076E+00  1.26971511E+00
  4.92047319E+00 -1.75199076E+00  1.26971511E+00  4.92047319E+00 -1.75199076E+00
  1.26971511E+00  4.92047319E+00 -1.75199076E+00  1.26971511E+00  4.61333680E+00
  2.18635165E+00 -1.04105356E+00  4.61333680E+00  2.18635165E+00 -1.04105356E+00
  4.61333680E+00  2.18635165E+00 -1.04105356E+00  4.61333680E+00  2.18635165E+00
 -1.04105356E+00  6.05650990E+00  4.22523514E-01  2.90551267E-01  6.05650990E+00
  4.22523514E-01  2.90551267E-01  6.05650990E+00  4.22523514E-01  2.90551267E-01
  6.05650990E+00  4.22523514E-01  2.90551267E-01 -3.33776544E+00  3.21007881E+00
  2.29582444E+00 -3.33776544E+00  3.21007881E+00  2.29582444E+00 -3.33776544E+00
  3.21007881E+00  2.29582444E+00 -3.33776544E+00  3.21007881E+00  2.29582444E+00
  1.43257755E+00 -3.86230993E+00  1.65815831E+00  1.43257755E+00 -3.86230993E+00
  1.65815831E+00  8.83075396E-01  3.12777307E+00 -2.45430773E+00  8.83075396E-01
  3.12777307E+00 -2.45430773E+00 -3.34528334E+00 -6.02855327E-01  3.45389105E+00
 -3.34528334E+00 -6.02855327E-01  3.45389105E+00  6.05246540E+00 -3.13969586E+00
  2.27631743E+00  6.05246540E+00 -3.13969586E+00  2.27631743E+00  5.50440959E+00
  3.86190206E+00 -1.82777262E+00  5.50440959E+00  3.86190206E+00 -1.82777262E+00
  8.07362735E+00  7.24338915E-01  5.36635814E-01  8.07362735E+00  7.24338915E-01
  5.36635814E-01 -4.53321872E+00  3.78663744E+00  3.87417463E+00 -4.53321872E+00
  3.78663744E+00  3.87417463E+00 -3.97660564E+00  4.18509321E+00  5.97630664E-01
 -3.97660564E+00  4.18509321E+00  5.97630664E-01 -1.37150213E+00  3.73294841E+00
  2.69612745E+00 -1.37150213E+00  3.73294841E+00  2.69612745E+00
Constraint Structure                       R   N=          60
 -2.41521206E+00 -8.09851739E-01 -6.56407916E-01 -3.25045191E+00  7.14270057E-01
 -2.80440555E+00 -2.91370173E+00 -3.51834982E+00 -4.31973513E-01 -3.69874017E+00
  4.93791056E-01  1.91045090E+00  9.11980250E-01 -3.68145929E-01 -3.69786307E-01
  2.33402724E+00 -2.15435052E+00  9.59392846E-01  2.02281437E+00  1.80884932E+00
 -1.36971916E+00  4.92047319E+00 -1.75199076E+00  1.26971511E+00  4.61333680E+00
  2.18635165E+00 -1.04105356E+00  6.05650990E+00  4.22523514E-01  2.90551267E-01
 -3.33776544E+00  3.21007881E+00  2.29582444E+00  1.43257755E+00 -3.86230993E+00
  1.65815831E+00  8.83075396E-01  3.12777307E+00 -2.45430773E+00 -3.34528334E+00
 -6.02855327E-01  3.45389105E+00  6.05246540E+00 -3.13969586E+00  2.27631743E+00
  5.50440959E+00  3.86190206E+00 -1.82777262E+00  8.07362735E+00  7.24338915E-01
  5.36635814E-01 -4.53321872E+00  3.78663744E+00  3.87417463E+00 -3.97660564E+00
  4.18509321E+00  5.97630664E-01 -1.37150213E+00  3.73294841E+00  2.69612745E+00
Num ILSW                                   I              100
ILSW                                       I   N=         100
           0           1           0           0           2           0
           0           0           0           0           0          -1
           0           0           0           0           0           0
           0           0           0           0           1           0
           1           0           0           0           0           0
           0           0      100000           0          -1           0
           0           0           0           0           0           0
           0           0           0           1           1           0
           0           0           1           0           0           0
           0           0           4          40           0           0
           0           0           0           0           0           0
           0           0           0           0           0           0
           0           0           0           0           0           0
           0           0           0           0           0           0
           0           0           0           0           0           0
           0           0           0           0           0           0
           0           0           0           0
Num RLSW                                   I               40
RLSW                                       R   N=          40
  1.00000000E+00  1.00000000E+00  1.00000000E+00  1.00000000E+00  1.00000000E+00
  0.00000000E+00  0.00000000E+00  1.00000000E+00  0.00000000E+00  0.00000000E+00
  0.00000000E+00  0.00000000E+00  1.00000000E+00  0.00000000E+00  0.00000000E+00
  0.00000000E+00  0.00000000E+00  1.00000000E+00  0.00000000E+00  0.00000000E+00
  0.00000000E+00  0.00000000E+00  1.00000000E+00  0.00000000E+00  0.00000000E+00
  0.00000000E+00  0.00000000E+00  1.00000000E+00  0.00000000E+00  0.00000000E+00
  0.00000000E+00  0.00000000E+00  0.00000000E+00  0.00000000E+00  0.00000000E+00
  0.00000000E+00  0.00000000E+00  0.00000000E+00  1.00000000E+00  1.00000000E+00
MxBond                                     I                4
NBond                                      I   N=          20
           4           1           1           3           3           3
           3           3           3           3           4           1
           1           1           1           1           1           1
           1           1
IBond                                      I   N=          80
           2           3           4           5           1           0
           0           0           1           0           0           0
           1          11          14           0           1           6
           7           0           5           8          12           0
           5           9          13           0           6          10
          15           0           7          10          16           0
           8           9          17           0           4          18
          19          20           6           0           0           0
           7           0           0           0           4           0
           0           0           8           0           0           0
           9           0           0           0          10           0
           0           0          11           0           0           0
          11           0           0           0          11           0
           0           0
RBond                                      R   N=          80
  2.00000000E+00  2.00000000E+00  1.00000000E+00  1.00000000E+00  2.00000000E+00
  0.00000000E+00  0.00000000E+00  0.00000000E+00  2.00000000E+00  0.00000000E+00
  0.00000000E+00  0.00000000E+00  1.00000000E+00  1.00000000E+00  1.00000000E+00
  0.00000000E+00  1.00000000E+00  1.50000000E+00  1.50000000E+00  0.00000000E+00
  1.50000000E+00  1.50000000E+00  1.00000000E+00  0.00000000E+00  1.50000000E+00
  1.50000000E+00  1.00000000E+00  0.00000000E+00  1.50000000E+00  1.50000000E+00
  1.00000000E+00  0.00000000E+00  1.50000000E+00  1.50000000E+00  1.00000000E+00
  0.00000000E+00  1.50000000E+00  1.50000000E+00  1.00000000E+00  0.00000000E+00
  1.00000000E+00  1.00000000E+00  1.00000000E+00  1.00000000E+00  1.00000000E+00
  0.00000000E+00  0.00000000E+00  0.00000000E+00  1.00000000E+00  0.00000000E+00
  0.00000000E+00  0.00000000E+00  1.00000000E+00  0.00000000E+00  0.00000000E+00
  0.00000000E+00  1.00000000E+00  0.00000000E+00  0.00000000E+00  0.00000000E+00
  1.00000000E+00  0.00000000E+00  0.00000000E+00  0.00000000E+00  1.00000000E+00
  0.00000000E+00  0.00000000E+00  0.00000000E+00  1.00000000E+00  0.00000000E+00
  0.00000000E+00  0.00000000E+00  1.00000000E+00  0.00000000E+00  0.00000000E+00
  0.00000000E+00  1.00000000E+00  0.00000000E+00  0.00000000E+00  0.00000000E+00
Virial Ratio                               R      2.002062976228692E+00
SCF Energy                                 R     -8.719170659735003E+02
MP2 Energy                                 R     -8.734751318775395E+02
Total Energy                               R     -8.734751318775395E+02
Post-SCF wavefunction norm                 R      1.751025302798766E+00
RMS Force                                  R      2.449851653825705E-07
RMS Density                                R      1.516808396000462E-09
External E-field                           R   N=          35
  0.00000000E+00  0.00000000E+00  0.00000000E+00  0.00000000E+00  0.00000000E+00
  0.00000000E+00  0.00000000E+00  0.00000000E+00  0.00000000E+00  0.00000000E+00
  0.00000000E+00  0.00000000E+00  0.00000000E+00  0.00000000E+00  0.00000000E+00
  0.00000000E+00  0.00000000E+00  0.00000000E+00  0.00000000E+00  0.00000000E+00
  0.00000000E+00  0.00000000E+00  0.00000000E+00  0.00000000E+00  0.00000000E+00
  0.00000000E+00  0.00000000E+00  0.00000000E+00  0.00000000E+00  0.00000000E+00
  0.00000000E+00  0.00000000E+00  0.00000000E+00  0.00000000E+00  0.00000000E+00
IOpCl                                      I                0
IROHF                                      I                0
Alpha Orbital Energies                     R   N=         187
 -9.22106376E+01 -2.05547006E+01 -2.05546344E+01 -1.56086609E+01 -1.12829095E+01
 -1.12774825E+01 -1.12710757E+01 -1.12710029E+01 -1.12678862E+01 -1.12620900E+01
 -1.12619652E+01 -9.18120193E+00 -6.86720674E+00 -6.86714962E+00 -6.86626283E+00
 -1.45455721E+00 -1.33676835E+00 -1.23490666E+00 -1.17934697E+00 -1.05626122E+00
 -1.04125230E+00 -9.64069715E-01 -8.93269439E-01 -8.53352196E-01 -8.12865575E-01
 -7.49625930E-01 -7.11231869E-01 -6.76704065E-01 -6.71310055E-01 -6.52872905E-01
 -6.39785930E-01 -6.19101216E-01 -6.13756381E-01 -6.05954226E-01 -5.67499262E-01
 -5.45594172E-01 -5.29320066E-01 -5.20920193E-01 -4.97472566E-01 -4.91265124E-01
 -4.66356144E-01 -4.61012457E-01 -4.31118755E-01 -3.64371243E-01 -3.58925056E-01
  9.36953295E-02  1.15716322E-01  2.07516499E-01  2.22518865E-01  2.54369935E-01
  2.64585138E-01  2.71782957E-01  2.80951400E-01  2.82730489E-01  2.93481727E-01
  3.15803115E-01  3.19659970E-01  3.34115400E-01  3.40989809E-01  3.48436739E-01
  3.60140449E-01  3.80306415E-01  4.35179131E-01  4.51253209E-01  4.70222409E-01
  4.76652798E-01  5.26773240E-01  5.46034302E-01  6.02209981E-01  6.39730303E-01
  6.73462148E-01  7.03541345E-01  7.32359850E-01  7.43571480E-01  7.54289062E-01
  7.66797751E-01  7.85414571E-01  7.94053166E-01  8.07229640E-01  8.15560030E-01
  8.18073467E-01  8.37151823E-01  8.42897552E-01  8.56890189E-01  8.70083637E-01
  9.33338020E-01  9.48352481E-01  9.75298414E-01  1.01118126E+00  1.01300094E+00
  1.04638647E+00  1.05188955E+00  1.06359772E+00  1.08478665E+00  1.08869616E+00
  1.09217290E+00  1.11609838E+00  1.13350447E+00  1.13888859E+00  1.15636615E+00
  1.17146550E+00  1.18171006E+00  1.18387724E+00  1.19777910E+00  1.21807447E+00
  1.22762309E+00  1.25236263E+00  1.27069217E+00  1.28404667E+00  1.32690059E+00
  1.35800419E+00  1.39541362E+00  1.40666334E+00  1.42027460E+00  1.44021321E+00
  1.45610864E+00  1.48442087E+00  1.50617168E+00  1.50746615E+00  1.53154464E+00
  1.57218484E+00  1.60982764E+00  1.66570321E+00  1.68994008E+00  1.69851890E+00
  1.73217723E+00  1.74017587E+00  1.76173245E+00  1.77201237E+00  1.81857624E+00