
    -----------------------------------------------------------------------
          Psi4: An Open-Source Ab Initio Electronic Structure Package
                               Psi4 1.3.2 release

                         Git: Rev {HEAD} ecbda83 


    R. M. Parrish, L. A. Burns, D. G. A. Smith, A. C. Simmonett,
    A. E. DePrince III, E. G. Hohenstein, U. Bozkaya, A. Yu. Sokolov,
    R. Di Remigio, R. M. Richard, J. F. Gonthier, A. M. James,
    H. R. McAlexander, A. Kumar, M. Saitow, X. Wang, B. P. Pritchard,
    P. Verma, H. F. Schaefer III, K. Patkowski, R. A. King, E. F. Valeev,
    F. A. Evangelista, J. M. Turney, T. D. Crawford, and C. D. Sherrill,
    J. Chem. Theory Comput. 13(7) pp 3185--3197 (2017).
    (doi: 10.1021/acs.jctc.7b00174)


                         Additional Contributions by
    P. Kraus, H. Kruse, M. H. Lechner, M. C. Schieber, R. A. Shaw,
    A. Alenaizan, R. Galvelis, Z. L. Glick, S. Lehtola, and J. P. Misiewicz

    -----------------------------------------------------------------------


    Psi4 started on: Monday, 02 November 2020 08:01PM

    Process ID: 27307
    Host:       node37.bme.utexas.edu
    PSIDATADIR: /home/xy3866/psi4conda/share/psi4
    Memory:     500.0 MiB
    Threads:    8
    
  ==> Input File <==

--------------------------------------------------------------------------
#psi4
#
memory 32 gb

molecule  {
0 1
  O        2.9378530    -0.0680150     0.1840270
  C       -1.9436970     0.3335570     0.3437070
  C       -2.8302210    -0.7631530    -0.2519080
  C       -0.5859380     0.3423530    -0.2788660
  C        0.5697440     0.1186190     0.3690800
  C        1.8486100     0.1294800    -0.3471130
  H       -1.8508390     0.1975730     1.4263050
  H       -2.4196650     1.3090330     0.1828770
  H       -2.9395310    -0.6342920    -1.3325490
  H       -3.8284810    -0.7404210     0.1934590
  H       -2.3959700    -1.7495570    -0.0705440
  H       -0.5478170     0.5276110    -1.3553930
  H        0.6000335    -0.0573289     1.3408910
  H        1.7772940     0.3293450    -1.4382350
units angstrom
no_reorient  #important for SAPT in psi4, default
symmetry c1  #important for SAPT in psi4, default
}

set PROPERTIES_ORIGIN ["COM"]
properties('MP2/aug-cc-pvtz', properties = ['dipole'])
--------------------------------------------------------------------------

  Memory set to  29.802 GiB by Python driver.
    SCF Algorithm Type (re)set to DF.

*** tstart() called on node37.bme.utexas.edu
*** at Mon Nov  2 20:01:43 2020

   => Loading Basis Set <=

    Name: AUG-CC-PVTZ
    Role: ORBITAL
    Keyword: BASIS
    atoms 1    entry O          line   327 file /home/xy3866/psi4conda/share/psi4/basis/aug-cc-pvtz.gbs 
    atoms 2-6  entry C          line   235 file /home/xy3866/psi4conda/share/psi4/basis/aug-cc-pvtz.gbs 
    atoms 7-14 entry H          line    36 file /home/xy3866/psi4conda/share/psi4/basis/aug-cc-pvtz.gbs 


         ---------------------------------------------------------
                                   SCF
               by Justin Turney, Rob Parrish, Andy Simmonett
                          and Daniel G. A. Smith
                              RHF Reference
                        8 Threads,  30517 MiB Core
         ---------------------------------------------------------

  ==> Geometry <==

    Molecular point group: c1
    Full point group: C1

    Geometry (in Angstrom), charge = 0, multiplicity = 1:

       Center              X                  Y                   Z               Mass       
    ------------   -----------------  -----------------  -----------------  -----------------
         O            2.937889890306    -0.068228423119     0.185206360172    15.994914619570
         C           -1.943660109694     0.333343576881     0.344886360172    12.000000000000
         C           -2.830184109694    -0.763366423119    -0.250728639828    12.000000000000
         C           -0.585901109694     0.342139576881    -0.277686639828    12.000000000000
         C            0.569780890306     0.118405576881     0.370259360172    12.000000000000
         C            1.848646890306     0.129266576881    -0.345933639828    12.000000000000
         H           -1.850802109694     0.197359576881     1.427484360172     1.007825032230
         H           -2.419628109694     1.308819576881     0.184056360172     1.007825032230
         H           -2.939494109694    -0.634505423119    -1.331369639828     1.007825032230
         H           -3.828444109694    -0.740634423119     0.194638360172     1.007825032230
         H           -2.395933109694    -1.749770423119    -0.069364639828     1.007825032230
         H           -0.547780109694     0.527397576881    -1.354213639828     1.007825032230
         H            0.600070390306    -0.057542323119     1.342070360172     1.007825032230
         H            1.777330890306     0.329131576881    -1.437055639828     1.007825032230

  Running in c1 symmetry.

  Rotational constants: A =      0.53772  B =      0.04368  C =      0.04319 [cm^-1]
  Rotational constants: A =  16120.58685  B =   1309.52849  C =   1294.92101 [MHz]
  Nuclear repulsion =  210.556382217810892

  Charge       = 0
  Multiplicity = 1
  Electrons    = 46
  Nalpha       = 23
  Nbeta        = 23

  ==> Algorithm <==

  SCF Algorithm Type is DF.
  DIIS enabled.
  MOM disabled.
  Fractional occupation disabled.
  Guess Type is SAD.
  Energy threshold   = 1.00e-10
  Density threshold  = 1.00e-10
  Integral threshold = 0.00e+00

  ==> Primary Basis <==

  Basis Set: AUG-CC-PVTZ
    Blend: AUG-CC-PVTZ
    Number of shells: 156
    Number of basis function: 460
    Number of Cartesian functions: 530
    Spherical Harmonics?: true
    Max angular momentum: 3

   => Loading Basis Set <=

    Name: (AUG-CC-PVTZ AUX)
    Role: JKFIT
    Keyword: DF_BASIS_SCF
    atoms 1    entry O          line   286 file /home/xy3866/psi4conda/share/psi4/basis/aug-cc-pvtz-jkfit.gbs 
    atoms 2-6  entry C          line   162 file /home/xy3866/psi4conda/share/psi4/basis/aug-cc-pvtz-jkfit.gbs 
    atoms 7-14 entry H          line    70 file /home/xy3866/psi4conda/share/psi4/basis/aug-cc-pvtz-jkfit.gbs 

  ==> Pre-Iterations <==

   -------------------------------------------------------
    Irrep   Nso     Nmo     Nalpha   Nbeta   Ndocc  Nsocc
   -------------------------------------------------------
     A        460     460       0       0       0       0
   -------------------------------------------------------
    Total     460     460      23      23      23       0
   -------------------------------------------------------

  ==> Integral Setup <==

  DFHelper Memory: AOs need 1.550 GiB; user supplied 22.352 GiB. Using in-core AOs.

  ==> MemDFJK: Density-Fitted J/K Matrices <==

    J tasked:                   Yes
    K tasked:                   Yes
    wK tasked:                   No
    OpenMP threads:               8
    Memory [MiB]:             22888
    Algorithm:                 Core
    Schwarz Cutoff:           1E-12
    Mask sparsity (%):       4.8941
    Fitting Condition:        1E-10

   => Auxiliary Basis Set <=

  Basis Set: (AUG-CC-PVTZ AUX)
    Blend: AUG-CC-PVTZ-JKFIT
    Number of shells: 292
    Number of basis function: 992
    Number of Cartesian functions: 1226
    Spherical Harmonics?: true
    Max angular momentum: 4

  Minimum eigenvalue in the overlap matrix is 3.9461611611E-06.
  Using Symmetric Orthogonalization.

  SCF Guess: Superposition of Atomic Densities via on-the-fly atomic UHF.

  ==> Iterations <==

                           Total Energy        Delta E     RMS |[F,P]|

   @DF-RHF iter SAD:  -267.89307608792819   -2.67893e+02   0.00000e+00 
   @DF-RHF iter   1:  -268.71730504523572   -8.24229e-01   1.34261e-03 DIIS
   @DF-RHF iter   2:  -268.88047247715258   -1.63167e-01   7.58791e-04 DIIS
   @DF-RHF iter   3:  -268.92576189855862   -4.52894e-02   1.74451e-04 DIIS
   @DF-RHF iter   4:  -268.92940124283672   -3.63934e-03   6.98647e-05 DIIS
   @DF-RHF iter   5:  -268.93007493061015   -6.73688e-04   1.13777e-05 DIIS
   @DF-RHF iter   6:  -268.93011701564876   -4.20850e-05   5.25828e-06 DIIS
   @DF-RHF iter   7:  -268.93012480923699   -7.79359e-06   2.33168e-06 DIIS
   @DF-RHF iter   8:  -268.93012685876545   -2.04953e-06   1.10569e-06 DIIS
   @DF-RHF iter   9:  -268.93012721646716   -3.57702e-07   2.85708e-07 DIIS
   @DF-RHF iter  10:  -268.93012724544337   -2.89762e-08   8.85716e-08 DIIS
   @DF-RHF iter  11:  -268.93012724774985   -2.30648e-09   2.37633e-08 DIIS
   @DF-RHF iter  12:  -268.93012724791538   -1.65528e-10   8.17709e-09 DIIS
   @DF-RHF iter  13:  -268.93012724794357   -2.81943e-11   3.88594e-09 DIIS
   @DF-RHF iter  14:  -268.93012724795057   -6.99174e-12   2.19710e-09 DIIS
   @DF-RHF iter  15:  -268.93012724795261   -2.04636e-12   9.74696e-10 DIIS
   @DF-RHF iter  16:  -268.93012724795426   -1.64846e-12   2.41595e-10 DIIS
   @DF-RHF iter  17:  -268.93012724795392    3.41061e-13   6.45329e-11 DIIS
  Energy and wave function converged.


  ==> Post-Iterations <==

    Orbital Energies [Eh]
    ---------------------

    Doubly Occupied:                                                      

       1A    -20.548695     2A    -11.330706     3A    -11.274057  
       4A    -11.250667     5A    -11.235854     6A    -11.233641  
       7A     -1.372917     8A     -1.118735     9A     -1.034519  
      10A     -0.906596    11A     -0.817215    12A     -0.796150  
      13A     -0.679394    14A     -0.652096    15A     -0.621608  
      16A     -0.607854    17A     -0.566763    18A     -0.547311  
      19A     -0.526534    20A     -0.517252    21A     -0.507250  
      22A     -0.423582    23A     -0.380756  

    Virtual:                                                              

      24A      0.023667    25A      0.030835    26A      0.036024  
      27A      0.039421    28A      0.051572    29A      0.057308  
      30A      0.058733    31A      0.069702    32A      0.080545  
      33A      0.090008    34A      0.093323    35A      0.105533  
      36A      0.111757    37A      0.116572    38A      0.120160  
      39A      0.123748    40A      0.128218    41A      0.133535  
      42A      0.137362    43A      0.146141    44A      0.147055  
      45A      0.158479    46A      0.162314    47A      0.166891  
      48A      0.170891    49A      0.189075    50A      0.206033  
      51A      0.211341    52A      0.227276    53A      0.229234  
      54A      0.234888    55A      0.238038    56A      0.249968  
      57A      0.257330    58A      0.265970    59A      0.276413  
      60A      0.278103    61A      0.285785    62A      0.293453  
      63A      0.300177    64A      0.308675    65A      0.310126  
      66A      0.322244    67A      0.335668    68A      0.336614  
      69A      0.341322    70A      0.348602    71A      0.351333  
      72A      0.359785    73A      0.365690    74A      0.369019  
      75A      0.374161    76A      0.380585    77A      0.386150  
      78A      0.391432    79A      0.400712    80A      0.402324  
      81A      0.416259    82A      0.422752    83A      0.425093  
      84A      0.434950    85A      0.440256    86A      0.441586  
      87A      0.446912    88A      0.458814    89A      0.460868  
      90A      0.463935    91A      0.471354    92A      0.478014  
      93A      0.486258    94A      0.494610    95A      0.497561  
      96A      0.500333    97A      0.510116    98A      0.512484  
      99A      0.523852   100A      0.534771   101A      0.540640  
     102A      0.549611   103A      0.560287   104A      0.563025  
     105A      0.571208   106A      0.583316   107A      0.586334  
     108A      0.590615   109A      0.604972   110A      0.612217  
     111A      0.630420   112A      0.640505   113A      0.651548  
     114A      0.667467   115A      0.669971   116A      0.679133  
     117A      0.693592   118A      0.703644   119A      0.728267  
     120A      0.744054   121A      0.748214   122A      0.766321  
     123A      0.775711   124A      0.787613   125A      0.808107  
     126A      0.814076   127A      0.818974   128A      0.830154  
     129A      0.839071   130A      0.843067   131A      0.850652  
     132A      0.857744   133A      0.861669   134A      0.878853  
     135A      0.884287   136A      0.885695   137A      0.888249  
     138A      0.901397   139A      0.905888   140A      0.913227  
     141A      0.921469   142A      0.921806   143A      0.933546  
     144A      0.943465   145A      0.951050   146A      0.959692  
     147A      0.964497   148A      0.970176   149A      0.977636  
     150A      0.983704   151A      0.993990   152A      0.996943  
     153A      1.011557   154A      1.014583   155A      1.024618  
     156A      1.028261   157A      1.039565   158A      1.044353  
     159A      1.047793   160A      1.058451   161A      1.070500  
     162A      1.071247   163A      1.083228   164A      1.103464  
     165A      1.104857   166A      1.109155   167A      1.122723  
     168A      1.137705   169A      1.141514   170A      1.153809  
     171A      1.163199   172A      1.175427   173A      1.178733  
     174A      1.189897   175A      1.198930   176A      1.207668  
     177A      1.222851   178A      1.228556   179A      1.243721  
     180A      1.245725   181A      1.257113   182A      1.263895  
     183A      1.268101   184A      1.273140   185A      1.276545  
     186A      1.286777   187A      1.295478   188A      1.329177  
     189A      1.339697   190A      1.370227   191A      1.378025  
     192A      1.390137   193A      1.397699   194A      1.404045  
     195A      1.423632   196A      1.439955   197A      1.444404  
     198A      1.456890   199A      1.462483   200A      1.479960  
     201A      1.490954   202A      1.499222   203A      1.519721  
     204A      1.525274   205A      1.535442   206A      1.560938  
     207A      1.574229   208A      1.598050   209A      1.606391  
     210A      1.616857   211A      1.631294   212A      1.640354  
     213A      1.655281   214A      1.661014   215A      1.669096  
     216A      1.688346   217A      1.700354   218A      1.712760  
     219A      1.725235   220A      1.734990   221A      1.742326  
     222A      1.752286   223A      1.756828   224A      1.769961  
     225A      1.781310   226A      1.792070   227A      1.807124  
     228A      1.816822   229A      1.819640   230A      1.825160  
     231A      1.842706   232A      1.849862   233A      1.870284  
     234A      1.886330   235A      1.902328   236A      1.915021  
     237A      1.927173   238A      1.929414   239A      1.947503  
     240A      1.960507   241A      1.968889   242A      1.999966  
     243A      2.008681   244A      2.010437   245A      2.042445  
     246A      2.047846   247A      2.059457   248A      2.069772  
     249A      2.074285   250A      2.108482   251A      2.125571  
     252A      2.142575   253A      2.151906   254A      2.167331  
     255A      2.196919   256A      2.204980   257A      2.233987  
     258A      2.238102   259A      2.248626   260A      2.258737  
     261A      2.271111   262A      2.286576   263A      2.324126  
     264A      2.329866   265A      2.340392   266A      2.347430  
     267A      2.388771   268A      2.411468   269A      2.422940  
     270A      2.424849   271A      2.446247   272A      2.451883  
     273A      2.473661   274A      2.508950   275A      2.533530  
     276A      2.561736   277A      2.588182   278A      2.629330  
     279A      2.653461   280A      2.681078   281A      2.700828  
     282A      2.744907   283A      2.773130   284A      2.816663  
     285A      2.843468   286A      2.894513   287A      2.920452  
     288A      2.940916   289A      3.032503   290A      3.054707  
     291A      3.114171   292A      3.142909   293A      3.167055  
     294A      3.207854   295A      3.231812   296A      3.257733  
     297A      3.286501   298A      3.315090   299A      3.330730  
     300A      3.373016   301A      3.381893   302A      3.394189  
     303A      3.405894   304A      3.441430   305A      3.473900  
     306A      3.478246   307A      3.487349   308A      3.505646  
     309A      3.516637   310A      3.525657   311A      3.550085  
     312A      3.564315   313A      3.567973   314A      3.589687  
     315A      3.604580   316A      3.627118   317A      3.637377  
     318A      3.641732   319A      3.658605   320A      3.678997  
     321A      3.706345   322A      3.729402   323A      3.737711  
     324A      3.745303   325A      3.762783   326A      3.771062  
     327A      3.794126   328A      3.800628   329A      3.822247  
     330A      3.833102   331A      3.856217   332A      3.869357  
     333A      3.903484   334A      3.935935   335A      3.942123  
     336A      3.943942   337A      3.956422   338A      3.965223  
     339A      3.972063   340A      3.991449   341A      4.003774  
     342A      4.021315   343A      4.030043   344A      4.040020  
     345A      4.060268   346A      4.079327   347A      4.100278  
     348A      4.136427   349A      4.160829   350A      4.176609  
     351A      4.182167   352A      4.193794   353A      4.202777  
     354A      4.224803   355A      4.256365   356A      4.284235  
     357A      4.293294   358A      4.306315   359A      4.325711  
     360A      4.351785   361A      4.382971   362A      4.415041  
     363A      4.419953   364A      4.448205   365A      4.473459  
     366A      4.483112   367A      4.495285   368A      4.541299  
     369A      4.553396   370A      4.577221   371A      4.580417  
     372A      4.588829   373A      4.648839   374A      4.689770  
     375A      4.704098   376A      4.730367   377A      4.750783  
     378A      4.761378   379A      4.790828   380A      4.818370  
     381A      4.833078   382A      4.846578   383A      4.857152  
     384A      4.889190   385A      4.919061   386A      4.928882  
     387A      4.943939   388A      4.951924   389A      4.960387  
     390A      4.994632   391A      5.017676   392A      5.019714  
     393A      5.047983   394A      5.057042   395A      5.115609  
     396A      5.130399   397A      5.145560   398A      5.164861  
     399A      5.168790   400A      5.201482   401A      5.207244  
     402A      5.221900   403A      5.263045   404A      5.281973  
     405A      5.306955   406A      5.347424   407A      5.355845  
     408A      5.375708   409A      5.381270   410A      5.411529  
     411A      5.433381   412A      5.470048   413A      5.498842  
     414A      5.535995   415A      5.578111   416A      5.628202  
     417A      5.642968   418A      5.681111   419A      5.693018  
     420A      5.709842   421A      5.778083   422A      5.818710  
     423A      5.849960   424A      5.927589   425A      5.973203  
     426A      6.040546   427A      6.088797   428A      6.137884  
     429A      6.167106   430A      6.205504   431A      6.220002  
     432A      6.328316   433A      6.372249   434A      6.458946  
     435A      6.490475   436A      6.502120   437A      6.620081  
     438A      6.650400   439A      6.693656   440A      6.732568  
     441A      6.737879   442A      6.783376   443A      6.861701  
     444A      6.907952   445A      6.957397   446A      7.047075  
     447A      7.146097   448A      7.323918   449A      7.342837  
     450A      7.614217   451A      7.668332   452A      7.748143  
     453A      7.834802   454A      7.892146   455A     15.517545  
     456A     17.076312   457A     17.530417   458A     17.888345  
     459A     18.654518   460A     20.457956  

    Final Occupation by Irrep:
              A 
    DOCC [    23 ]

  @DF-RHF Final Energy:  -268.93012724795392

   => Energetics <=

    Nuclear Repulsion Energy =            210.5563822178108921
    One-Electron Energy =                -781.0727147778889048
    Two-Electron Energy =                 301.5862053121240933
    Total Energy =                       -268.9301272479539193

Computation Completed

*** tstop() called on node37.bme.utexas.edu at Mon Nov  2 20:02:11 2020
Module time:
	user time   =     130.31 seconds =       2.17 minutes
	system time =      10.82 seconds =       0.18 minutes
	total time  =         28 seconds =       0.47 minutes
Total time:
	user time   =     130.31 seconds =       2.17 minutes
	system time =      10.82 seconds =       0.18 minutes
	total time  =         28 seconds =       0.47 minutes
   => Loading Basis Set <=

    Name: (AUG-CC-PVTZ AUX)
    Role: RIFIT
    Keyword: DF_BASIS_MP2
    atoms 1    entry O          line   264 file /home/xy3866/psi4conda/share/psi4/basis/aug-cc-pvtz-ri.gbs 
    atoms 2-6  entry C          line   148 file /home/xy3866/psi4conda/share/psi4/basis/aug-cc-pvtz-ri.gbs 
    atoms 7-14 entry H          line    30 file /home/xy3866/psi4conda/share/psi4/basis/aug-cc-pvtz-ri.gbs 


*** tstart() called on node37.bme.utexas.edu
*** at Mon Nov  2 20:02:12 2020


  //>>>>>>>>>>>>>>>>>>>>>>>>>>>>>>>>>>>//
  //               DFMP2               //
  //<<<<<<<<<<<<<<<<<<<<<<<<<<<<<<<<<<<//

	 --------------------------------------------------------
	                          DF-MP2                         
	      2nd-Order Density-Fitted Moller-Plesset Theory     
	              RMP2 Wavefunction,   8 Threads             
	                                                         
	        Rob Parrish, Justin Turney, Andy Simmonett,      
	           Ed Hohenstein, and C. David Sherrill          
	 --------------------------------------------------------

   => Auxiliary Basis Set <=

  Basis Set: (AUG-CC-PVTZ AUX)
    Blend: AUG-CC-PVTZ-RI
    Number of shells: 280
    Number of basis function: 1004
    Number of Cartesian functions: 1256
    Spherical Harmonics?: true
    Max angular momentum: 4

	 --------------------------------------------------------
	                 NBF =   460, NAUX =  1004
	 --------------------------------------------------------
	   CLASS    FOCC     OCC    AOCC    AVIR     VIR    FVIR
	   PAIRS       0      23      23     437     437       0
	 --------------------------------------------------------

  DFHelper Memory: AOs need 1.550 GiB; user supplied 22.352 GiB. Using in-core AOs.


         ------------------------------------------------------------
                                     CPHF                           
                                  Rob Parrish                       
         ------------------------------------------------------------

  ==> Geometry <==

    Molecular point group: c1
    Full point group: C1

    Geometry (in Angstrom), charge = 0, multiplicity = 1:

       Center              X                  Y                   Z               Mass       
    ------------   -----------------  -----------------  -----------------  -----------------
         O            2.937889890306    -0.068228423119     0.185206360172    15.994914619570
         C           -1.943660109694     0.333343576881     0.344886360172    12.000000000000
         C           -2.830184109694    -0.763366423119    -0.250728639828    12.000000000000
         C           -0.585901109694     0.342139576881    -0.277686639828    12.000000000000
         C            0.569780890306     0.118405576881     0.370259360172    12.000000000000
         C            1.848646890306     0.129266576881    -0.345933639828    12.000000000000
         H           -1.850802109694     0.197359576881     1.427484360172     1.007825032230
         H           -2.419628109694     1.308819576881     0.184056360172     1.007825032230
         H           -2.939494109694    -0.634505423119    -1.331369639828     1.007825032230
         H           -3.828444109694    -0.740634423119     0.194638360172     1.007825032230
         H           -2.395933109694    -1.749770423119    -0.069364639828     1.007825032230
         H           -0.547780109694     0.527397576881    -1.354213639828     1.007825032230
         H            0.600070390306    -0.057542323119     1.342070360172     1.007825032230
         H            1.777330890306     0.329131576881    -1.437055639828     1.007825032230

  Nuclear repulsion =  210.556382217810892
  Reference energy  = -268.930127247953919

  ==> Basis Set <==

  Basis Set: AUG-CC-PVTZ
    Blend: AUG-CC-PVTZ
    Number of shells: 156
    Number of basis function: 460
    Number of Cartesian functions: 530
    Spherical Harmonics?: true
    Max angular momentum: 3

  ==> CGRSolver (by Rob Parrish) <==

   Number of roots    =         1
   Preconditioning    =    JACOBI
   Convergence cutoff =     1E-06
   Maximum iterations =       100

  ==> CPHFRHamiltonian (by Rob Parrish) <== 

  ==> MemDFJK: Density-Fitted J/K Matrices <==

    J tasked:                   Yes
    K tasked:                   Yes
    wK tasked:                   No
    OpenMP threads:               8
    Memory [MiB]:             22888
    Algorithm:                 Core
    Schwarz Cutoff:           1E-12
    Mask sparsity (%):       4.8941
    Fitting Condition:        1E-10

   => Auxiliary Basis Set <=

  Basis Set: (AUG-CC-PVTZ AUX)
    Blend: AUG-CC-PVTZ-JKFIT
    Number of shells: 292
    Number of basis function: 992
    Number of Cartesian functions: 1226
    Spherical Harmonics?: true
    Max angular momentum: 4

  ==> CPHF Iterations <==

  => Iterations <=

             Iter  Converged  Remaining    Residual
  CGR           1          0          1   1.121E-01
  CGR           2          0          1   3.507E-02
  CGR           3          0          1   1.193E-02
  CGR           4          0          1   4.613E-03
  CGR           5          0          1   2.104E-03
  CGR           6          0          1   7.432E-04
  CGR           7          0          1   2.117E-04
  CGR           8          0          1   6.418E-05
  CGR           9          0          1   1.507E-05
  CGR          10          0          1   5.046E-06
  CGR          11          0          1   2.389E-06
  CGR          12          0          1   1.244E-06
  CGR          13          1          0   3.999E-07

    CGRSolver converged.

	-----------------------------------------------------------
	 ==================> DF-MP2 Energies <==================== 
	-----------------------------------------------------------
	 Reference Energy          =    -268.9301272479539193 [Eh]
	 Singles Energy            =      -0.0000000000000000 [Eh]
	 Same-Spin Energy          =      -0.2692333544360467 [Eh]
	 Opposite-Spin Energy      =      -0.9134581772450037 [Eh]
	 Correlation Energy        =      -1.1826915316810505 [Eh]
	 Total Energy              =    -270.1128187796349494 [Eh]
	-----------------------------------------------------------
	 ================> DF-SCS-MP2 Energies <================== 
	-----------------------------------------------------------
	 SCS Same-Spin Scale       =       0.3333333333333333 [-]
	 SCS Opposite-Spin Scale   =       1.2000000000000000 [-]
	 SCS Same-Spin Energy      =      -0.0897444514786822 [Eh]
	 SCS Opposite-Spin Energy  =      -1.0961498126940044 [Eh]
	 SCS Correlation Energy    =      -1.1858942641726866 [Eh]
	 SCS Total Energy          =    -270.1160215121266219 [Eh]
	-----------------------------------------------------------



Properties will be evaluated at  -0.000000,  -0.000000,   0.000000 [a0]

Properties computed using the MP2 density matrix

  Nuclear Dipole Moment: [e a0]
     X:   -10.8649      Y:    -0.7688      Z:    -0.9776

  Electronic Dipole Moment: [e a0]
     X:     9.3047      Y:     0.9284      Z:     0.6796

  Dipole Moment: [e a0]
     X:    -1.5602      Y:     0.1596      Z:    -0.2980     Total:     1.5964

  Dipole Moment: [D]
     X:    -3.9657      Y:     0.4056      Z:    -0.7575     Total:     4.0577


*** tstop() called on node37.bme.utexas.edu at Mon Nov  2 20:03:33 2020
Module time:
	user time   =     394.70 seconds =       6.58 minutes
	system time =      24.45 seconds =       0.41 minutes
	total time  =         81 seconds =       1.35 minutes
Total time:
	user time   =     525.15 seconds =       8.75 minutes
	system time =      35.28 seconds =       0.59 minutes
	total time  =        110 seconds =       1.83 minutes

    Psi4 stopped on: Monday, 02 November 2020 08:03PM
    Psi4 wall time for execution: 0:01:50.29

*** Psi4 exiting successfully. Buy a developer a beer!
