
    -----------------------------------------------------------------------
          Psi4: An Open-Source Ab Initio Electronic Structure Package
                               Psi4 1.4a3.dev225 

                         Git: Rev {master} 7105e37 


    D. G. A. Smith, L. A. Burns, A. C. Simmonett, R. M. Parrish,
    M. C. Schieber, R. Galvelis, P. Kraus, H. Kruse, R. Di Remigio,
    A. Alenaizan, A. M. James, S. Lehtola, J. P. Misiewicz, M. Scheurer,
    R. A. Shaw, J. B. Schriber, Y. Xie, Z. L. Glick, D. A. Sirianni,
    J. S. O'Brien, J. M. Waldrop, A. Kumar, E. G. Hohenstein,
    B. P. Pritchard, B. R. Brooks, H. F. Schaefer III, A. Yu. Sokolov,
    K. Patkowski, A. E. DePrince III, U. Bozkaya, R. A. King,
    F. A. Evangelista, J. M. Turney, T. D. Crawford, C. D. Sherrill,
    J. Chem. Phys. 152(18) 184108 (2020). https://doi.org/10.1063/5.0006002

                            Additional Code Authors
    E. T. Seidl, C. L. Janssen, E. F. Valeev, M. L. Leininger,
    J. F. Gonthier, R. M. Richard, H. R. McAlexander, M. Saitow, X. Wang,
    P. Verma, and M. H. Lechner

             Previous Authors, Complete List of Code Contributors,
                       and Citations for Specific Modules
    https://github.com/psi4/psi4/blob/master/codemeta.json
    https://github.com/psi4/psi4/graphs/contributors
    http://psicode.org/psi4manual/master/introduction.html#citing-psifour

    -----------------------------------------------------------------------


    Psi4 started on: Saturday, 20 March 2021 09:06AM

    Process ID: 163659
    Host:       c445-062.stampede2.tacc.utexas.edu
    PSIDATADIR: /home1/07844/xy3866/miniconda3/envs/p4env/share/psi4
    Memory:     500.0 MiB
    Threads:    32
    
  ==> Input File <==

--------------------------------------------------------------------------
#psi4
#
memory 32 gb

molecule  {
0 1
  O        3.0568210     0.0670890     0.3064100
  C       -1.7873110     0.5014740    -0.3308760
  C       -2.7589810    -0.3710180     0.4711220
  C       -0.4385240    -0.1343210    -0.4437030
  C        0.7079740     0.3780980     0.0389610
  C        2.0201625    -0.3693572    -0.1144131
  H       -1.6911510     1.4872370     0.1370160
  H       -2.1942130     0.6629350    -1.3374030
  H       -2.8765390    -1.3546870     0.0071490
  H       -3.7457810     0.0968040     0.5260030
  H       -2.3920550    -0.5186010     1.4901810
  H       -0.4015900    -1.1050250    -0.9450900
  H        0.7410060     1.3377710     0.5508970
  H        1.9051690    -1.3201300    -0.6368870
units angstrom
no_reorient  #important for SAPT in psi4, default
symmetry c1  #important for SAPT in psi4, default
}

set PROPERTIES_ORIGIN ["COM"]
properties('MP2/aug-cc-pvtz', properties = ['dipole'])
--------------------------------------------------------------------------

  Memory set to  29.802 GiB by Python driver.
    SCF Algorithm Type (re)set to DF.

*** tstart() called on c445-062.stampede2.tacc.utexas.edu
*** at Sat Mar 20 09:06:08 2021

   => Loading Basis Set <=

    Name: AUG-CC-PVTZ
    Role: ORBITAL
    Keyword: BASIS
    atoms 1    entry O          line   331 file /home1/07844/xy3866/miniconda3/envs/p4env/share/psi4/basis/aug-cc-pvtz.gbs 
    atoms 2-6  entry C          line   239 file /home1/07844/xy3866/miniconda3/envs/p4env/share/psi4/basis/aug-cc-pvtz.gbs 
    atoms 7-14 entry H          line    40 file /home1/07844/xy3866/miniconda3/envs/p4env/share/psi4/basis/aug-cc-pvtz.gbs 


         ---------------------------------------------------------
                                   SCF
               by Justin Turney, Rob Parrish, Andy Simmonett
                          and Daniel G. A. Smith
                              RHF Reference
                       32 Threads,  30517 MiB Core
         ---------------------------------------------------------

  ==> Geometry <==

    Molecular point group: c1
    Full point group: C1

    Geometry (in Angstrom), charge = 0, multiplicity = 1:

       Center              X                  Y                   Z               Mass       
    ------------   -----------------  -----------------  -----------------  -----------------
         O            2.925067093226     0.062183885528     0.304692962165    15.994914619570
         C           -1.919064906774     0.496568885528    -0.332593037835    12.000000000000
         C           -2.890734906774    -0.375923114472     0.469404962165    12.000000000000
         C           -0.570277906774    -0.139226114472    -0.445420037835    12.000000000000
         C            0.576220093226     0.373192885528     0.037243962165    12.000000000000
         C            1.888408593226    -0.374262314472    -0.116130137835    12.000000000000
         H           -1.822904906774     1.482331885528     0.135298962165     1.007825032230
         H           -2.325966906774     0.658029885528    -1.339120037835     1.007825032230
         H           -3.008292906774    -1.359592114472     0.005431962165     1.007825032230
         H           -3.877534906774     0.091898885528     0.524285962165     1.007825032230
         H           -2.523808906774    -0.523506114472     1.488463962165     1.007825032230
         H           -0.533343906774    -1.109930114472    -0.946807037835     1.007825032230
         H            0.609252093226     1.332865885528     0.549179962165     1.007825032230
         H            1.773415093226    -1.325035114472    -0.638604037835     1.007825032230

  Running in c1 symmetry.

  Rotational constants: A =      0.52937  B =      0.04334  C =      0.04283 [cm^-1]
  Rotational constants: A =  15870.18260  B =   1299.19676  C =   1284.12370 [MHz]
  Nuclear repulsion =  209.672674395890368

  Charge       = 0
  Multiplicity = 1
  Electrons    = 46
  Nalpha       = 23
  Nbeta        = 23

  ==> Algorithm <==

  SCF Algorithm Type is DF.
  DIIS enabled.
  MOM disabled.
  Fractional occupation disabled.
  Guess Type is SAD.
  Energy threshold   = 1.00e-10
  Density threshold  = 1.00e-10
  Integral threshold = 1.00e-12

  ==> Primary Basis <==

  Basis Set: AUG-CC-PVTZ
    Blend: AUG-CC-PVTZ
    Number of shells: 156
    Number of basis functions: 460
    Number of Cartesian functions: 530
    Spherical Harmonics?: true
    Max angular momentum: 3

   => Loading Basis Set <=

    Name: (AUG-CC-PVTZ AUX)
    Role: JKFIT
    Keyword: DF_BASIS_SCF
    atoms 1    entry O          line   286 file /home1/07844/xy3866/miniconda3/envs/p4env/share/psi4/basis/aug-cc-pvtz-jkfit.gbs 
    atoms 2-6  entry C          line   162 file /home1/07844/xy3866/miniconda3/envs/p4env/share/psi4/basis/aug-cc-pvtz-jkfit.gbs 
    atoms 7-14 entry H          line    70 file /home1/07844/xy3866/miniconda3/envs/p4env/share/psi4/basis/aug-cc-pvtz-jkfit.gbs 

  ==> Integral Setup <==

  DFHelper Memory: AOs need 1.544 GiB; user supplied 22.352 GiB. Using in-core AOs.

  ==> MemDFJK: Density-Fitted J/K Matrices <==

    J tasked:                   Yes
    K tasked:                   Yes
    wK tasked:                   No
    OpenMP threads:              32
    Memory [MiB]:             22888
    Algorithm:                 Core
    Schwarz Cutoff:           1E-12
    Mask sparsity (%):       7.6938
    Fitting Condition:        1E-10

   => Auxiliary Basis Set <=

  Basis Set: (AUG-CC-PVTZ AUX)
    Blend: AUG-CC-PVTZ-JKFIT
    Number of shells: 292
    Number of basis functions: 992
    Number of Cartesian functions: 1226
    Spherical Harmonics?: true
    Max angular momentum: 4

  Minimum eigenvalue in the overlap matrix is 3.9587062062E-06.
  Reciprocal condition number of the overlap matrix is 2.3034292122E-07.
    Using symmetric orthogonalization.

  ==> Pre-Iterations <==

  SCF Guess: Superposition of Atomic Densities via on-the-fly atomic UHF (no occupation information).

   -------------------------
    Irrep   Nso     Nmo    
   -------------------------
     A        460     460 
   -------------------------
    Total     460     460
   -------------------------

  ==> Iterations <==

                           Total Energy        Delta E     RMS |[F,P]|

   @DF-RHF iter SAD:  -267.84021929683348   -2.67840e+02   0.00000e+00 
   @DF-RHF iter   1:  -268.72567369363935   -8.85454e-01   1.33448e-03 DIIS
   @DF-RHF iter   2:  -268.88743391345611   -1.61760e-01   7.49296e-04 DIIS
   @DF-RHF iter   3:  -268.93241871563720   -4.49848e-02   1.63897e-04 DIIS
   @DF-RHF iter   4:  -268.93578885361501   -3.37014e-03   6.71341e-05 DIIS
   @DF-RHF iter   5:  -268.93639347113685   -6.04618e-04   1.10163e-05 DIIS
   @DF-RHF iter   6:  -268.93642992918080   -3.64580e-05   5.12014e-06 DIIS
   @DF-RHF iter   7:  -268.93643645166242   -6.52248e-06   2.14876e-06 DIIS
   @DF-RHF iter   8:  -268.93643808806678   -1.63640e-06   1.03179e-06 DIIS
   @DF-RHF iter   9:  -268.93643837707111   -2.89004e-07   2.53383e-07 DIIS
   @DF-RHF iter  10:  -268.93643840241509   -2.53440e-08   7.94807e-08 DIIS
   @DF-RHF iter  11:  -268.93643840433623   -1.92114e-09   2.07418e-08 DIIS
   @DF-RHF iter  12:  -268.93643840448902   -1.52795e-10   7.45918e-09 DIIS
   @DF-RHF iter  13:  -268.93643840451494   -2.59206e-11   3.49781e-09 DIIS
   @DF-RHF iter  14:  -268.93643840452199   -7.04858e-12   1.89537e-09 DIIS
   @DF-RHF iter  15:  -268.93643840452359   -1.59162e-12   8.51904e-10 DIIS
   @DF-RHF iter  16:  -268.93643840452467   -1.08002e-12   2.07156e-10 DIIS
   @DF-RHF iter  17:  -268.93643840452455    1.13687e-13   5.98919e-11 DIIS
  Energy and wave function converged.


  ==> Post-Iterations <==

    Orbital Energies [Eh]
    ---------------------

    Doubly Occupied:                                                      

       1A    -20.553853     2A    -11.332507     3A    -11.268382  
       4A    -11.247620     5A    -11.244908     6A    -11.233216  
       7A     -1.394235     8A     -1.109696     9A     -1.023829  
      10A     -0.899083    11A     -0.817039    12A     -0.780732  
      13A     -0.678467    14A     -0.651652    15A     -0.614590  
      16A     -0.612404    17A     -0.556269    18A     -0.547010  
      19A     -0.534108    20A     -0.515425    21A     -0.503892  
      22A     -0.421422    23A     -0.378622  

    Virtual:                                                              

      24A      0.024669    25A      0.031235    26A      0.036848  
      27A      0.039626    28A      0.051727    29A      0.057962  
      30A      0.058931    31A      0.070083    32A      0.084169  
      33A      0.091168    34A      0.095016    35A      0.105306  
      36A      0.111347    37A      0.117385    38A      0.121875  
      39A      0.124192    40A      0.128475    41A      0.133663  
      42A      0.138426    43A      0.146369    44A      0.147758  
      45A      0.158607    46A      0.162026    47A      0.166734  
      48A      0.171249    49A      0.189230    50A      0.205841  
      51A      0.210847    52A      0.226927    53A      0.229301  
      54A      0.234083    55A      0.238087    56A      0.248426  
      57A      0.256694    58A      0.265917    59A      0.275924  
      60A      0.277458    61A      0.287265    62A      0.293282  
      63A      0.299278    64A      0.305588    65A      0.309846  
      66A      0.322160    67A      0.334409    68A      0.335694  
      69A      0.341265    70A      0.348673    71A      0.352591  
      72A      0.359143    73A      0.366793    74A      0.370338  
      75A      0.374306    76A      0.381243    77A      0.386608  
      78A      0.390466    79A      0.402112    80A      0.402631  
      81A      0.413295    82A      0.421717    83A      0.425604  
      84A      0.432728    85A      0.439861    86A      0.442899  
      87A      0.446937    88A      0.457483    89A      0.460829  
      90A      0.465452    91A      0.474085    92A      0.476258  
      93A      0.483625    94A      0.495352    95A      0.497377  
      96A      0.498965    97A      0.509075    98A      0.512252  
      99A      0.522016   100A      0.534122   101A      0.538255  
     102A      0.549732   103A      0.558699   104A      0.561511  
     105A      0.570400   106A      0.583605   107A      0.585389  
     108A      0.590735   109A      0.603666   110A      0.608888  
     111A      0.628821   112A      0.639103   113A      0.654295  
     114A      0.666770   115A      0.668982   116A      0.681385  
     117A      0.689246   118A      0.699176   119A      0.727080  
     120A      0.742664   121A      0.746958   122A      0.766246  
     123A      0.778376   124A      0.787940   125A      0.808024  
     126A      0.815646   127A      0.821094   128A      0.830588  
     129A      0.836075   130A      0.842839   131A      0.849453  
     132A      0.858458   133A      0.862076   134A      0.879842  
     135A      0.882660   136A      0.888786   137A      0.892950  
     138A      0.896357   139A      0.901572   140A      0.910772  
     141A      0.919217   142A      0.923653   143A      0.934079  
     144A      0.943292   145A      0.952962   146A      0.956641  
     147A      0.965587   148A      0.967955   149A      0.977183  
     150A      0.984401   151A      0.995670   152A      0.999872  
     153A      1.009978   154A      1.015356   155A      1.020170  
     156A      1.027677   157A      1.036267   158A      1.043425  
     159A      1.045039   160A      1.057622   161A      1.066151  
     162A      1.072173   163A      1.081716   164A      1.099825  
     165A      1.104579   166A      1.107795   167A      1.124185  
     168A      1.137599   169A      1.143961   170A      1.150142  
     171A      1.164532   172A      1.172818   173A      1.174353  
     174A      1.187871   175A      1.199756   176A      1.205955  
     177A      1.218273   178A      1.224054   179A      1.237405  
     180A      1.242460   181A      1.248178   182A      1.262017  
     183A      1.265043   184A      1.271164   185A      1.275173  
     186A      1.281652   187A      1.291838   188A      1.328190  
     189A      1.338214   190A      1.358376   191A      1.372581  
     192A      1.390205   193A      1.392938   194A      1.400591  
     195A      1.420952   196A      1.440718   197A      1.442029  
     198A      1.448568   199A      1.459778   200A      1.480910  
     201A      1.486720   202A      1.498846   203A      1.513862  
     204A      1.520878   205A      1.538180   206A      1.557977  
     207A      1.573896   208A      1.579643   209A      1.604088  
     210A      1.607757   211A      1.624124   212A      1.638409  
     213A      1.657849   214A      1.660383   215A      1.668634  
     216A      1.684008   217A      1.698423   218A      1.710088  
     219A      1.723081   220A      1.730716   221A      1.737626  
     222A      1.746362   223A      1.748029   224A      1.766189  
     225A      1.775766   226A      1.783489   227A      1.797171  
     228A      1.817548   229A      1.820035   230A      1.825721  
     231A      1.841599   232A      1.850427   233A      1.852922  
     234A      1.886975   235A      1.899613   236A      1.911290  
     237A      1.924473   238A      1.931400   239A      1.936717  
     240A      1.959280   241A      1.970735   242A      1.986434  
     243A      2.000922   244A      2.010236   245A      2.038629  
     246A      2.043630   247A      2.061048   248A      2.064629  
     249A      2.080200   250A      2.118891   251A      2.123458  
     252A      2.138100   253A      2.158405   254A      2.168360  
     255A      2.189542   256A      2.204773   257A      2.234259  
     258A      2.241634   259A      2.252920   260A      2.259253  
     261A      2.271988   262A      2.284712   263A      2.291852  
     264A      2.322571   265A      2.345873   266A      2.355852  
     267A      2.387792   268A      2.396861   269A      2.407900  
     270A      2.421194   271A      2.425764   272A      2.453146  
     273A      2.474414   274A      2.510726   275A      2.535390  
     276A      2.555974   277A      2.583214   278A      2.628035  
     279A      2.649378   280A      2.684586   281A      2.699856  
     282A      2.741921   283A      2.773505   284A      2.813114  
     285A      2.837091   286A      2.873971   287A      2.906983  
     288A      2.921370   289A      2.999553   290A      3.037996  
     291A      3.117764   292A      3.127968   293A      3.168670  
     294A      3.196766   295A      3.217055   296A      3.251062  
     297A      3.280671   298A      3.319075   299A      3.327737  
     300A      3.375519   301A      3.388054   302A      3.398281  
     303A      3.409263   304A      3.437991   305A      3.461473  
     306A      3.480529   307A      3.483288   308A      3.508063  
     309A      3.519323   310A      3.528742   311A      3.539499  
     312A      3.552913   313A      3.566745   314A      3.594013  
     315A      3.596978   316A      3.626055   317A      3.630126  
     318A      3.639977   319A      3.666027   320A      3.680240  
     321A      3.706958   322A      3.726871   323A      3.735322  
     324A      3.740367   325A      3.754873   326A      3.769634  
     327A      3.794666   328A      3.799520   329A      3.815437  
     330A      3.832002   331A      3.859455   332A      3.864103  
     333A      3.903281   334A      3.931799   335A      3.935007  
     336A      3.943305   337A      3.956121   338A      3.959283  
     339A      3.968523   340A      3.989692   341A      4.007369  
     342A      4.019843   343A      4.031480   344A      4.043294  
     345A      4.052747   346A      4.076855   347A      4.094728  
     348A      4.139684   349A      4.157535   350A      4.167664  
     351A      4.178299   352A      4.186802   353A      4.199087  
     354A      4.222556   355A      4.261057   356A      4.277102  
     357A      4.285021   358A      4.293787   359A      4.318038  
     360A      4.344892   361A      4.364402   362A      4.383076  
     363A      4.412689   364A      4.426541   365A      4.445416  
     366A      4.462380   367A      4.487971   368A      4.530478  
     369A      4.543665   370A      4.560834   371A      4.570342  
     372A      4.579082   373A      4.625866   374A      4.653782  
     375A      4.687203   376A      4.707027   377A      4.733293  
     378A      4.749083   379A      4.762344   380A      4.802547  
     381A      4.821855   382A      4.835452   383A      4.849899  
     384A      4.855636   385A      4.891478   386A      4.904691  
     387A      4.919310   388A      4.952221   389A      4.956378  
     390A      4.965205   391A      5.002078   392A      5.018665  
     393A      5.022130   394A      5.046691   395A      5.105610  
     396A      5.119713   397A      5.143479   398A      5.157906  
     399A      5.180273   400A      5.195157   401A      5.206373  
     402A      5.217320   403A      5.245056   404A      5.264790  
     405A      5.287921   406A      5.327657   407A      5.342597  
     408A      5.358486   409A      5.373951   410A      5.402880  
     411A      5.418211   412A      5.460154   413A      5.473482  
     414A      5.485187   415A      5.509283   416A      5.568542  
     417A      5.616238   418A      5.632819   419A      5.651516  
     420A      5.694146   421A      5.770775   422A      5.808464  
     423A      5.839531   424A      5.874316   425A      5.918861  
     426A      5.993064   427A      5.998323   428A      6.077577  
     429A      6.162354   430A      6.165326   431A      6.204226  
     432A      6.269785   433A      6.320506   434A      6.398997  
     435A      6.430702   436A      6.484456   437A      6.562908  
     438A      6.647198   439A      6.661972   440A      6.694806  
     441A      6.736533   442A      6.751905   443A      6.817710  
     444A      6.900473   445A      6.963365   446A      7.058821  
     447A      7.164923   448A      7.330268   449A      7.336231  
     450A      7.606299   451A      7.652470   452A      7.753644  
     453A      7.850136   454A      7.885031   455A     15.856422  
     456A     16.806540   457A     17.405980   458A     17.901635  
     459A     18.608182   460A     19.541226  

    Final Occupation by Irrep:
              A 
    DOCC [    23 ]

  @DF-RHF Final Energy:  -268.93643840452455

   => Energetics <=

    Nuclear Repulsion Energy =            209.6726743958903683
    One-Electron Energy =                -779.3803017644031570
    Two-Electron Energy =                 300.7711889639882656
    Total Energy =                       -268.9364384045245515

Computation Completed

*** tstop() called on c445-062.stampede2.tacc.utexas.edu at Sat Mar 20 09:06:25 2021
Module time:
	user time   =     256.99 seconds =       4.28 minutes
	system time =      19.90 seconds =       0.33 minutes
	total time  =         17 seconds =       0.28 minutes
Total time:
	user time   =     256.99 seconds =       4.28 minutes
	system time =      19.90 seconds =       0.33 minutes
	total time  =         17 seconds =       0.28 minutes
   => Loading Basis Set <=

    Name: (AUG-CC-PVTZ AUX)
    Role: RIFIT
    Keyword: DF_BASIS_MP2
    atoms 1    entry O          line   264 file /home1/07844/xy3866/miniconda3/envs/p4env/share/psi4/basis/aug-cc-pvtz-ri.gbs 
    atoms 2-6  entry C          line   148 file /home1/07844/xy3866/miniconda3/envs/p4env/share/psi4/basis/aug-cc-pvtz-ri.gbs 
    atoms 7-14 entry H          line    30 file /home1/07844/xy3866/miniconda3/envs/p4env/share/psi4/basis/aug-cc-pvtz-ri.gbs 


*** tstart() called on c445-062.stampede2.tacc.utexas.edu
*** at Sat Mar 20 09:06:25 2021


  //>>>>>>>>>>>>>>>>>>>>>>>>>>>>>>>>>>>//
  //               DFMP2               //
  //<<<<<<<<<<<<<<<<<<<<<<<<<<<<<<<<<<<//

	 --------------------------------------------------------
	                          DF-MP2                         
	      2nd-Order Density-Fitted Moller-Plesset Theory     
	              RMP2 Wavefunction,  32 Threads             
	                                                         
	        Rob Parrish, Justin Turney, Andy Simmonett,      
	           Ed Hohenstein, and C. David Sherrill          
	 --------------------------------------------------------

   => Auxiliary Basis Set <=

  Basis Set: (AUG-CC-PVTZ AUX)
    Blend: AUG-CC-PVTZ-RI
    Number of shells: 280
    Number of basis functions: 1004
    Number of Cartesian functions: 1256
    Spherical Harmonics?: true
    Max angular momentum: 4

	 --------------------------------------------------------
	                 NBF =   460, NAUX =  1004
	 --------------------------------------------------------
	   CLASS    FOCC     OCC    AOCC    AVIR     VIR    FVIR
	   PAIRS       0      23      23     437     437       0
	 --------------------------------------------------------

  DFHelper Memory: AOs need 1.587 GiB; user supplied 22.352 GiB. Using in-core AOs.


         ------------------------------------------------------------
                                     CPHF                           
                                  Rob Parrish                       
         ------------------------------------------------------------

  ==> Geometry <==

    Molecular point group: c1
    Full point group: C1

    Geometry (in Angstrom), charge = 0, multiplicity = 1:

       Center              X                  Y                   Z               Mass       
    ------------   -----------------  -----------------  -----------------  -----------------
         O            2.925067093226     0.062183885528     0.304692962165    15.994914619570
         C           -1.919064906774     0.496568885528    -0.332593037835    12.000000000000
         C           -2.890734906774    -0.375923114472     0.469404962165    12.000000000000
         C           -0.570277906774    -0.139226114472    -0.445420037835    12.000000000000
         C            0.576220093226     0.373192885528     0.037243962165    12.000000000000
         C            1.888408593226    -0.374262314472    -0.116130137835    12.000000000000
         H           -1.822904906774     1.482331885528     0.135298962165     1.007825032230
         H           -2.325966906774     0.658029885528    -1.339120037835     1.007825032230
         H           -3.008292906774    -1.359592114472     0.005431962165     1.007825032230
         H           -3.877534906774     0.091898885528     0.524285962165     1.007825032230
         H           -2.523808906774    -0.523506114472     1.488463962165     1.007825032230
         H           -0.533343906774    -1.109930114472    -0.946807037835     1.007825032230
         H            0.609252093226     1.332865885528     0.549179962165     1.007825032230
         H            1.773415093226    -1.325035114472    -0.638604037835     1.007825032230

  Nuclear repulsion =  209.672674395890397
  Reference energy  = -268.936438404524552

  ==> Basis Set <==

  Basis Set: AUG-CC-PVTZ
    Blend: AUG-CC-PVTZ
    Number of shells: 156
    Number of basis functions: 460
    Number of Cartesian functions: 530
    Spherical Harmonics?: true
    Max angular momentum: 3

  ==> CGRSolver (by Rob Parrish) <==

   Number of roots    =         1
   Preconditioning    =    JACOBI
   Convergence cutoff =     1E-06
   Maximum iterations =       100

  ==> CPHFRHamiltonian (by Rob Parrish) <== 

  ==> MemDFJK: Density-Fitted J/K Matrices <==

    J tasked:                   Yes
    K tasked:                   Yes
    wK tasked:                   No
    OpenMP threads:              32
    Memory [MiB]:             22888
    Algorithm:                 Core
    Schwarz Cutoff:           1E-12
    Mask sparsity (%):       4.9660
    Fitting Condition:        1E-10

   => Auxiliary Basis Set <=

  Basis Set: (AUG-CC-PVTZ AUX)
    Blend: AUG-CC-PVTZ-JKFIT
    Number of shells: 292
    Number of basis functions: 992
    Number of Cartesian functions: 1226
    Spherical Harmonics?: true
    Max angular momentum: 4

  ==> CPHF Iterations <==

  => Iterations <=

             Iter  Converged  Remaining    Residual
  CGR           1          0          1   1.070E-01
  CGR           2          0          1   3.181E-02
  CGR           3          0          1   9.830E-03
  CGR           4          0          1   3.422E-03
  CGR           5          0          1   1.573E-03
  CGR           6          0          1   5.931E-04
  CGR           7          0          1   1.862E-04
  CGR           8          0          1   5.761E-05
  CGR           9          0          1   1.382E-05
  CGR          10          0          1   4.946E-06
  CGR          11          0          1   2.377E-06
  CGR          12          0          1   1.157E-06
  CGR          13          1          0   3.924E-07

    CGRSolver converged.

	-----------------------------------------------------------
	 ==================> DF-MP2 Energies <==================== 
	-----------------------------------------------------------
	 Reference Energy          =    -268.9364384045245515 [Eh]
	 Singles Energy            =      -0.0000000000000000 [Eh]
	 Same-Spin Energy          =      -0.2683109970095530 [Eh]
	 Opposite-Spin Energy      =      -0.9121696697911233 [Eh]
	 Correlation Energy        =      -1.1804806668006762 [Eh]
	 Total Energy              =    -270.1169190713252419 [Eh]
	-----------------------------------------------------------
	 ================> DF-SCS-MP2 Energies <================== 
	-----------------------------------------------------------
	 SCS Same-Spin Scale       =       0.3333333333333333 [-]
	 SCS Opposite-Spin Scale   =       1.2000000000000000 [-]
	 SCS Same-Spin Energy      =      -0.0894369990031843 [Eh]
	 SCS Opposite-Spin Energy  =      -1.0946036037493481 [Eh]
	 SCS Correlation Energy    =      -1.1840406027525323 [Eh]
	 SCS Total Energy          =    -270.1204790072770834 [Eh]
	-----------------------------------------------------------



Properties will be evaluated at   0.000000,   0.000000,  -0.000000 [a0]

Properties computed using the MP2 density matrix

  Nuclear Dipole Moment: [e a0]
     X:   -10.9629      Y:    -0.7056      Z:    -0.2065

  Electronic Dipole Moment: [e a0]
     X:     9.5602      Y:     0.4862      Z:    -0.1290

  Dipole Moment: [e a0]
     X:    -1.4028      Y:    -0.2194      Z:    -0.3356     Total:     1.4590

  Dipole Moment: [D]
     X:    -3.5656      Y:    -0.5576      Z:    -0.8530     Total:     3.7083


*** tstop() called on c445-062.stampede2.tacc.utexas.edu at Sat Mar 20 09:07:46 2021
Module time:
	user time   =     603.65 seconds =      10.06 minutes
	system time =      21.01 seconds =       0.35 minutes
	total time  =         81 seconds =       1.35 minutes
Total time:
	user time   =     861.34 seconds =      14.36 minutes
	system time =      40.92 seconds =       0.68 minutes
	total time  =         98 seconds =       1.63 minutes

    Psi4 stopped on: Saturday, 20 March 2021 09:07AM
    Psi4 wall time for execution: 0:01:38.36

*** Psi4 exiting successfully. Buy a developer a beer!
