
    -----------------------------------------------------------------------
          Psi4: An Open-Source Ab Initio Electronic Structure Package
                               Psi4 1.3.2 release

                         Git: Rev {HEAD} ecbda83 


    R. M. Parrish, L. A. Burns, D. G. A. Smith, A. C. Simmonett,
    A. E. DePrince III, E. G. Hohenstein, U. Bozkaya, A. Yu. Sokolov,
    R. Di Remigio, R. M. Richard, J. F. Gonthier, A. M. James,
    H. R. McAlexander, A. Kumar, M. Saitow, X. Wang, B. P. Pritchard,
    P. Verma, H. F. Schaefer III, K. Patkowski, R. A. King, E. F. Valeev,
    F. A. Evangelista, J. M. Turney, T. D. Crawford, and C. D. Sherrill,
    J. Chem. Theory Comput. 13(7) pp 3185--3197 (2017).
    (doi: 10.1021/acs.jctc.7b00174)


                         Additional Contributions by
    P. Kraus, H. Kruse, M. H. Lechner, M. C. Schieber, R. A. Shaw,
    A. Alenaizan, R. Galvelis, Z. L. Glick, S. Lehtola, and J. P. Misiewicz

    -----------------------------------------------------------------------


    Psi4 started on: Monday, 02 November 2020 07:36PM

    Process ID: 46618
    Host:       node37.bme.utexas.edu
    PSIDATADIR: /home/xy3866/psi4conda/share/psi4
    Memory:     500.0 MiB
    Threads:    8
    
  ==> Input File <==

--------------------------------------------------------------------------
#psi4
#
memory 32 gb

molecule  {
0 1
  O        2.9378530    -0.0680150     0.1840270
  C       -1.9436970     0.3335570     0.3437070
  C       -2.8302210    -0.7631530    -0.2519080
  C       -0.5859380     0.3423530    -0.2788660
  C        0.5697440     0.1186190     0.3690800
  C        1.8486100     0.1294800    -0.3471130
  H       -1.8508390     0.1975730     1.4263050
  H       -2.4196650     1.3090330     0.1828770
  H       -2.9395310    -0.6342920    -1.3325490
  H       -3.8284810    -0.7404210     0.1934590
  H       -2.3959700    -1.7495570    -0.0705440
  H       -0.5547924     0.4937125    -1.1584102
  H        0.6030990    -0.0751360     1.4392450
  H        1.7772940     0.3293450    -1.4382350
units angstrom
no_reorient  #important for SAPT in psi4, default
symmetry c1  #important for SAPT in psi4, default
}

set PROPERTIES_ORIGIN ["COM"]
properties('MP2/aug-cc-pvtz', properties = ['dipole'])
--------------------------------------------------------------------------

  Memory set to  29.802 GiB by Python driver.
    SCF Algorithm Type (re)set to DF.

*** tstart() called on node37.bme.utexas.edu
*** at Mon Nov  2 19:36:40 2020

   => Loading Basis Set <=

    Name: AUG-CC-PVTZ
    Role: ORBITAL
    Keyword: BASIS
    atoms 1    entry O          line   327 file /home/xy3866/psi4conda/share/psi4/basis/aug-cc-pvtz.gbs 
    atoms 2-6  entry C          line   235 file /home/xy3866/psi4conda/share/psi4/basis/aug-cc-pvtz.gbs 
    atoms 7-14 entry H          line    36 file /home/xy3866/psi4conda/share/psi4/basis/aug-cc-pvtz.gbs 


         ---------------------------------------------------------
                                   SCF
               by Justin Turney, Rob Parrish, Andy Simmonett
                          and Daniel G. A. Smith
                              RHF Reference
                        8 Threads,  30517 MiB Core
         ---------------------------------------------------------

  ==> Geometry <==

    Molecular point group: c1
    Full point group: C1

    Geometry (in Angstrom), charge = 0, multiplicity = 1:

       Center              X                  Y                   Z               Mass       
    ------------   -----------------  -----------------  -----------------  -----------------
         O            2.937936768864    -0.067608488090     0.181665358271    15.994914619570
         C           -1.943613231136     0.333963511910     0.341345358271    12.000000000000
         C           -2.830137231136    -0.762746488090    -0.254269641729    12.000000000000
         C           -0.585854231136     0.342759511910    -0.281227641729    12.000000000000
         C            0.569827768864     0.119025511910     0.366718358271    12.000000000000
         C            1.848693768864     0.129886511910    -0.349474641729    12.000000000000
         H           -1.850755231136     0.197979511910     1.423943358271     1.007825032230
         H           -2.419581231136     1.309439511910     0.180515358271     1.007825032230
         H           -2.939447231136    -0.633885488090    -1.334910641729     1.007825032230
         H           -3.828397231136    -0.740014488090     0.191097358271     1.007825032230
         H           -2.395886231136    -1.749150488090    -0.072905641729     1.007825032230
         H           -0.554708631136     0.494119011910    -1.160771841729     1.007825032230
         H            0.603182768864    -0.074729488090     1.436883358271     1.007825032230
         H            1.777377768864     0.329751511910    -1.440596641729     1.007825032230

  Running in c1 symmetry.

  Rotational constants: A =      0.54215  B =      0.04370  C =      0.04320 [cm^-1]
  Rotational constants: A =  16253.18523  B =   1310.21463  C =   1295.02686 [MHz]
  Nuclear repulsion =  211.092639701073807

  Charge       = 0
  Multiplicity = 1
  Electrons    = 46
  Nalpha       = 23
  Nbeta        = 23

  ==> Algorithm <==

  SCF Algorithm Type is DF.
  DIIS enabled.
  MOM disabled.
  Fractional occupation disabled.
  Guess Type is SAD.
  Energy threshold   = 1.00e-10
  Density threshold  = 1.00e-10
  Integral threshold = 0.00e+00

  ==> Primary Basis <==

  Basis Set: AUG-CC-PVTZ
    Blend: AUG-CC-PVTZ
    Number of shells: 156
    Number of basis function: 460
    Number of Cartesian functions: 530
    Spherical Harmonics?: true
    Max angular momentum: 3

   => Loading Basis Set <=

    Name: (AUG-CC-PVTZ AUX)
    Role: JKFIT
    Keyword: DF_BASIS_SCF
    atoms 1    entry O          line   286 file /home/xy3866/psi4conda/share/psi4/basis/aug-cc-pvtz-jkfit.gbs 
    atoms 2-6  entry C          line   162 file /home/xy3866/psi4conda/share/psi4/basis/aug-cc-pvtz-jkfit.gbs 
    atoms 7-14 entry H          line    70 file /home/xy3866/psi4conda/share/psi4/basis/aug-cc-pvtz-jkfit.gbs 

  ==> Pre-Iterations <==

   -------------------------------------------------------
    Irrep   Nso     Nmo     Nalpha   Nbeta   Ndocc  Nsocc
   -------------------------------------------------------
     A        460     460       0       0       0       0
   -------------------------------------------------------
    Total     460     460      23      23      23       0
   -------------------------------------------------------

  ==> Integral Setup <==

  DFHelper Memory: AOs need 1.550 GiB; user supplied 22.352 GiB. Using in-core AOs.

  ==> MemDFJK: Density-Fitted J/K Matrices <==

    J tasked:                   Yes
    K tasked:                   Yes
    wK tasked:                   No
    OpenMP threads:               8
    Memory [MiB]:             22888
    Algorithm:                 Core
    Schwarz Cutoff:           1E-12
    Mask sparsity (%):       4.8951
    Fitting Condition:        1E-10

   => Auxiliary Basis Set <=

  Basis Set: (AUG-CC-PVTZ AUX)
    Blend: AUG-CC-PVTZ-JKFIT
    Number of shells: 292
    Number of basis function: 992
    Number of Cartesian functions: 1226
    Spherical Harmonics?: true
    Max angular momentum: 4

  Minimum eigenvalue in the overlap matrix is 3.5139214321E-06.
  Using Symmetric Orthogonalization.

  SCF Guess: Superposition of Atomic Densities via on-the-fly atomic UHF.

  ==> Iterations <==

                           Total Energy        Delta E     RMS |[F,P]|

   @DF-RHF iter SAD:  -267.91684559305219   -2.67917e+02   0.00000e+00 
   @DF-RHF iter   1:  -268.69110719877608   -7.74262e-01   1.33840e-03 DIIS
   @DF-RHF iter   2:  -268.85307045358223   -1.61963e-01   7.54391e-04 DIIS
   @DF-RHF iter   3:  -268.89824900085790   -4.51785e-02   1.72861e-04 DIIS
   @DF-RHF iter   4:  -268.90180612484289   -3.55712e-03   6.81312e-05 DIIS
   @DF-RHF iter   5:  -268.90242024127974   -6.14116e-04   1.11430e-05 DIIS
   @DF-RHF iter   6:  -268.90245166638130   -3.14251e-05   5.32672e-06 DIIS
   @DF-RHF iter   7:  -268.90245744505580   -5.77867e-06   2.05958e-06 DIIS
   @DF-RHF iter   8:  -268.90245881914029   -1.37408e-06   1.00331e-06 DIIS
   @DF-RHF iter   9:  -268.90245910732745   -2.88187e-07   2.85968e-07 DIIS
   @DF-RHF iter  10:  -268.90245914276773   -3.54403e-08   8.72726e-08 DIIS
   @DF-RHF iter  11:  -268.90245914516754   -2.39982e-09   2.41258e-08 DIIS
   @DF-RHF iter  12:  -268.90245914535694   -1.89402e-10   8.76615e-09 DIIS
   @DF-RHF iter  13:  -268.90245914538815   -3.12070e-11   4.14300e-09 DIIS
   @DF-RHF iter  14:  -268.90245914539759   -9.43601e-12   2.19118e-09 DIIS
   @DF-RHF iter  15:  -268.90245914540083   -3.24007e-12   1.01442e-09 DIIS
   @DF-RHF iter  16:  -268.90245914540060    2.27374e-13   3.00742e-10 DIIS
   @DF-RHF iter  17:  -268.90245914540151   -9.09495e-13   1.00211e-10 DIIS
   @DF-RHF iter  18:  -268.90245914540230   -7.95808e-13   3.56475e-11 DIIS
  Energy and wave function converged.


  ==> Post-Iterations <==

    Orbital Energies [Eh]
    ---------------------

    Doubly Occupied:                                                      

       1A    -20.549286     2A    -11.331817     3A    -11.250760  
       4A    -11.248526     5A    -11.244131     6A    -11.235536  
       7A     -1.373281     8A     -1.125635     9A     -1.032590  
      10A     -0.911851    11A     -0.832199    12A     -0.799397  
      13A     -0.690292    14A     -0.649216    15A     -0.617578  
      16A     -0.608239    17A     -0.569995    18A     -0.546610  
      19A     -0.526599    20A     -0.517833    21A     -0.509426  
      22A     -0.423955    23A     -0.380403  

    Virtual:                                                              

      24A      0.023495    25A      0.030793    26A      0.036007  
      27A      0.039497    28A      0.051519    29A      0.057379  
      30A      0.059376    31A      0.069969    32A      0.079730  
      33A      0.090307    34A      0.092891    35A      0.105243  
      36A      0.110850    37A      0.116956    38A      0.121367  
      39A      0.123622    40A      0.128431    41A      0.132044  
      42A      0.137638    43A      0.145418    44A      0.148641  
      45A      0.158593    46A      0.162114    47A      0.165980  
      48A      0.171209    49A      0.188861    50A      0.206293  
      51A      0.212111    52A      0.227598    53A      0.229350  
      54A      0.234351    55A      0.239881    56A      0.251353  
      57A      0.258623    58A      0.265021    59A      0.275830  
      60A      0.278561    61A      0.286830    62A      0.296455  
      63A      0.300013    64A      0.306927    65A      0.312457  
      66A      0.323479    67A      0.333283    68A      0.338569  
      69A      0.342894    70A      0.347619    71A      0.354282  
      72A      0.358892    73A      0.365645    74A      0.371026  
      75A      0.373429    76A      0.379812    77A      0.386030  
      78A      0.392426    79A      0.399968    80A      0.401679  
      81A      0.415735    82A      0.422630    83A      0.429339  
      84A      0.434211    85A      0.440274    86A      0.443365  
      87A      0.446665    88A      0.455264    89A      0.461457  
      90A      0.463919    91A      0.472494    92A      0.479299  
      93A      0.487148    94A      0.496096    95A      0.498248  
      96A      0.507740    97A      0.509861    98A      0.513064  
      99A      0.526074   100A      0.534919   101A      0.540182  
     102A      0.551655   103A      0.561117   104A      0.566845  
     105A      0.568761   106A      0.583289   107A      0.587322  
     108A      0.590210   109A      0.605167   110A      0.614829  
     111A      0.636341   112A      0.640026   113A      0.651918  
     114A      0.663334   115A      0.670708   116A      0.684937  
     117A      0.696373   118A      0.703724   119A      0.729796  
     120A      0.744290   121A      0.750512   122A      0.767343  
     123A      0.774950   124A      0.789070   125A      0.806267  
     126A      0.814709   127A      0.819818   128A      0.833507  
     129A      0.842033   130A      0.843371   131A      0.852187  
     132A      0.857712   133A      0.861927   134A      0.878725  
     135A      0.884512   136A      0.885485   137A      0.893644  
     138A      0.897855   139A      0.906344   140A      0.913560  
     141A      0.923078   142A      0.926019   143A      0.935834  
     144A      0.945506   145A      0.949334   146A      0.960203  
     147A      0.966020   148A      0.973529   149A      0.981927  
     150A      0.992825   151A      0.997723   152A      1.000388  
     153A      1.006516   154A      1.015764   155A      1.020150  
     156A      1.023792   157A      1.034094   158A      1.038985  
     159A      1.048809   160A      1.055351   161A      1.068871  
     162A      1.080704   163A      1.086854   164A      1.098023  
     165A      1.106970   166A      1.111004   167A      1.125440  
     168A      1.138383   169A      1.145495   170A      1.154751  
     171A      1.169107   172A      1.175960   173A      1.176801  
     174A      1.188822   175A      1.203411   176A      1.207036  
     177A      1.223120   178A      1.231636   179A      1.240283  
     180A      1.252547   181A      1.255189   182A      1.267355  
     183A      1.275509   184A      1.283267   185A      1.286619  
     186A      1.298830   187A      1.319278   188A      1.343123  
     189A      1.343263   190A      1.368779   191A      1.381250  
     192A      1.392208   193A      1.395105   194A      1.406192  
     195A      1.424060   196A      1.446099   197A      1.447434  
     198A      1.453607   199A      1.459850   200A      1.478671  
     201A      1.492842   202A      1.501437   203A      1.512975  
     204A      1.528374   205A      1.537664   206A      1.563373  
     207A      1.585440   208A      1.594945   209A      1.604532  
     210A      1.622021   211A      1.635250   212A      1.642288  
     213A      1.656435   214A      1.665789   215A      1.682833  
     216A      1.685941   217A      1.701662   218A      1.712141  
     219A      1.730179   220A      1.735460   221A      1.743864  
     222A      1.750954   223A      1.755980   224A      1.774231  
     225A      1.779885   226A      1.784802   227A      1.811459  
     228A      1.818413   229A      1.824545   230A      1.831323  
     231A      1.847992   232A      1.850065   233A      1.863123  
     234A      1.893711   235A      1.909517   236A      1.927613  
     237A      1.929840   238A      1.937272   239A      1.952171  
     240A      1.963710   241A      1.989204   242A      1.996735  
     243A      2.005495   244A      2.012170   245A      2.039336  
     246A      2.055757   247A      2.063819   248A      2.073047  
     249A      2.080177   250A      2.104090   251A      2.136271  
     252A      2.142641   253A      2.150399   254A      2.170674  
     255A      2.194876   256A      2.205390   257A      2.234162  
     258A      2.242054   259A      2.254266   260A      2.263606  
     261A      2.273677   262A      2.293454   263A      2.295608  
     264A      2.314632   265A      2.355600   266A      2.372104  
     267A      2.394397   268A      2.409575   269A      2.421203  
     270A      2.423123   271A      2.452199   272A      2.474494  
     273A      2.477018   274A      2.525441   275A      2.529433  
     276A      2.553966   277A      2.586280   278A      2.610255  
     279A      2.663996   280A      2.691201   281A      2.710737  
     282A      2.744149   283A      2.787094   284A      2.823255  
     285A      2.862629   286A      2.891380   287A      2.917953  
     288A      2.921661   289A      3.018309   290A      3.059096  
     291A      3.146270   292A      3.166939   293A      3.181130  
     294A      3.210130   295A      3.218867   296A      3.246505  
     297A      3.292941   298A      3.328410   299A      3.338143  
     300A      3.366800   301A      3.386770   302A      3.396499  
     303A      3.411935   304A      3.441386   305A      3.477252  
     306A      3.481179   307A      3.483629   308A      3.510057  
     309A      3.522617   310A      3.534166   311A      3.542950  
     312A      3.557816   313A      3.572127   314A      3.600006  
     315A      3.622717   316A      3.634008   317A      3.637466  
     318A      3.663329   319A      3.679384   320A      3.689418  
     321A      3.703047   322A      3.732138   323A      3.742168  
     324A      3.750781   325A      3.763109   326A      3.769177  
     327A      3.791807   328A      3.794811   329A      3.822301  
     330A      3.836295   331A      3.858790   332A      3.867475  
     333A      3.905849   334A      3.929634   335A      3.936000  
     336A      3.953551   337A      3.957646   338A      3.964337  
     339A      3.975486   340A      3.998887   341A      4.008456  
     342A      4.013280   343A      4.033292   344A      4.050712  
     345A      4.058227   346A      4.094216   347A      4.123367  
     348A      4.151591   349A      4.166019   350A      4.180764  
     351A      4.190437   352A      4.201712   353A      4.218036  
     354A      4.257036   355A      4.259006   356A      4.289670  
     357A      4.294357   358A      4.310795   359A      4.315189  
     360A      4.371680   361A      4.384265   362A      4.419411  
     363A      4.446087   364A      4.452683   365A      4.474081  
     366A      4.500999   367A      4.519146   368A      4.542490  
     369A      4.578346   370A      4.582454   371A      4.620587  
     372A      4.648059   373A      4.660238   374A      4.688990  
     375A      4.716867   376A      4.738770   377A      4.763663  
     378A      4.767783   379A      4.792273   380A      4.826059  
     381A      4.836364   382A      4.846236   383A      4.863846  
     384A      4.901919   385A      4.908379   386A      4.927396  
     387A      4.934179   388A      4.960017   389A      4.978647  
     390A      4.992802   391A      5.033626   392A      5.054244  
     393A      5.078253   394A      5.098736   395A      5.117320  
     396A      5.127226   397A      5.154790   398A      5.171631  
     399A      5.184157   400A      5.208519   401A      5.224679  
     402A      5.242209   403A      5.264194   404A      5.313094  
     405A      5.343764   406A      5.363894   407A      5.377459  
     408A      5.389677   409A      5.421863   410A      5.447301  
     411A      5.493720   412A      5.509396   413A      5.549296  
     414A      5.586788   415A      5.610340   416A      5.617425  
     417A      5.657710   418A      5.694406   419A      5.759674  
     420A      5.792396   421A      5.850454   422A      5.872839  
     423A      5.923892   424A      5.971247   425A      5.984119  
     426A      6.046996   427A      6.128019   428A      6.161204  
     429A      6.185833   430A      6.210952   431A      6.218320  
     432A      6.418806   433A      6.423943   434A      6.496049  
     435A      6.512232   436A      6.648301   437A      6.652199  
     438A      6.690785   439A      6.735652   440A      6.749833  
     441A      6.798255   442A      6.886757   443A      6.937039  
     444A      6.957700   445A      7.040910   446A      7.077551  
     447A      7.143956   448A      7.323061   449A      7.345730  
     450A      7.612846   451A      7.665862   452A      7.734322  
     453A      7.831169   454A      7.891702   455A     15.476516  
     456A     16.926529   457A     17.867878   458A     18.304176  
     459A     18.662763   460A     21.071681  

    Final Occupation by Irrep:
              A 
    DOCC [    23 ]

  @DF-RHF Final Energy:  -268.90245914540230

   => Energetics <=

    Nuclear Repulsion Energy =            211.0926397010738071
    One-Electron Energy =                -782.0398867111268828
    Two-Electron Energy =                 302.0447878646507434
    Total Energy =                       -268.9024591454023039

Computation Completed

*** tstop() called on node37.bme.utexas.edu at Mon Nov  2 19:37:06 2020
Module time:
	user time   =     128.50 seconds =       2.14 minutes
	system time =      14.04 seconds =       0.23 minutes
	total time  =         26 seconds =       0.43 minutes
Total time:
	user time   =     128.50 seconds =       2.14 minutes
	system time =      14.04 seconds =       0.23 minutes
	total time  =         26 seconds =       0.43 minutes
   => Loading Basis Set <=

    Name: (AUG-CC-PVTZ AUX)
    Role: RIFIT
    Keyword: DF_BASIS_MP2
    atoms 1    entry O          line   264 file /home/xy3866/psi4conda/share/psi4/basis/aug-cc-pvtz-ri.gbs 
    atoms 2-6  entry C          line   148 file /home/xy3866/psi4conda/share/psi4/basis/aug-cc-pvtz-ri.gbs 
    atoms 7-14 entry H          line    30 file /home/xy3866/psi4conda/share/psi4/basis/aug-cc-pvtz-ri.gbs 


*** tstart() called on node37.bme.utexas.edu
*** at Mon Nov  2 19:37:07 2020


  //>>>>>>>>>>>>>>>>>>>>>>>>>>>>>>>>>>>//
  //               DFMP2               //
  //<<<<<<<<<<<<<<<<<<<<<<<<<<<<<<<<<<<//

	 --------------------------------------------------------
	                          DF-MP2                         
	      2nd-Order Density-Fitted Moller-Plesset Theory     
	              RMP2 Wavefunction,   8 Threads             
	                                                         
	        Rob Parrish, Justin Turney, Andy Simmonett,      
	           Ed Hohenstein, and C. David Sherrill          
	 --------------------------------------------------------

   => Auxiliary Basis Set <=

  Basis Set: (AUG-CC-PVTZ AUX)
    Blend: AUG-CC-PVTZ-RI
    Number of shells: 280
    Number of basis function: 1004
    Number of Cartesian functions: 1256
    Spherical Harmonics?: true
    Max angular momentum: 4

	 --------------------------------------------------------
	                 NBF =   460, NAUX =  1004
	 --------------------------------------------------------
	   CLASS    FOCC     OCC    AOCC    AVIR     VIR    FVIR
	   PAIRS       0      23      23     437     437       0
	 --------------------------------------------------------

  DFHelper Memory: AOs need 1.550 GiB; user supplied 22.352 GiB. Using in-core AOs.


         ------------------------------------------------------------
                                     CPHF                           
                                  Rob Parrish                       
         ------------------------------------------------------------

  ==> Geometry <==

    Molecular point group: c1
    Full point group: C1

    Geometry (in Angstrom), charge = 0, multiplicity = 1:

       Center              X                  Y                   Z               Mass       
    ------------   -----------------  -----------------  -----------------  -----------------
         O            2.937936768864    -0.067608488090     0.181665358271    15.994914619570
         C           -1.943613231136     0.333963511910     0.341345358271    12.000000000000
         C           -2.830137231136    -0.762746488090    -0.254269641729    12.000000000000
         C           -0.585854231136     0.342759511910    -0.281227641729    12.000000000000
         C            0.569827768864     0.119025511910     0.366718358271    12.000000000000
         C            1.848693768864     0.129886511910    -0.349474641729    12.000000000000
         H           -1.850755231136     0.197979511910     1.423943358271     1.007825032230
         H           -2.419581231136     1.309439511910     0.180515358271     1.007825032230
         H           -2.939447231136    -0.633885488090    -1.334910641729     1.007825032230
         H           -3.828397231136    -0.740014488090     0.191097358271     1.007825032230
         H           -2.395886231136    -1.749150488090    -0.072905641729     1.007825032230
         H           -0.554708631136     0.494119011910    -1.160771841729     1.007825032230
         H            0.603182768864    -0.074729488090     1.436883358271     1.007825032230
         H            1.777377768864     0.329751511910    -1.440596641729     1.007825032230

  Nuclear repulsion =  211.092639701073807
  Reference energy  = -268.902459145402304

  ==> Basis Set <==

  Basis Set: AUG-CC-PVTZ
    Blend: AUG-CC-PVTZ
    Number of shells: 156
    Number of basis function: 460
    Number of Cartesian functions: 530
    Spherical Harmonics?: true
    Max angular momentum: 3

  ==> CGRSolver (by Rob Parrish) <==

   Number of roots    =         1
   Preconditioning    =    JACOBI
   Convergence cutoff =     1E-06
   Maximum iterations =       100

  ==> CPHFRHamiltonian (by Rob Parrish) <== 

  ==> MemDFJK: Density-Fitted J/K Matrices <==

    J tasked:                   Yes
    K tasked:                   Yes
    wK tasked:                   No
    OpenMP threads:               8
    Memory [MiB]:             22888
    Algorithm:                 Core
    Schwarz Cutoff:           1E-12
    Mask sparsity (%):       4.8951
    Fitting Condition:        1E-10

   => Auxiliary Basis Set <=

  Basis Set: (AUG-CC-PVTZ AUX)
    Blend: AUG-CC-PVTZ-JKFIT
    Number of shells: 292
    Number of basis function: 992
    Number of Cartesian functions: 1226
    Spherical Harmonics?: true
    Max angular momentum: 4

  ==> CPHF Iterations <==

  => Iterations <=

             Iter  Converged  Remaining    Residual
  CGR           1          0          1   1.124E-01
  CGR           2          0          1   3.516E-02
  CGR           3          0          1   1.210E-02
  CGR           4          0          1   4.622E-03
  CGR           5          0          1   2.013E-03
  CGR           6          0          1   7.248E-04
  CGR           7          0          1   2.090E-04
  CGR           8          0          1   6.336E-05
  CGR           9          0          1   1.474E-05
  CGR          10          0          1   5.137E-06
  CGR          11          0          1   2.487E-06
  CGR          12          0          1   1.233E-06
  CGR          13          1          0   4.024E-07

    CGRSolver converged.

	-----------------------------------------------------------
	 ==================> DF-MP2 Energies <==================== 
	-----------------------------------------------------------
	 Reference Energy          =    -268.9024591454023039 [Eh]
	 Singles Energy            =      -0.0000000000000000 [Eh]
	 Same-Spin Energy          =      -0.2691218620153963 [Eh]
	 Opposite-Spin Energy      =      -0.9133636886119745 [Eh]
	 Correlation Energy        =      -1.1824855506273708 [Eh]
	 Total Energy              =    -270.0849446960296518 [Eh]
	-----------------------------------------------------------
	 ================> DF-SCS-MP2 Energies <================== 
	-----------------------------------------------------------
	 SCS Same-Spin Scale       =       0.3333333333333333 [-]
	 SCS Opposite-Spin Scale   =       1.2000000000000000 [-]
	 SCS Same-Spin Energy      =      -0.0897072873384654 [Eh]
	 SCS Opposite-Spin Energy  =      -1.0960364263343694 [Eh]
	 SCS Correlation Energy    =      -1.1857437136728348 [Eh]
	 SCS Total Energy          =    -270.0882028590751247 [Eh]
	-----------------------------------------------------------



Properties will be evaluated at  -0.000000,  -0.000000,  -0.000000 [a0]

Properties computed using the MP2 density matrix

  Nuclear Dipole Moment: [e a0]
     X:   -10.8682      Y:    -0.8126      Z:    -0.7273

  Electronic Dipole Moment: [e a0]
     X:     9.3274      Y:     0.9759      Z:     0.4022

  Dipole Moment: [e a0]
     X:    -1.5409      Y:     0.1633      Z:    -0.3251     Total:     1.5832

  Dipole Moment: [D]
     X:    -3.9165      Y:     0.4150      Z:    -0.8264     Total:     4.0242


*** tstop() called on node37.bme.utexas.edu at Mon Nov  2 19:38:16 2020
Module time:
	user time   =     328.16 seconds =       5.47 minutes
	system time =      21.24 seconds =       0.35 minutes
	total time  =         69 seconds =       1.15 minutes
Total time:
	user time   =     456.92 seconds =       7.62 minutes
	system time =      35.29 seconds =       0.59 minutes
	total time  =         96 seconds =       1.60 minutes

    Psi4 stopped on: Monday, 02 November 2020 07:38PM
    Psi4 wall time for execution: 0:01:35.97

*** Psi4 exiting successfully. Buy a developer a beer!
