042_Ethanol Gaussian SP Calculation on g2-node38.bme.utexas.edu         
Freq      RMP2-FC                                                     6-31G(d)            
Number of atoms                            I                9
Info1-9                                    I   N=           9
          20          19        1002           0           0         100
           6           2           1
Charge                                     I                0
Multiplicity                               I                1
Number of electrons                        I               26
Number of alpha electrons                  I               13
Number of beta electrons                   I               13
Number of basis functions                  I               57
Number of independent functions            I               57
Number of point charges in /Mol/           I                0
Number of translation vectors              I                0
Atomic numbers                             I   N=           9
           6           6           8           1           1           1
           1           1           1
Nuclear charges                            R   N=           9
  6.00000000E+00  6.00000000E+00  8.00000000E+00  1.00000000E+00  1.00000000E+00
  1.00000000E+00  1.00000000E+00  1.00000000E+00  1.00000000E+00
Current cartesian coordinates              R   N=          27
  1.48416132E-01  1.05851651E+00  8.97322919E-02 -2.28727303E+00 -4.57898342E-01
 -4.11402995E-02  2.33715975E+00 -4.93083347E-01 -2.09766345E-01  2.39662212E-01
  2.41669442E+00 -1.46193271E+00  2.40416456E-01  2.13466088E+00  1.86449040E+00
 -3.94007406E+00  7.78416275E-01  8.80672655E-02  2.35850627E+00 -1.66994321E+00
  1.19990080E+00 -2.38944964E+00 -1.81730370E+00  1.51575320E+00 -2.37319787E+00
 -1.50156692E+00 -1.81970016E+00
Force Field                                I                0
Int Atom Types                             I   N=           9
           0           0           0           0           0           0
           0           0           0
MM charges                                 R   N=           9
  0.00000000E+00  0.00000000E+00  0.00000000E+00  0.00000000E+00  0.00000000E+00
  0.00000000E+00  0.00000000E+00  0.00000000E+00  0.00000000E+00
Integer atomic weights                     I   N=           9
          12          12          16           1           1           1
           1           1           1
Real atomic weights                        R   N=           9
  1.20000000E+01  1.20000000E+01  1.59949146E+01  1.00782504E+00  1.00782504E+00
  1.00782504E+00  1.00782504E+00  1.00782504E+00  1.00782504E+00
Atom fragment info                         I   N=           9
           0           0           0           0           0           0
           0           0           0
Atom residue num                           I   N=           9
           0           0           0           0           0           0
           0           0           0
Nuclear spins                              I   N=           9
           0           0           0           1           1           1
           1           1           1
Nuclear ZEff                               R   N=           9
 -3.60000000E+00 -3.60000000E+00 -5.60000000E+00 -1.00000000E+00 -1.00000000E+00
 -1.00000000E+00 -1.00000000E+00 -1.00000000E+00 -1.00000000E+00
Nuclear QMom                               R   N=           9
  0.00000000E+00  0.00000000E+00  0.00000000E+00  0.00000000E+00  0.00000000E+00
  0.00000000E+00  0.00000000E+00  0.00000000E+00  0.00000000E+00
Nuclear GFac                               R   N=           9
  0.00000000E+00  0.00000000E+00  0.00000000E+00  2.79284600E+00  2.79284600E+00
  2.79284600E+00  2.79284600E+00  2.79284600E+00  2.79284600E+00
MicOpt                                     I   N=           9
          -1          -1          -1          -1          -1          -1
          -1          -1          -1
Number of contracted shells                I               24
Number of primitive shells                 I               57
Pure/Cartesian d shells                    I                1
Pure/Cartesian f shells                    I                0
Highest angular momentum                   I                2
Largest degree of contraction              I                6
Shell types                                I   N=          24
           0          -1          -1           2           0          -1
          -1           2           0          -1          -1           2
           0           0           0           0           0           0
           0           0           0           0           0           0
Number of primitives per shell             I   N=          24
           6           3           1           1           6           3
           1           1           6           3           1           1
           3           1           3           1           3           1
           3           1           3           1           3           1
Shell to atom map                          I   N=          24
           1           1           1           1           2           2
           2           2           3           3           3           3
           4           4           5           5           6           6
           7           7           8           8           9           9
Primitive exponents                        R   N=          57
  3.04752488E+03  4.57369518E+02  1.03948685E+02  2.92101553E+01  9.28666296E+00
  3.16392696E+00  7.86827235E+00  1.88128854E+00  5.44249258E-01  1.68714478E-01
  8.00000000E-01  3.04752488E+03  4.57369518E+02  1.03948685E+02  2.92101553E+01
  9.28666296E+00  3.16392696E+00  7.86827235E+00  1.88128854E+00  5.44249258E-01
  1.68714478E-01  8.00000000E-01  5.48467166E+03  8.25234946E+02  1.88046958E+02
  5.29645000E+01  1.68975704E+01  5.79963534E+00  1.55396162E+01  3.59993359E+00
  1.01376175E+00  2.70005823E-01  8.00000000E-01  1.87311370E+01  2.82539436E+00
  6.40121692E-01  1.61277759E-01  1.87311370E+01  2.82539436E+00  6.40121692E-01
  1.61277759E-01  1.87311370E+01  2.82539436E+00  6.40121692E-01  1.61277759E-01
  1.87311370E+01  2.82539436E+00  6.40121692E-01  1.61277759E-01  1.87311370E+01
  2.82539436E+00  6.40121692E-01  1.61277759E-01  1.87311370E+01  2.82539436E+00
  6.40121692E-01  1.61277759E-01
Contraction coefficients                   R   N=          57
  1.83473713E-03  1.40373228E-02  6.88426223E-02  2.32184443E-01  4.67941348E-01
  3.62311985E-01 -1.19332420E-01 -1.60854152E-01  1.14345644E+00  1.00000000E+00
  1.00000000E+00  1.83473713E-03  1.40373228E-02  6.88426223E-02  2.32184443E-01
  4.67941348E-01  3.62311985E-01 -1.19332420E-01 -1.60854152E-01  1.14345644E+00
  1.00000000E+00  1.00000000E+00  1.83107443E-03  1.39501722E-02  6.84450781E-02
  2.32714336E-01  4.70192898E-01  3.58520853E-01 -1.10777550E-01 -1.48026263E-01
  1.13076702E+00  1.00000000E+00  1.00000000E+00  3.34946043E-02  2.34726953E-01
  8.13757326E-01  1.00000000E+00  3.34946043E-02  2.34726953E-01  8.13757326E-01
  1.00000000E+00  3.34946043E-02  2.34726953E-01  8.13757326E-01  1.00000000E+00
  3.34946043E-02  2.34726953E-01  8.13757326E-01  1.00000000E+00  3.34946043E-02
  2.34726953E-01  8.13757326E-01  1.00000000E+00  3.34946043E-02  2.34726953E-01
  8.13757326E-01  1.00000000E+00
P(S=P) Contraction coefficients            R   N=          57
  0.00000000E+00  0.00000000E+00  0.00000000E+00  0.00000000E+00  0.00000000E+00
  0.00000000E+00  6.89990666E-02  3.16423961E-01  7.44308291E-01  1.00000000E+00
  0.00000000E+00  0.00000000E+00  0.00000000E+00  0.00000000E+00  0.00000000E+00
  0.00000000E+00  0.00000000E+00  6.89990666E-02  3.16423961E-01  7.44308291E-01
  1.00000000E+00  0.00000000E+00  0.00000000E+00  0.00000000E+00  0.00000000E+00
  0.00000000E+00  0.00000000E+00  0.00000000E+00  7.08742682E-02  3.39752839E-01
  7.27158577E-01  1.00000000E+00  0.00000000E+00  0.00000000E+00  0.00000000E+00
  0.00000000E+00  0.00000000E+00  0.00000000E+00  0.00000000E+00  0.00000000E+00
  0.00000000E+00  0.00000000E+00  0.00000000E+00  0.00000000E+00  0.00000000E+00
  0.00000000E+00  0.00000000E+00  0.00000000E+00  0.00000000E+00  0.00000000E+00
  0.00000000E+00  0.00000000E+00  0.00000000E+00  0.00000000E+00  0.00000000E+00
  0.00000000E+00  0.00000000E+00
Coordinates of each shell                  R   N=          72
  1.48416132E-01  1.05851651E+00  8.97322919E-02  1.48416132E-01  1.05851651E+00
  8.97322919E-02  1.48416132E-01  1.05851651E+00  8.97322919E-02  1.48416132E-01
  1.05851651E+00  8.97322919E-02 -2.28727303E+00 -4.57898342E-01 -4.11402995E-02
 -2.28727303E+00 -4.57898342E-01 -4.11402995E-02 -2.28727303E+00 -4.57898342E-01
 -4.11402995E-02 -2.28727303E+00 -4.57898342E-01 -4.11402995E-02  2.33715975E+00
 -4.93083347E-01 -2.09766345E-01  2.33715975E+00 -4.93083347E-01 -2.09766345E-01
  2.33715975E+00 -4.93083347E-01 -2.09766345E-01  2.33715975E+00 -4.93083347E-01
 -2.09766345E-01  2.39662212E-01  2.41669442E+00 -1.46193271E+00  2.39662212E-01
  2.41669442E+00 -1.46193271E+00  2.40416456E-01  2.13466088E+00  1.86449040E+00
  2.40416456E-01  2.13466088E+00  1.86449040E+00 -3.94007406E+00  7.78416275E-01
  8.80672655E-02 -3.94007406E+00  7.78416275E-01  8.80672655E-02  2.35850627E+00
 -1.66994321E+00  1.19990080E+00  2.35850627E+00 -1.66994321E+00  1.19990080E+00
 -2.38944964E+00 -1.81730370E+00  1.51575320E+00 -2.38944964E+00 -1.81730370E+00
  1.51575320E+00 -2.37319787E+00 -1.50156692E+00 -1.81970016E+00 -2.37319787E+00
 -1.50156692E+00 -1.81970016E+00
Constraint Structure                       R   N=          27
  1.48416132E-01  1.05851651E+00  8.97322919E-02 -2.28727303E+00 -4.57898342E-01
 -4.11402995E-02  2.33715975E+00 -4.93083347E-01 -2.09766345E-01  2.39662212E-01
  2.41669442E+00 -1.46193271E+00  2.40416456E-01  2.13466088E+00  1.86449040E+00
 -3.94007406E+00  7.78416275E-01  8.80672655E-02  2.35850627E+00 -1.66994321E+00
  1.19990080E+00 -2.38944964E+00 -1.81730370E+00  1.51575320E+00 -2.37319787E+00
 -1.50156692E+00 -1.81970016E+00
Num ILSW                                   I              100
ILSW                                       I   N=         100
           0           1           0           0           2           0
           0           0           0           0           0          -1
           0           0           0           0           0           0
           0           0           0           0           1           0
           1           0           0           0           0           0
           0           0      100000           0          -1           0
           0           0           0           0           0           0
           0           0           0           1           1           0
           0           0           1           0           0           0
           0           0           4          40           0           0
           0           0           0           0           0           0
           0           0           0           0           0           0
           0           0           0           0           0           0
           0           0           0           0           0           0
           0           0           0           0           0           0
           0           0           0           0           0           0
           0           0           0           0
Num RLSW                                   I               40
RLSW                                       R   N=          40
  1.00000000E+00  1.00000000E+00  1.00000000E+00  1.00000000E+00  1.00000000E+00
  0.00000000E+00  0.00000000E+00  1.00000000E+00  0.00000000E+00  0.00000000E+00
  0.00000000E+00  0.00000000E+00  1.00000000E+00  0.00000000E+00  0.00000000E+00
  0.00000000E+00  0.00000000E+00  1.00000000E+00  0.00000000E+00  0.00000000E+00
  0.00000000E+00  0.00000000E+00  1.00000000E+00  0.00000000E+00  0.00000000E+00
  0.00000000E+00  0.00000000E+00  1.00000000E+00  0.00000000E+00  0.00000000E+00
  0.00000000E+00  0.00000000E+00  0.00000000E+00  0.00000000E+00  0.00000000E+00
  0.00000000E+00  0.00000000E+00  0.00000000E+00  1.00000000E+00  1.00000000E+00
MxBond                                     I                4
NBond                                      I   N=           9
           4           4           2           1           1           1
           1           1           1
IBond                                      I   N=          36
           2           3           4           5           1           6
           8           9           1           7           0           0
           1           0           0           0           1           0
           0           0           2           0           0           0
           3           0           0           0           2           0
           0           0           2           0           0           0
RBond                                      R   N=          36
  1.00000000E+00  1.00000000E+00  1.00000000E+00  1.00000000E+00  1.00000000E+00
  1.00000000E+00  1.00000000E+00  1.00000000E+00  1.00000000E+00  1.00000000E+00
  0.00000000E+00  0.00000000E+00  1.00000000E+00  0.00000000E+00  0.00000000E+00
  0.00000000E+00  1.00000000E+00  0.00000000E+00  0.00000000E+00  0.00000000E+00
  1.00000000E+00  0.00000000E+00  0.00000000E+00  0.00000000E+00  1.00000000E+00
  0.00000000E+00  0.00000000E+00  0.00000000E+00  1.00000000E+00  0.00000000E+00
  0.00000000E+00  0.00000000E+00  1.00000000E+00  0.00000000E+00  0.00000000E+00
  0.00000000E+00
Virial Ratio                               R      2.002224638953633E+00
SCF Energy                                 R     -1.540741412467697E+02
MP2 Energy                                 R     -1.545171225177507E+02
Total Energy                               R     -1.545171225177507E+02
Post-SCF wavefunction norm                 R      1.506366624136579E+00
RMS Force                                  R      1.070889356265019E-06
RMS Density                                R      1.764879419736475E-09
External E-field                           R   N=          35
  0.00000000E+00  0.00000000E+00  0.00000000E+00  0.00000000E+00  0.00000000E+00
  0.00000000E+00  0.00000000E+00  0.00000000E+00  0.00000000E+00  0.00000000E+00
  0.00000000E+00  0.00000000E+00  0.00000000E+00  0.00000000E+00  0.00000000E+00
  0.00000000E+00  0.00000000E+00  0.00000000E+00  0.00000000E+00  0.00000000E+00
  0.00000000E+00  0.00000000E+00  0.00000000E+00  0.00000000E+00  0.00000000E+00
  0.00000000E+00  0.00000000E+00  0.00000000E+00  0.00000000E+00  0.00000000E+00
  0.00000000E+00  0.00000000E+00  0.00000000E+00  0.00000000E+00  0.00000000E+00
IOpCl                                      I                0
IROHF                                      I                0
Alpha Orbital Energies                     R   N=          57
 -2.05573762E+01 -1.12752639E+01 -1.12200107E+01 -1.34781182E+00 -1.01126873E+00
 -8.44187993E-01 -6.81372868E-01 -6.18495089E-01 -6.01994126E-01 -5.42563582E-01
 -5.23321171E-01 -4.79326791E-01 -4.38597886E-01  2.19451159E-01  2.70079512E-01
  2.94264645E-01  3.06789979E-01  3.16177403E-01  3.40516606E-01  3.99470439E-01
  4.21492898E-01  7.27062138E-01  7.50667299E-01  7.88855331E-01  8.10846168E-01
  8.98493996E-01  9.17283060E-01  1.07079230E+00  1.13200446E+00  1.15159247E+00
  1.17478712E+00  1.17872961E+00  1.19704867E+00  1.22649431E+00  1.27815051E+00
  1.30305386E+00  1.42343113E+00  1.61383393E+00  1.72173671E+00  1.78286064E+00
  1.83597796E+00  2.04099063E+00  2.10870591E+00  2.21643119E+00  2.27393318E+00
  2.41516936E+00  2.47004303E+00  2.53910838E+00  2.62320676E+00  2.70091236E+00
  2.74601402E+00  2.84916122E+00  2.98757766E+00  3.18386328E+00  4.14134329E+00
  4.59565389E+00  4.81755489E+00
Alpha MO coefficients                      R   N=        3249
 -2.46406335E-05  2.10857613E-04  2.98366998E-04 -2.02540082E-04 -6.76225005E-05
  2.09008319E-04 -2.55121430E-04 -7.62154595E-05  3.31645230E-04  2.45941927E-05
 -5.19209542E-06 -7.07740502E-05 -5.45078051E-05  4.06549644E-06  1.48116065E-05
  2.98437222E-07  4.44813127E-05 -4.37357597E-05  4.90669030E-06  1.25942136E-05
 -1.95742120E-04 -6.82486784E-05 -1.10535756E-04 -1.68618070E-04 -5.83764285E-05
 -1.54258587E-05 -1.16182761E-05 -1.01372986E-06 -1.38830359E-05 -4.23457927E-06
  9.94662576E-01  2.11415951E-02 -8.38778850E-04 -1.12211261E-04  9.85745868E-04
  3.92328844E-03  4.02467776E-04  6.00641408E-05 -4.80441972E-04 -4.05719229E-03
 -4.03556672E-03 -4.00230066E-03  1.66630201E-04  5.72096700E-05  1.09020187E-04
  2.04508208E-05  4.18784290E-05 -6.44198159E-05 -1.50085823E-04  1.95505710E-05
  2.91388388E-05  3.99434356E-04 -2.25470043E-04  6.81253244E-06  4.96988212E-05
  3.96478969E-06 -1.19083093E-04  9.95873844E-01  2.75053583E-02  4.99087128E-04
 -4.95750953E-04 -4.26122077E-05 -1.45509608E-02  9.45389030E-04  4.69724124E-04
  1.73850218E-04 -1.48577138E-03 -1.53468054E-03 -1.49621457E-03 -9.22213256E-05
 -2.15064183E-05 -1.32194484E-05  5.42853161E-03  1.29790605E-04  1.64281532E-05
  2.52676636E-05  6.67949712E-06  4.10978051E-03  1.80870177E-03  9.98330183E-04
  3.61573352E-05 -3.74180325E-04 -2.34279416E-04 -1.43473307E-04 -1.59267498E-04
 -2.36630592E-05 -1.03371169E-05 -1.62635873E-04  4.70968961E-05 -9.76332940E-05
  4.18598802E-05  5.06223144E-05  1.92689978E-03 -1.60009997E-04  9.28757179E-05
 -1.33035759E-04 -5.25413330E-04 -3.41571218E-04 -1.65791266E-05  4.41599163E-04
  7.71001122E-05 -2.82523831E-05  1.87701271E-04  2.60851239E-03  1.54461213E-04
  2.49544888E-03 -1.32129216E-04  7.62680669E-05  2.47208457E-05  3.39055652E-04
 -1.68638109E-04  7.03480689E-05 -1.84811778E-04  7.29865601E-05 -5.74455795E-03
 -5.29113652E-05 -6.55183044E-05  2.22604084E-05  1.10022550E-07  3.52897343E-03
 -1.53103354E-03 -8.12496899E-04 -5.83255884E-05 -4.00083396E-04 -2.56180686E-04
 -9.98927160E-05 -1.52952285E-04 -1.90873273E-05 -1.69787038E-05  9.95706908E-01
  2.85018181E-02  2.42058132E-05  1.52094585E-05  5.82614850E-05 -1.49275018E-02
 -5.72376025E-04 -2.79231265E-04 -6.71139599E-05 -1.86598056E-03 -1.87385057E-03
 -1.86320765E-03 -2.09437944E-05 -2.01310697E-06  4.82097940E-06 -3.89069641E-05
 -2.20631534E-04  8.51048870E-05  8.07325976E-06 -1.19537897E-05  5.92121935E-04
 -1.73733416E-04 -6.27962413E-06  9.43265870E-05 -4.28736584E-05 -1.07937795E-04
 -2.08971639E-04  2.02563272E-05 -1.05969966E-05 -1.18912014E-05 -1.35151538E-04
  3.19129417E-05 -1.35769852E-04  2.19604428E-05  1.10103330E-04  2.50637977E-03
 -9.50357980E-05 -5.88723225E-05  1.21084077E-04  2.60736222E-03  1.40009192E-04
  2.55935058E-03 -7.06409353E-02  1.30591522E-01  7.21276103E-02 -5.68956054E-02
 -7.31738961E-03  4.68515904E-02  1.44794966E-05 -3.08515267E-04  4.69724169E-03
  1.25655542E-02  5.26003212E-03 -4.65221864E-03 -1.64578176E-02 -2.14410788E-03
  1.11573797E-03 -1.56193695E-02  2.89694618E-02  2.11957175E-02  6.12052383E-03
  6.69942562E-04  1.69324720E-02  5.61113845E-03  1.40311314E-03 -1.20732802E-03
  4.45887779E-03  6.40291629E-04  6.37685110E-08  2.69427321E-03  2.35382860E-04
 -2.56755727E-05 -2.01919699E-01  4.54519387E-01 -5.97228444E-02 -2.11903316E-03
  6.01904974E-02  4.32606848E-01 -3.59504222E-02 -1.55984868E-03  3.60783378E-02
  1.00761896E-02  1.14557330E-02  1.39511991E-02 -7.18915617E-03 -4.30536420E-03
 -1.14217585E-02  2.58959837E-02  6.18745967E-03  2.47161150E-02  1.60652876E-03
  4.41637618E-03 -5.86785092E-04  1.19252665E-01 -2.57468697E-03  6.33150569E-03
  4.40917769E-03  6.61500292E-03  1.32283813E-03 -1.18696018E-01  2.29853759E-01
 -1.05187460E-01 -9.85587266E-03 -3.20569137E-03  1.93805776E-01 -2.83118950E-02
  3.34363644E-03  6.74002060E-03  4.14108368E-03  3.04172152E-03  4.99373183E-03
  1.39234784E-02  5.88475657E-04 -5.13489875E-04 -1.57348072E-01  2.92714405E-01
  4.12040671E-02  3.19941952E-02  3.62113709E-03  2.66619271E-01  1.24260531E-03
  5.14477897E-03 -2.38544792E-04  9.35036733E-03  7.44267269E-03  5.59644064E-03
  2.99462238E-03  2.18060846E-04  1.33299094E-04  5.41747108E-02 -1.21806004E-01
 -6.57052226E-02  5.56215912E-02 -2.75702010E-02 -1.56710372E-01 -2.94443815E-02
  2.92502535E-02 -1.69303870E-02  7.87617914E-03 -2.61268425E-03 -6.72770503E-03
 -4.25333399E-03 -2.45135734E-03  7.25558565E-03  7.50565351E-02  1.66433716E-02
  7.28119845E-02  1.15085973E-02  9.75623369E-02  1.90527875E-02 -5.82772866E-02
 -9.57259392E-03  9.45083370E-02  2.14564755E-02  9.35285220E-02  1.76240553E-02
 -1.26966955E-01  2.48893237E-01  7.87989247E-02  1.09684062E-01 -1.00533616E-02
  2.65021024E-01  4.90303003E-04  4.17648463E-02  4.17352286E-03 -7.25497404E-03
  2.25901749E-03  1.49535161E-02 -6.34036008E-03 -2.63262585E-03 -1.19105044E-03
  1.07973589E-01 -1.98580346E-01  9.42528028E-02  7.48967752E-02  9.45298161E-04
 -2.49687104E-01  2.25991643E-02  1.92160693E-02 -3.15390896E-03  4.38005552E-03
 -4.66081022E-03 -1.14554218E-02  1.18244866E-02  6.81767675E-04  9.64425344E-04
  3.10278705E-02 -7.02226267E-02 -9.94513268E-02  1.77628819E-01 -5.25623582E-02
 -1.01300836E-01 -5.48262960E-02  9.74590404E-02 -2.98305777E-02  1.05205439E-02
 -1.45285183E-03 -9.85356113E-03 -1.14604337E-02 -2.92294933E-03  1.36855606E-02
  1.34904889E-01  5.13418367E-02  1.20790706E-01  4.44668429E-02 -9.51696422E-02
 -3.88800940E-02 -1.01611791E-01 -3.45362585E-02 -1.07397920E-01 -4.39120703E-02
 -1.01090845E-01 -3.89280903E-02 -2.78998457E-02  4.85280929E-02 -1.08316506E-01
  7.69679160E-02  2.54190506E-01  1.02105657E-01 -3.93118978E-02  1.16833322E-02
  1.16941598E-01 -1.15469827E-02  6.76958873E-05  1.14244926E-02  9.81201823E-03
  8.77072519E-03  8.01950499E-03  1.50350323E-02 -2.49015658E-02  3.81370500E-02
  6.59810622E-02  1.23415202E-01 -6.27240085E-02  6.52001297E-03  2.74102965E-02
  5.09598676E-02  2.16334774E-03  1.76014032E-03 -6.70293258E-03  3.42001819E-03
  4.32579278E-03 -4.98308943E-03  3.72413310E-02 -8.48269264E-02  7.06102914E-02
 -1.89890238E-01  3.13561499E-01 -1.51056848E-01  4.20343319E-02 -1.14535627E-01
  1.93927347E-01 -1.18103046E-02  1.19165016E-03  2.44022708E-02  7.88898443E-03
 -9.52206541E-03 -1.50655471E-02 -5.23976165E-02 -2.95831266E-02  1.64790476E-01
  1.01050703E-01 -3.50335076E-03 -1.80250036E-03  1.81250174E-01  8.91787448E-02
  1.66400763E-02  1.89382178E-02 -9.26810986E-02 -5.74308009E-02  8.78076825E-03
 -1.95332708E-02 -8.64198063E-02  2.70439799E-01 -1.04114485E-01  1.19680874E-02
 -1.65435657E-02  1.19302535E-01 -7.03101164E-02 -9.79571819E-03 -4.82454398E-03
  1.62234068E-02  1.10891957E-02  3.50250203E-03 -1.15342071E-02 -3.38117207E-03
  3.53957622E-03 -1.75826703E-01  1.71016288E-01 -9.45358036E-02  1.57499513E-02
 -8.44672903E-02  8.81751529E-02 -3.99515876E-02  4.79130885E-03  4.49133205E-03
 -8.46188236E-03 -1.19592665E-02 -2.99428665E-03  8.66656515E-03 -2.69291527E-02
  6.27292031E-02  3.17432628E-01 -7.94610429E-02 -3.42658446E-02  1.02495572E-01
  2.13770429E-01 -5.40139638E-02 -2.09226733E-02 -1.92032369E-02  8.33234200E-03
  6.28677428E-03  3.17424000E-03  1.54924528E-02 -8.11880947E-03  1.44548682E-01
  9.13018830E-02  1.94239030E-02  2.09894389E-02  1.49162928E-01  1.08258032E-01
  4.13905054E-02  3.31360610E-02 -1.05158570E-01 -8.21215641E-02  4.82429454E-03
  7.32969639E-03  2.51916256E-02 -5.28822008E-02  2.06183129E-01  7.92950388E-02
  1.70441785E-01 -7.24655665E-02  9.28305986E-02  3.27094841E-02  7.67604707E-02
  8.47167455E-03 -9.73630261E-03  3.49339885E-03 -1.17170415E-02 -5.82618819E-03
  1.08096285E-02 -1.08502216E-02  1.57870562E-02 -2.24470864E-01 -8.02048931E-02
  1.76420104E-01  4.51413840E-02 -1.08195672E-01 -2.50582858E-02  9.21507033E-02
 -3.98621786E-03  5.10696253E-03  4.50371197E-03 -1.55565851E-02  1.74231658E-05
 -1.19999651E-02 -2.44103605E-02  5.62132607E-02  1.11607018E-01  3.22239357E-01
 -1.60014294E-02  9.91077756E-02  8.26489278E-02  2.16318515E-01 -1.08244739E-02
 -4.58335198E-03 -1.23800763E-03 -2.98835076E-03 -1.18135182E-02  2.03810616E-03
  1.93311493E-02 -7.00353549E-02 -4.50279767E-02  9.28275361E-02  8.06190069E-02
  9.96484381E-02  6.99573420E-02 -1.12253826E-01 -6.58106551E-02  1.33467841E-01
  9.46930934E-02 -5.34279246E-02 -3.64978537E-02 -1.30569635E-03  6.99424330E-03
 -1.63362984E-01 -9.34371733E-02 -2.80917256E-02 -4.77921998E-03 -6.57040354E-02
 -3.90753077E-02 -3.97627843E-02  4.54082689E-03 -1.44252097E-03 -6.17872749E-03
  6.97787030E-03 -1.25498811E-02 -2.43844595E-04 -1.03674046E-03  1.40149518E-03
  6.04394940E-02  1.96755105E-01  3.00333615E-01  4.39542708E-03  4.13672763E-02
  1.03195762E-01  1.81610265E-01  1.44355602E-02  1.72518479E-03 -1.99260721E-02
  6.93858973E-04 -2.04229387E-03 -2.12410848E-02 -2.90530594E-02  6.29460697E-02
 -3.49075046E-03 -1.24130839E-01 -2.94949179E-01  1.35259784E-01 -4.60512773E-03
 -9.16822371E-02 -2.12536001E-01  4.79177319E-03 -4.92998070E-04 -1.81486056E-02
  5.43645770E-03  8.48749241E-03 -1.01833070E-03 -3.01194546E-02 -3.10068968E-02
 -4.75087986E-02 -4.02524341E-02  6.06994255E-02  5.55773330E-02 -6.70134395E-02
 -4.06786486E-02  6.37978536E-02  4.58254863E-02 -2.40575584E-01 -1.81658339E-01
  2.39023059E-03 -1.04752840E-03  6.48681002E-02 -1.90981618E-01  4.73620242E-02
 -4.61738851E-02  1.17276122E-02 -9.31285324E-02  4.74086426E-02  2.09112706E-02
 -5.97729667E-03 -1.66059686E-02 -1.76395074E-02  2.88159060E-03  7.96707087E-03
 -2.03482847E-03  5.42490016E-03 -1.44068736E-01  2.97352771E-01 -1.01236445E-01
  8.67811230E-03 -8.47730020E-02  1.68258757E-01 -6.42988955E-02  2.33831076E-02
 -3.83747101E-03 -1.91384236E-02 -1.77233378E-02 -2.56179842E-04  1.44049965E-02
  1.08336281E-02 -3.15031823E-02 -2.46424723E-01  1.00393293E-01  1.25013242E-01
 -2.80476294E-02 -1.86350861E-01  7.58477560E-02  9.55896132E-02  9.88754863E-03
 -9.49582666E-03 -6.46264375E-04 -4.74126662E-03 -1.40013340E-02  4.64917673E-03
 -1.13260908E-01 -9.08377535E-02 -4.31231476E-02 -4.16384088E-02  2.05514156E-01
  1.78402190E-01 -4.87717742E-03 -2.38416259E-02 -1.86407507E-01 -1.64235491E-01
 -3.74336622E-02 -3.71299279E-02  6.76814775E-04 -1.02573707E-03 -1.51521698E-01
 -8.82955242E-02  2.76331617E-01  1.12713448E-02 -4.26445684E-02 -5.30143599E-02
  1.35296608E-01  7.56232579E-03 -1.11406602E-02  1.50346919E-03  1.36274029E-02
  2.54256744E-04  3.33913499E-02 -1.33598407E-02  2.68704519E-02  1.57898674E-01
  6.16293055E-02 -1.76061183E-01  5.64340421E-02  8.16397063E-02  4.17113558E-02
 -9.34884111E-02  1.15984434E-03 -4.22280049E-03  9.78058234E-04  1.01286654E-02
  7.55545561E-03  2.18944065E-02 -3.67302396E-02  8.06051857E-02  2.17467191E-01
  6.57043929E-02 -2.25184000E-01  1.75194329E-01  1.76817964E-01  4.65523397E-02
 -1.79279858E-01 -5.27280739E-03 -2.80600765E-03 -1.23597672E-02  9.24595638E-04
  1.11896281E-02  1.25354341E-02 -2.01126958E-01 -1.91775396E-01  1.38073403E-01
  1.43986766E-01 -6.04898997E-02 -6.58849547E-02 -1.09403733E-01 -8.86199349E-02
 -1.24979026E-01 -1.42784386E-01  1.00358881E-01  1.03548530E-01 -5.60510189E-03
  1.64392737E-02 -1.44472781E-01 -1.51348289E-01 -1.42938774E-01  1.29785868E-02
 -3.36263079E-02 -7.92535389E-02 -6.51527634E-02  2.74853464E-02 -1.21283901E-02
 -1.78903938E-02  1.39226564E-02  6.29377848E-03 -2.07011442E-02 -2.52293860E-02
  5.28439785E-02  2.12352516E-01  9.61162723E-02  5.80964926E-02  1.17465279E-01
  9.51704982E-02  8.72048932E-02  2.72611612E-02  5.26653605E-03 -2.92965723E-04
 -6.16907447E-03  1.29523940E-02 -7.23905345E-04 -7.14287166E-03  9.26881072E-04
  2.76379324E-03  2.88019799E-01  3.28621475E-01  2.74781881E-01 -2.43045762E-02
  2.45645501E-01  2.69356539E-01  2.29594305E-01 -9.74527397E-03 -3.90735767E-03
  1.77740285E-02 -9.63091297E-03  3.71714543E-03  7.55136815E-03  9.67593482E-03
  1.25598167E-02 -1.68019049E-01 -1.81652585E-01 -5.69631259E-02 -8.98766546E-02
  2.99510834E-03  2.59365003E-03  8.25132551E-03  4.15970024E-03 -5.82317455E-02
 -8.97116576E-02  4.24190381E-02 -2.37760354E-02  5.14148422E-02 -1.14138101E-01
 -4.94394173E-02 -8.32872045E-01  1.32207180E-01 -4.22714489E-01 -1.14122610E-01
  3.09200078E-03 -1.01192016E-03  1.21334199E-02  2.84767053E-03 -6.24027364E-04
 -7.55244352E-05  6.49131153E-02 -4.60570706E-02  6.82786296E-02  6.46413447E-02
 -4.68645936E-02 -1.08936433E+00  3.14320967E-01  3.52568609E-01 -1.35143217E-01
  9.93801503E-03  7.50205053E-04  5.74703901E-03 -8.51730823E-03  1.26044704E-03
  3.52538587E-05  6.30390698E-02 -5.20797843E-02  3.45891319E-02  1.24012119E-01
 -1.35341297E-01 -8.43710734E-01  6.67045020E-02  2.97497561E-01 -3.27732514E-01
  3.25603471E-02  3.00134656E-02  2.51469570E-02 -4.09928761E-04  6.73539934E-03
  1.05563959E-02 -1.40769206E-02  3.97932310E-01 -5.20066129E-03  6.61359928E-01
  2.98460012E-02  5.63191976E-01  4.85921450E-02  1.09656985E+00 -2.02677573E-02
  7.53194514E-01 -1.09669308E-02  4.00312659E-01 -5.67352307E-02  7.16887020E-02
  9.30814943E-02  5.91769041E-02 -5.68487357E-02  9.04506603E-01  4.40504403E-01
  3.34086143E-01 -2.09245372E-01 -1.17938933E-04 -1.47845268E-03  1.68505264E-03
  7.89526778E-03 -4.21248358E-04  3.19268534E-03 -8.94612829E-02  6.16349163E-02
 -9.48511429E-02 -1.15605566E-02 -6.44025724E-02  1.71943631E+00 -2.62850731E-01
 -1.81817707E-01 -2.11385853E-01  3.00313509E-03 -7.55994735E-03 -1.30483057E-02
 -2.33983855E-03  7.52120810E-05 -1.15869064E-03  6.39384066E-02 -2.97273977E-02
  2.26845824E-02  2.49963190E-02 -1.39504935E-01 -9.49969298E-01  1.08539913E-01
  4.24190573E-02 -2.96374342E-01  3.91396728E-02  4.31076723E-02  2.88031328E-02
 -2.55779354E-03  7.47750402E-03  2.60450823E-03 -9.40934933E-03 -9.30602524E-01
  1.92888762E-02 -3.50508411E-01  4.47739794E-02 -7.27732855E-01  6.33594015E-02
  9.55935468E-01 -1.73172454E-02 -5.41632022E-01 -2.58882755E-02 -1.03047357E+00
 -8.49369214E-02  3.97375197E-02 -7.68201897E-02  1.67209530E-01 -4.76023220E-02
  1.75951566E+00 -4.73982514E-01  4.75282853E-01 -1.63073975E-01  1.44911642E-03
 -1.45193753E-02 -8.33188198E-03 -8.59519675E-03  3.76969446E-03  5.08251798E-03