opt=Tight                                                               
Freq      RMP2-FC                                                     6-31G(d)            
Number of atoms                            I               17
Info1-9                                    I   N=           9
          26          26        1002           0           0         100
           6           2           1
Charge                                     I                0
Multiplicity                               I                1
Number of electrons                        I               58
Number of alpha electrons                  I               29
Number of beta electrons                   I               29
Number of basis functions                  I              138
Number of independent functions            I              138
Number of point charges in /Mol/           I                0
Number of translation vectors              I                0
Atomic numbers                             I   N=          17
           7           6           6           6           6           6
           6           6           1           1           1           1
           1           1           1           1           1
Nuclear charges                            R   N=          17
  7.00000000E+00  6.00000000E+00  6.00000000E+00  6.00000000E+00  6.00000000E+00
  6.00000000E+00  6.00000000E+00  6.00000000E+00  1.00000000E+00  1.00000000E+00
  1.00000000E+00  1.00000000E+00  1.00000000E+00  1.00000000E+00  1.00000000E+00
  1.00000000E+00  1.00000000E+00
Current cartesian coordinates              R   N=          51
 -5.12795139E+00 -8.75389175E-01 -7.25662394E-01 -8.21728512E-01  4.60702003E-01
  3.07923314E-01 -3.60514960E+00  9.88379680E-01  6.51348914E-01  7.92645626E-02
 -2.02828841E+00  3.69664447E-01  9.00061439E-01  2.44038855E+00 -1.93583545E-02
  2.65626519E+00 -2.51900682E+00  1.08549649E-01  3.48161631E+00  1.95253874E+00
 -2.72075210E-01  4.36652781E+00 -5.31364532E-01 -2.06711472E-01 -4.09940369E+00
  8.20655147E-01  2.65800941E+00 -3.98074778E+00  2.96643728E+00  1.12164695E-01
 -1.26665508E+00 -3.56299737E+00  5.93211489E-01  2.15918218E-01  4.38049289E+00
 -8.81784008E-02  3.33521356E+00 -4.45871810E+00  1.55647293E-01  4.79764238E+00
  3.50997354E+00 -5.31124537E-01  6.37447332E+00 -9.17964705E-01 -4.11053228E-01
 -4.82216535E+00 -6.61560994E-01 -2.61534128E+00 -6.99976858E+00 -5.28690570E-01
 -4.29740730E-01
Force Field                                I                0
Int Atom Types                             I   N=          17
           0           0           0           0           0           0
           0           0           0           0           0           0
           0           0           0           0           0
MM charges                                 R   N=          17
  0.00000000E+00  0.00000000E+00  0.00000000E+00  0.00000000E+00  0.00000000E+00
  0.00000000E+00  0.00000000E+00  0.00000000E+00  0.00000000E+00  0.00000000E+00
  0.00000000E+00  0.00000000E+00  0.00000000E+00  0.00000000E+00  0.00000000E+00
  0.00000000E+00  0.00000000E+00
Integer atomic weights                     I   N=          17
          14          12          12          12          12          12
          12          12           1           1           1           1
           1           1           1           1           1
Real atomic weights                        R   N=          17
  1.40030740E+01  1.20000000E+01  1.20000000E+01  1.20000000E+01  1.20000000E+01
  1.20000000E+01  1.20000000E+01  1.20000000E+01  1.00782504E+00  1.00782504E+00
  1.00782504E+00  1.00782504E+00  1.00782504E+00  1.00782504E+00  1.00782504E+00
  1.00782504E+00  1.00782504E+00
Atom fragment info                         I   N=          17
           0           0           0           0           0           0
           0           0           0           0           0           0
           0           0           0           0           0
Atom residue num                           I   N=          17
           0           0           0           0           0           0
           0           0           0           0           0           0
           0           0           0           0           0
Nuclear spins                              I   N=          17
           2           0           0           0           0           0
           0           0           1           1           1           1
           1           1           1           1           1
Nuclear ZEff                               R   N=          17
 -4.55000000E+00 -3.60000000E+00 -3.60000000E+00 -3.60000000E+00 -3.60000000E+00
 -3.60000000E+00 -3.60000000E+00 -3.60000000E+00 -1.00000000E+00 -1.00000000E+00
 -1.00000000E+00 -1.00000000E+00 -1.00000000E+00 -1.00000000E+00 -1.00000000E+00
 -1.00000000E+00 -1.00000000E+00
Nuclear QMom                               R   N=          17
  2.04400000E+00  0.00000000E+00  0.00000000E+00  0.00000000E+00  0.00000000E+00
  0.00000000E+00  0.00000000E+00  0.00000000E+00  0.00000000E+00  0.00000000E+00
  0.00000000E+00  0.00000000E+00  0.00000000E+00  0.00000000E+00  0.00000000E+00
  0.00000000E+00  0.00000000E+00
Nuclear GFac                               R   N=          17
  4.03761000E-01  0.00000000E+00  0.00000000E+00  0.00000000E+00  0.00000000E+00
  0.00000000E+00  0.00000000E+00  0.00000000E+00  2.79284600E+00  2.79284600E+00
  2.79284600E+00  2.79284600E+00  2.79284600E+00  2.79284600E+00  2.79284600E+00
  2.79284600E+00  2.79284600E+00
MicOpt                                     I   N=          17
          -1          -1          -1          -1          -1          -1
          -1          -1          -1          -1          -1          -1
          -1          -1          -1          -1          -1
Number of contracted shells                I               50
Number of primitive shells                 I              124
Pure/Cartesian d shells                    I                1
Pure/Cartesian f shells                    I                0
Highest angular momentum                   I                2
Largest degree of contraction              I                6
Shell types                                I   N=          50
           0          -1          -1           2           0          -1
          -1           2           0          -1          -1           2
           0          -1          -1           2           0          -1
          -1           2           0          -1          -1           2
           0          -1          -1           2           0          -1
          -1           2           0           0           0           0
           0           0           0           0           0           0
           0           0           0           0           0           0
           0           0
Number of primitives per shell             I   N=          50
           6           3           1           1           6           3
           1           1           6           3           1           1
           6           3           1           1           6           3
           1           1           6           3           1           1
           6           3           1           1           6           3
           1           1           3           1           3           1
           3           1           3           1           3           1
           3           1           3           1           3           1
           3           1
Shell to atom map                          I   N=          50
           1           1           1           1           2           2
           2           2           3           3           3           3
           4           4           4           4           5           5
           5           5           6           6           6           6
           7           7           7           7           8           8
           8           8           9           9          10          10
          11          11          12          12          13          13
          14          14          15          15          16          16
          17          17
Primitive exponents                        R   N=         124
  4.17351146E+03  6.27457911E+02  1.42902093E+02  4.02343293E+01  1.28202129E+01
  4.39043701E+00  1.16263619E+01  2.71627981E+00  7.72218397E-01  2.12031498E-01
  8.00000000E-01  3.04752488E+03  4.57369518E+02  1.03948685E+02  2.92101553E+01
  9.28666296E+00  3.16392696E+00  7.86827235E+00  1.88128854E+00  5.44249258E-01
  1.68714478E-01  8.00000000E-01  3.04752488E+03  4.57369518E+02  1.03948685E+02
  2.92101553E+01  9.28666296E+00  3.16392696E+00  7.86827235E+00  1.88128854E+00
  5.44249258E-01  1.68714478E-01  8.00000000E-01  3.04752488E+03  4.57369518E+02
  1.03948685E+02  2.92101553E+01  9.28666296E+00  3.16392696E+00  7.86827235E+00
  1.88128854E+00  5.44249258E-01  1.68714478E-01  8.00000000E-01  3.04752488E+03
  4.57369518E+02  1.03948685E+02  2.92101553E+01  9.28666296E+00  3.16392696E+00
  7.86827235E+00  1.88128854E+00  5.44249258E-01  1.68714478E-01  8.00000000E-01
  3.04752488E+03  4.57369518E+02  1.03948685E+02  2.92101553E+01  9.28666296E+00
  3.16392696E+00  7.86827235E+00  1.88128854E+00  5.44249258E-01  1.68714478E-01
  8.00000000E-01  3.04752488E+03  4.57369518E+02  1.03948685E+02  2.92101553E+01
  9.28666296E+00  3.16392696E+00  7.86827235E+00  1.88128854E+00  5.44249258E-01
  1.68714478E-01  8.00000000E-01  3.04752488E+03  4.57369518E+02  1.03948685E+02
  2.92101553E+01  9.28666296E+00  3.16392696E+00  7.86827235E+00  1.88128854E+00
  5.44249258E-01  1.68714478E-01  8.00000000E-01  1.87311370E+01  2.82539436E+00
  6.40121692E-01  1.61277759E-01  1.87311370E+01  2.82539436E+00  6.40121692E-01
  1.61277759E-01  1.87311370E+01  2.82539436E+00  6.40121692E-01  1.61277759E-01
  1.87311370E+01  2.82539436E+00  6.40121692E-01  1.61277759E-01  1.87311370E+01
  2.82539436E+00  6.40121692E-01  1.61277759E-01  1.87311370E+01  2.82539436E+00
  6.40121692E-01  1.61277759E-01  1.87311370E+01  2.82539436E+00  6.40121692E-01
  1.61277759E-01  1.87311370E+01  2.82539436E+00  6.40121692E-01  1.61277759E-01
  1.87311370E+01  2.82539436E+00  6.40121692E-01  1.61277759E-01
Contraction coefficients                   R   N=         124
  1.83477216E-03  1.39946270E-02  6.85865518E-02  2.32240873E-01  4.69069948E-01
  3.60455199E-01 -1.14961182E-01 -1.69117479E-01  1.14585195E+00  1.00000000E+00
  1.00000000E+00  1.83473713E-03  1.40373228E-02  6.88426223E-02  2.32184443E-01
  4.67941348E-01  3.62311985E-01 -1.19332420E-01 -1.60854152E-01  1.14345644E+00
  1.00000000E+00  1.00000000E+00  1.83473713E-03  1.40373228E-02  6.88426223E-02
  2.32184443E-01  4.67941348E-01  3.62311985E-01 -1.19332420E-01 -1.60854152E-01
  1.14345644E+00  1.00000000E+00  1.00000000E+00  1.83473713E-03  1.40373228E-02
  6.88426223E-02  2.32184443E-01  4.67941348E-01  3.62311985E-01 -1.19332420E-01
 -1.60854152E-01  1.14345644E+00  1.00000000E+00  1.00000000E+00  1.83473713E-03
  1.40373228E-02  6.88426223E-02  2.32184443E-01  4.67941348E-01  3.62311985E-01
 -1.19332420E-01 -1.60854152E-01  1.14345644E+00  1.00000000E+00  1.00000000E+00
  1.83473713E-03  1.40373228E-02  6.88426223E-02  2.32184443E-01  4.67941348E-01
  3.62311985E-01 -1.19332420E-01 -1.60854152E-01  1.14345644E+00  1.00000000E+00
  1.00000000E+00  1.83473713E-03  1.40373228E-02  6.88426223E-02  2.32184443E-01
  4.67941348E-01  3.62311985E-01 -1.19332420E-01 -1.60854152E-01  1.14345644E+00
  1.00000000E+00  1.00000000E+00  1.83473713E-03  1.40373228E-02  6.88426223E-02
  2.32184443E-01  4.67941348E-01  3.62311985E-01 -1.19332420E-01 -1.60854152E-01
  1.14345644E+00  1.00000000E+00  1.00000000E+00  3.34946043E-02  2.34726953E-01
  8.13757326E-01  1.00000000E+00  3.34946043E-02  2.34726953E-01  8.13757326E-01
  1.00000000E+00  3.34946043E-02  2.34726953E-01  8.13757326E-01  1.00000000E+00
  3.34946043E-02  2.34726953E-01  8.13757326E-01  1.00000000E+00  3.34946043E-02
  2.34726953E-01  8.13757326E-01  1.00000000E+00  3.34946043E-02  2.34726953E-01
  8.13757326E-01  1.00000000E+00  3.34946043E-02  2.34726953E-01  8.13757326E-01
  1.00000000E+00  3.34946043E-02  2.34726953E-01  8.13757326E-01  1.00000000E+00
  3.34946043E-02  2.34726953E-01  8.13757326E-01  1.00000000E+00
P(S=P) Contraction coefficients            R   N=         124
  0.00000000E+00  0.00000000E+00  0.00000000E+00  0.00000000E+00  0.00000000E+00
  0.00000000E+00  6.75797439E-02  3.23907296E-01  7.40895140E-01  1.00000000E+00
  0.00000000E+00  0.00000000E+00  0.00000000E+00  0.00000000E+00  0.00000000E+00
  0.00000000E+00  0.00000000E+00  6.89990666E-02  3.16423961E-01  7.44308291E-01
  1.00000000E+00  0.00000000E+00  0.00000000E+00  0.00000000E+00  0.00000000E+00
  0.00000000E+00  0.00000000E+00  0.00000000E+00  6.89990666E-02  3.16423961E-01
  7.44308291E-01  1.00000000E+00  0.00000000E+00  0.00000000E+00  0.00000000E+00
  0.00000000E+00  0.00000000E+00  0.00000000E+00  0.00000000E+00  6.89990666E-02
  3.16423961E-01  7.44308291E-01  1.00000000E+00  0.00000000E+00  0.00000000E+00
  0.00000000E+00  0.00000000E+00  0.00000000E+00  0.00000000E+00  0.00000000E+00
  6.89990666E-02  3.16423961E-01  7.44308291E-01  1.00000000E+00  0.00000000E+00
  0.00000000E+00  0.00000000E+00  0.00000000E+00  0.00000000E+00  0.00000000E+00
  0.00000000E+00  6.89990666E-02  3.16423961E-01  7.44308291E-01  1.00000000E+00
  0.00000000E+00  0.00000000E+00  0.00000000E+00  0.00000000E+00  0.00000000E+00
  0.00000000E+00  0.00000000E+00  6.89990666E-02  3.16423961E-01  7.44308291E-01
  1.00000000E+00  0.00000000E+00  0.00000000E+00  0.00000000E+00  0.00000000E+00
  0.00000000E+00  0.00000000E+00  0.00000000E+00  6.89990666E-02  3.16423961E-01
  7.44308291E-01  1.00000000E+00  0.00000000E+00  0.00000000E+00  0.00000000E+00
  0.00000000E+00  0.00000000E+00  0.00000000E+00  0.00000000E+00  0.00000000E+00
  0.00000000E+00  0.00000000E+00  0.00000000E+00  0.00000000E+00  0.00000000E+00
  0.00000000E+00  0.00000000E+00  0.00000000E+00  0.00000000E+00  0.00000000E+00
  0.00000000E+00  0.00000000E+00  0.00000000E+00  0.00000000E+00  0.00000000E+00
  0.00000000E+00  0.00000000E+00  0.00000000E+00  0.00000000E+00  0.00000000E+00
  0.00000000E+00  0.00000000E+00  0.00000000E+00  0.00000000E+00  0.00000000E+00
  0.00000000E+00  0.00000000E+00  0.00000000E+00  0.00000000E+00
Coordinates of each shell                  R   N=         150
 -5.12795129E+00 -8.75388770E-01 -7.25662492E-01 -5.12795129E+00 -8.75388770E-01
 -7.25662492E-01 -5.12795129E+00 -8.75388770E-01 -7.25662492E-01 -5.12795129E+00
 -8.75388770E-01 -7.25662492E-01 -8.21728315E-01  4.60702095E-01  3.07923217E-01
 -8.21728315E-01  4.60702095E-01  3.07923217E-01 -8.21728315E-01  4.60702095E-01
  3.07923217E-01 -8.21728315E-01  4.60702095E-01  3.07923217E-01 -3.60514936E+00
  9.88379974E-01  6.51348816E-01 -3.60514936E+00  9.88379974E-01  6.51348816E-01
 -3.60514936E+00  9.88379974E-01  6.51348816E-01 -3.60514936E+00  9.88379974E-01
  6.51348816E-01  7.92645784E-02 -2.02828839E+00  3.69664349E-01  7.92645784E-02
 -2.02828839E+00  3.69664349E-01  7.92645784E-02 -2.02828839E+00  3.69664349E-01
  7.92645784E-02 -2.02828839E+00  3.69664349E-01  9.00061779E-01  2.44038852E+00
 -1.93584522E-02  9.00061779E-01  2.44038852E+00 -1.93584522E-02  9.00061779E-01
  2.44038852E+00 -1.93584522E-02  9.00061779E-01  2.44038852E+00 -1.93584522E-02
  2.65626517E+00 -2.51900698E+00  1.08549551E-01  2.65626517E+00 -2.51900698E+00
  1.08549551E-01  2.65626517E+00 -2.51900698E+00  1.08549551E-01  2.65626517E+00
 -2.51900698E+00  1.08549551E-01  3.48161661E+00  1.95253852E+00 -2.72075307E-01
  3.48161661E+00  1.95253852E+00 -2.72075307E-01  3.48161661E+00  1.95253852E+00
 -2.72075307E-01  3.48161661E+00  1.95253852E+00 -2.72075307E-01  4.36652794E+00
 -5.31364817E-01 -2.06711570E-01  4.36652794E+00 -5.31364817E-01 -2.06711570E-01
  4.36652794E+00 -5.31364817E-01 -2.06711570E-01  4.36652794E+00 -5.31364817E-01
 -2.06711570E-01 -4.09940346E+00  8.20655477E-01  2.65800931E+00 -4.09940346E+00
  8.20655477E-01  2.65800931E+00 -3.98074741E+00  2.96643760E+00  1.12164597E-01
 -3.98074741E+00  2.96643760E+00  1.12164597E-01 -1.26665518E+00 -3.56299724E+00
  5.93211392E-01 -1.26665518E+00 -3.56299724E+00  5.93211392E-01  2.15918699E-01
  4.38049291E+00 -8.81784986E-02  2.15918699E-01  4.38049291E+00 -8.81784986E-02
  3.33521340E+00 -4.45871831E+00  1.55647195E-01  3.33521340E+00 -4.45871831E+00
  1.55647195E-01  4.79764279E+00  3.50997322E+00 -5.31124635E-01  4.79764279E+00
  3.50997322E+00 -5.31124635E-01  6.37447342E+00 -9.17965134E-01 -4.11053326E-01
  6.37447342E+00 -9.17965134E-01 -4.11053326E-01 -4.82216524E+00 -6.61560611E-01
 -2.61534138E+00 -4.82216524E+00 -6.61560611E-01 -2.61534138E+00 -6.99976846E+00
 -5.28690030E-01 -4.29740828E-01 -6.99976846E+00 -5.28690030E-01 -4.29740828E-01
Constraint Structure                       R   N=          51
 -5.12795129E+00 -8.75388770E-01 -7.25662492E-01 -8.21728315E-01  4.60702095E-01
  3.07923217E-01 -3.60514936E+00  9.88379974E-01  6.51348816E-01  7.92645784E-02
 -2.02828839E+00  3.69664349E-01  9.00061779E-01  2.44038852E+00 -1.93584522E-02
  2.65626517E+00 -2.51900698E+00  1.08549551E-01  3.48161661E+00  1.95253852E+00
 -2.72075307E-01  4.36652794E+00 -5.31364817E-01 -2.06711570E-01 -4.09940346E+00
  8.20655477E-01  2.65800931E+00 -3.98074741E+00  2.96643760E+00  1.12164597E-01
 -1.26665518E+00 -3.56299724E+00  5.93211392E-01  2.15918699E-01  4.38049291E+00
 -8.81784986E-02  3.33521340E+00 -4.45871831E+00  1.55647195E-01  4.79764279E+00
  3.50997322E+00 -5.31124635E-01  6.37447342E+00 -9.17965134E-01 -4.11053326E-01
 -4.82216524E+00 -6.61560611E-01 -2.61534138E+00 -6.99976846E+00 -5.28690030E-01
 -4.29740828E-01
Num ILSW                                   I              100
ILSW                                       I   N=         100
           0           1           0           1           2           0
           0           0           0           0           0          -1
           0           0           0           0           0           0
           0           0           0           0           1           0
           1           0           0           0           0           0
           0           0      100000           0          -1           0
           0           0           0           0           0           0
           0           0           0           1           1           0
           0           0           1           0           0           0
           0           0           4          40           0           0
           0           0           0           0           0           0
           0           0           0           0           0           0
           0           0           0           0           0           0
           0           0           0           0           0           0
           0           0           0           0           0           0
           0           0           0           0           0           0
           0           0           0           0
Num RLSW                                   I               40
RLSW                                       R   N=          40
  1.00000000E+00  1.00000000E+00  1.00000000E+00  1.00000000E+00  1.00000000E+00
  0.00000000E+00  0.00000000E+00  1.00000000E+00  0.00000000E+00  0.00000000E+00
  0.00000000E+00  0.00000000E+00  1.00000000E+00  0.00000000E+00  0.00000000E+00
  0.00000000E+00  0.00000000E+00  1.00000000E+00  0.00000000E+00  0.00000000E+00
  0.00000000E+00  0.00000000E+00  1.00000000E+00  0.00000000E+00  0.00000000E+00
  0.00000000E+00  0.00000000E+00  1.00000000E+00  0.00000000E+00  0.00000000E+00
  0.00000000E+00  0.00000000E+00  0.00000000E+00  0.00000000E+00  0.00000000E+00
  0.00000000E+00  0.00000000E+00  0.00000000E+00  1.00000000E+00  1.00000000E+00
MxBond                                     I                4
NBond                                      I   N=          17
           3           3           4           3           3           3
           3           3           1           1           1           1
           1           1           1           1           1
IBond                                      I   N=          68
           3          16          17           0           3           4
           5           0           1           2           9          10
           2           6          11           0           2           7
          12           0           4           8          13           0
           5           8          14           0           6           7
          15           0           3           0           0           0
           3           0           0           0           4           0
           0           0           5           0           0           0
           6           0           0           0           7           0
           0           0           8           0           0           0
           1           0           0           0           1           0
           0           0
RBond                                      R   N=          68
  1.00000000E+00  1.00000000E+00  1.00000000E+00  0.00000000E+00  1.00000000E+00
  1.50000000E+00  1.50000000E+00  0.00000000E+00  1.00000000E+00  1.00000000E+00
  1.00000000E+00  1.00000000E+00  1.50000000E+00  1.50000000E+00  1.00000000E+00
  0.00000000E+00  1.50000000E+00  1.50000000E+00  1.00000000E+00  0.00000000E+00
  1.50000000E+00  1.50000000E+00  1.00000000E+00  0.00000000E+00  1.50000000E+00
  1.50000000E+00  1.00000000E+00  0.00000000E+00  1.50000000E+00  1.50000000E+00
  1.00000000E+00  0.00000000E+00  1.00000000E+00  0.00000000E+00  0.00000000E+00
  0.00000000E+00  1.00000000E+00  0.00000000E+00  0.00000000E+00  0.00000000E+00
  1.00000000E+00  0.00000000E+00  0.00000000E+00  0.00000000E+00  1.00000000E+00
  0.00000000E+00  0.00000000E+00  0.00000000E+00  1.00000000E+00  0.00000000E+00
  0.00000000E+00  0.00000000E+00  1.00000000E+00  0.00000000E+00  0.00000000E+00
  0.00000000E+00  1.00000000E+00  0.00000000E+00  0.00000000E+00  0.00000000E+00
  1.00000000E+00  0.00000000E+00  0.00000000E+00  0.00000000E+00  1.00000000E+00
  0.00000000E+00  0.00000000E+00  0.00000000E+00
Virial Ratio                               R      2.002049456768817E+00
SCF Energy                                 R     -3.247566392130862E+02
MP2 Energy                                 R     -3.258097144517063E+02
Total Energy                               R     -3.258097144517063E+02
Post-SCF wavefunction norm                 R      1.657681449593738E+00
RMS Force                                  R      8.537593363543381E-07
RMS Density                                R      1.756986916486440E-09
External E-field                           R   N=          35
  0.00000000E+00  0.00000000E+00  0.00000000E+00  0.00000000E+00  0.00000000E+00
  0.00000000E+00  0.00000000E+00  0.00000000E+00  0.00000000E+00  0.00000000E+00
  0.00000000E+00  0.00000000E+00  0.00000000E+00  0.00000000E+00  0.00000000E+00
  0.00000000E+00  0.00000000E+00  0.00000000E+00  0.00000000E+00  0.00000000E+00
  0.00000000E+00  0.00000000E+00  0.00000000E+00  0.00000000E+00  0.00000000E+00
  0.00000000E+00  0.00000000E+00  0.00000000E+00  0.00000000E+00  0.00000000E+00
  0.00000000E+00  0.00000000E+00  0.00000000E+00  0.00000000E+00  0.00000000E+00
IOpCl                                      I                0
IROHF                                      I                0
Alpha Orbital Energies                     R   N=         138
 -1.55466575E+01 -1.12554434E+01 -1.12323425E+01 -1.12300471E+01 -1.12285032E+01
 -1.12279208E+01 -1.12272569E+01 -1.12219223E+01 -1.18386818E+00 -1.13352579E+00
 -1.01768509E+00 -1.00170390E+00 -8.96120070E-01 -8.15964975E-01 -7.84580640E-01
 -6.90072224E-01 -6.57062644E-01 -6.37744083E-01 -6.18129346E-01 -5.78824385E-01
 -5.69791439E-01 -5.63147666E-01 -5.40877527E-01 -4.82275402E-01 -4.80824349E-01
 -4.75018360E-01 -3.94702122E-01 -3.24773597E-01 -3.16662788E-01  1.46314069E-01
  1.49796582E-01  2.31902238E-01  2.47468062E-01  2.79000007E-01  2.94587764E-01
  3.07629346E-01  3.21448056E-01  3.26113202E-01  3.45705998E-01  3.59140541E-01
  3.78252292E-01  4.23016596E-01  4.39239199E-01  4.85429931E-01  5.00715566E-01
  5.18403059E-01  5.36545915E-01  6.73929635E-01  7.35670271E-01  7.50967121E-01
  7.61449587E-01  7.66072659E-01  7.89971428E-01  8.05334243E-01  8.29335187E-01
  8.36309740E-01  8.47593949E-01  8.48662884E-01  8.59851213E-01  8.67355423E-01
  9.00880090E-01  9.43079173E-01  9.61906013E-01  9.77490420E-01  1.00897753E+00
  1.03468721E+00  1.08958020E+00  1.10754157E+00  1.11787118E+00  1.12469871E+00
  1.14257263E+00  1.15385290E+00  1.17748008E+00  1.18501033E+00  1.20055801E+00
  1.22047660E+00  1.22149059E+00  1.24254248E+00  1.27241826E+00  1.30116308E+00
  1.32543786E+00  1.36458649E+00  1.39502899E+00  1.44953914E+00  1.46500559E+00
  1.50750803E+00  1.57611110E+00  1.65712692E+00  1.69640179E+00  1.70942853E+00
  1.72527993E+00  1.76832377E+00  1.78038652E+00  1.80221060E+00  1.83905397E+00
  1.95728615E+00  2.08592963E+00  2.10670626E+00  2.12669791E+00  2.15622389E+00
  2.18991477E+00  2.21705883E+00  2.23932806E+00  2.31412500E+00  2.34304250E+00
  2.35959487E+00  2.39224554E+00  2.45236155E+00  2.46785902E+00  2.47064666E+00
  2.47947547E+00  2.55587192E+00  2.58725181E+00  2.64183376E+00  2.64588184E+00
  2.66203979E+00  2.71544051E+00  2.77569519E+00  2.81932171E+00  2.92188803E+00
  2.93037063E+00  2.99088205E+00  3.03181228E+00  3.08320202E+00  3.10523065E+00
  3.12422638E+00  3.16941613E+00  3.23738057E+00  3.44875367E+00  3.79513529E+00
  4.22160176E+00  4.52205386E+00  4.54827905E+00  4.56347839E+00  4.71148000E+00
  4.76406490E+00  4.85089062E+00  5.13289299E+00
Alpha MO coefficients                      R   N=       19044
  9.95039271E-01  2.48335198E-02 -3.51977103E-04  1.39621287E-03 -4.21312549E-04
 -2.56976579E-03  6.76877912E-05 -1.24524128E-03  1.70498611E-04 -3.37482049E-03
 -3.24935200E-03 -3.35750043E-03 -1.00977556E-04  1.59845813E-05 -1.02047321E-04
 -3.38916992E-06  5.64323976E-06  4.64925045E-05  1.73681173E-05 -1.50518686E-05
 -1.48774638E-04  8.40442764E-05 -4.58206552E-04  1.88967484E-04 -5.06967793E-05
 -1.20847905E-05 -1.27887540E-05 -2.17616696E-05 -1.28950967E-05  2.33639708E-05
 -2.58910694E-05  1.54625809E-04 -1.35726582E-04 -1.67569834E-04 -1.10095321E-04
  1.75858334E-03 -3.59621484E-04 -9.58382385E-05 -5.50684511E-04 -1.18149123E-04
 -1.45626465E-04 -1.27246480E-04 -4.10811289E-05 -1.79638491E-05 -4.07570119E-05
  4.47730035E-06  3.19849162E-05  5.86169221E-06  3.73238724E-06  7.43135472E-06
 -3.07215226E-04  1.07108835E-04 -2.61087038E-04 -4.30336011E-05 -1.44482151E-05
 -5.36426822E-06  1.00403562E-05  6.81330167E-06 -2.63561159E-06 -5.32387459E-06
 -1.74753575E-06 -2.15568248E-05 -1.48271209E-05 -5.98319453E-06 -1.04102038E-05
  2.61314620E-04 -1.95578681E-04 -1.52236342E-04  2.74360308E-05  1.81065734E-05
  1.26678203E-05 -2.25705087E-06  1.45376376E-05  2.36530261E-07  6.43605468E-06
 -7.57088715E-07 -3.45623622E-06 -4.67028055E-06 -2.69944838E-06  1.69268310E-06
  4.89033183E-06  5.71639272E-05  9.62987471E-05 -1.85419015E-06  2.40025180E-06
 -7.00170118E-07 -1.01596092E-06 -2.45936428E-06 -2.97402565E-06 -5.84233333E-07
  1.46760722E-06  8.55166425E-06  2.98255002E-06 -5.08713319E-06  4.97849118E-06
 -3.68488679E-06 -1.89667159E-05  1.13630062E-04 -1.90643529E-05 -2.68986233E-06
 -2.46501914E-07  2.47378281E-06 -2.41370291E-07  2.75864202E-06  1.73177300E-06
  3.46191088E-07  1.31125385E-06 -2.56677977E-07  4.99600378E-06  1.37134196E-06
  4.82397669E-07  1.81985809E-05  6.49571175E-05 -9.95505185E-06 -5.12791930E-07
  1.38619653E-06  7.11422550E-07 -2.11212427E-06  1.05639621E-06  1.28315059E-06
 -5.98569167E-05 -7.15303477E-05 -1.51058460E-04 -2.65644594E-04  1.04265697E-05
 -9.17490878E-05 -8.05148441E-06  4.85222458E-05  6.21476589E-06  2.74618299E-05
 -6.54890835E-06 -2.99998514E-05 -5.43564932E-07 -3.69531366E-06  2.98927472E-04
  5.88930845E-04  2.97436739E-04  5.89861985E-04 -2.15063542E-04  2.91823464E-05
  5.24325550E-05  9.36488718E-08 -1.73377007E-05  3.20623064E-03  6.24184082E-04
  8.27367881E-04  7.00827358E-04 -2.41945779E-04 -3.39204964E-04 -2.27851701E-04
 -2.05163259E-04 -1.64876495E-04 -2.41459945E-04  1.36998640E-02  4.20496222E-04
  2.37169148E-06 -2.37558857E-05  1.04580608E-05  4.57292141E-03 -2.53859619E-03
  1.09829299E-03  1.50559653E-04 -4.30824781E-04 -2.17759779E-04 -1.85716659E-04
  8.98467523E-05  2.57790180E-05 -1.82721022E-05  9.95808726E-01  2.82065333E-02
 -4.57250461E-05 -3.27421884E-04 -1.77730529E-04 -1.72831160E-02 -1.26697380E-03
  7.98023715E-04  2.38253428E-04 -1.59630668E-03 -1.50938796E-03 -1.49167616E-03
  2.21495800E-05  1.74796099E-05 -2.74555095E-05  6.29744068E-05 -8.94203702E-05
  1.17071472E-04 -2.98137317E-05 -3.93236722E-05 -8.80878362E-04 -1.38453212E-03
  5.25220661E-04  2.32473720E-04 -2.97463807E-05  1.20709352E-04 -5.36018119E-05
  2.04577797E-05 -8.30508856E-06 -9.81684442E-06  2.01802706E-05 -6.38232220E-05
  8.89893320E-05 -2.74271939E-05 -3.07288662E-06 -8.50969874E-04 -1.44378763E-04
  4.67162452E-04  1.63218249E-05 -5.57152190E-05  6.57552747E-05 -5.51306262E-05
  1.32232751E-06 -1.08761414E-05 -1.31474439E-05 -1.19155050E-05 -1.81863970E-04
  2.92256413E-06 -1.06129797E-05  1.00553091E-05  2.02136379E-03 -1.10430362E-03
  6.98114874E-04  1.96497416E-05  3.26697409E-05 -1.55255440E-05 -7.50068424E-05
 -2.12491704E-05 -7.36202868E-06 -5.48919091E-06  2.12119899E-06 -1.43024778E-04
  1.48949676E-05  1.42984170E-05  1.35971001E-07  1.35999879E-03 -6.08211645E-04
 -7.65866177E-04  9.86212101E-05  2.20571612E-05 -4.62735480E-06 -5.85788997E-05
  9.37863480E-07 -1.03833871E-05 -2.77803733E-06  1.17721220E-05  3.07569377E-05
  1.97294705E-05  2.52878715E-06 -4.51855234E-06 -9.69123763E-04  6.88412971E-04