11205                                                                   
Freq      RMP2-FC                                                     6-31G(d)            
Number of atoms                            I                5
Info1-9                                    I   N=           9
          17          15        1002           0           0         100
           6           2           1
Charge                                     I                0
Multiplicity                               I                1
Number of electrons                        I              146
Number of alpha electrons                  I               73
Number of beta electrons                   I               73
Number of basis functions                  I              135
Number of independent functions            I              135
Number of point charges in /Mol/           I                0
Number of translation vectors              I                0
Atomic numbers                             I   N=           5
          35          35          35          35           6
Nuclear charges                            R   N=           5
  3.50000000E+01  3.50000000E+01  3.50000000E+01  3.50000000E+01  6.00000000E+00
Current cartesian coordinates              R   N=          15
  3.51409330E+00 -7.27298453E-01 -8.13594829E-01 -1.03173712E+00  3.10458508E+00
 -1.68426719E+00 -3.58386492E-01  4.01924110E-01  3.64000274E+00 -2.12397130E+00
 -2.77920633E+00 -1.14213171E+00  9.41928051E-06 -2.57484419E-05 -5.25702544E-05
Force Field                                I                0
Int Atom Types                             I   N=           5
           0           0           0           0           0
MM charges                                 R   N=           5
  0.00000000E+00  0.00000000E+00  0.00000000E+00  0.00000000E+00  0.00000000E+00
Integer atomic weights                     I   N=           5
          79          79          79          79          12
Real atomic weights                        R   N=           5
  7.89183361E+01  7.89183361E+01  7.89183361E+01  7.89183361E+01  1.20000000E+01
Atom fragment info                         I   N=           5
           0           0           0           0           0
Atom residue num                           I   N=           5
           0           0           0           0           0
Nuclear spins                              I   N=           5
           3           3           3           3           0
Nuclear ZEff                               R   N=           5
 -2.45000000E+01 -2.45000000E+01 -2.45000000E+01 -2.45000000E+01 -3.60000000E+00
Nuclear QMom                               R   N=           5
  3.13000000E+01  3.13000000E+01  3.13000000E+01  3.13000000E+01  0.00000000E+00
Nuclear GFac                               R   N=           5
  2.10639900E+00  2.10639900E+00  2.10639900E+00  2.10639900E+00  0.00000000E+00
MicOpt                                     I   N=           5
          -1          -1          -1          -1          -1
Number of contracted shells                I               52
Number of primitive shells                 I              135
Pure/Cartesian d shells                    I                1
Pure/Cartesian f shells                    I                0
Highest angular momentum                   I                2
Largest degree of contraction              I                8
Shell types                                I   N=          52
           0           0           0           0           0           0
           1           1           1           1           2           2
           0           0           0           0           0           0
           1           1           1           1           2           2
           0           0           0           0           0           0
           1           1           1           1           2           2
           0           0           0           0           0           0
           1           1           1           1           2           2
           0          -1          -1           2
Number of primitives per shell             I   N=          52
           8           2           1           1           1           1
           6           3           1           1           5           1
           8           2           1           1           1           1
           6           3           1           1           5           1
           8           2           1           1           1           1
           6           3           1           1           5           1
           8           2           1           1           1           1
           6           3           1           1           5           1
           6           3           1           1
Shell to atom map                          I   N=          52
           1           1           1           1           1           1
           1           1           1           1           1           1
           2           2           2           2           2           2
           2           2           2           2           2           2
           3           3           3           3           3           3
           3           3           3           3           3           3
           4           4           4           4           4           4
           4           4           4           4           4           4
           5           5           5           5
Primitive exponents                        R   N=         135
  5.74300000E+05  8.90700000E+04  2.02100000E+04  5.73600000E+03  1.89900000E+03
  6.98700000E+02  2.77800000E+02  1.15200000E+02  3.59700000E+01  1.55000000E+01
  4.77100000E+00  2.07700000E+00  4.21100000E-01  1.61000000E-01  4.40600000E+03
  1.04200000E+03  3.32100000E+02  1.21900000E+02  4.92400000E+01  2.11600000E+01
  8.83600000E+00  3.82900000E+00  1.64300000E+00  4.65000000E-01  1.42700000E-01
  1.08400000E+02  3.07100000E+01  1.06600000E+01  3.85100000E+00  1.31700000E+00
  3.38000000E-01  5.74300000E+05  8.90700000E+04  2.02100000E+04  5.73600000E+03
  1.89900000E+03  6.98700000E+02  2.77800000E+02  1.15200000E+02  3.59700000E+01
  1.55000000E+01  4.77100000E+00  2.07700000E+00  4.21100000E-01  1.61000000E-01
  4.40600000E+03  1.04200000E+03  3.32100000E+02  1.21900000E+02  4.92400000E+01
  2.11600000E+01  8.83600000E+00  3.82900000E+00  1.64300000E+00  4.65000000E-01
  1.42700000E-01  1.08400000E+02  3.07100000E+01  1.06600000E+01  3.85100000E+00
  1.31700000E+00  3.38000000E-01  5.74300000E+05  8.90700000E+04  2.02100000E+04
  5.73600000E+03  1.89900000E+03  6.98700000E+02  2.77800000E+02  1.15200000E+02
  3.59700000E+01  1.55000000E+01  4.77100000E+00  2.07700000E+00  4.21100000E-01
  1.61000000E-01  4.40600000E+03  1.04200000E+03  3.32100000E+02  1.21900000E+02
  4.92400000E+01  2.11600000E+01  8.83600000E+00  3.82900000E+00  1.64300000E+00
  4.65000000E-01  1.42700000E-01  1.08400000E+02  3.07100000E+01  1.06600000E+01
  3.85100000E+00  1.31700000E+00  3.38000000E-01  5.74300000E+05  8.90700000E+04
  2.02100000E+04  5.73600000E+03  1.89900000E+03  6.98700000E+02  2.77800000E+02
  1.15200000E+02  3.59700000E+01  1.55000000E+01  4.77100000E+00  2.07700000E+00
  4.21100000E-01  1.61000000E-01  4.40600000E+03  1.04200000E+03  3.32100000E+02
  1.21900000E+02  4.92400000E+01  2.11600000E+01  8.83600000E+00  3.82900000E+00
  1.64300000E+00  4.65000000E-01  1.42700000E-01  1.08400000E+02  3.07100000E+01
  1.06600000E+01  3.85100000E+00  1.31700000E+00  3.38000000E-01  3.04752488E+03
  4.57369518E+02  1.03948685E+02  2.92101553E+01  9.28666296E+00  3.16392696E+00
  7.86827235E+00  1.88128854E+00  5.44249258E-01  1.68714478E-01  8.00000000E-01
Contraction coefficients                   R   N=         135
  2.10682753E-04  1.61271721E-03  8.36010959E-03  3.40275588E-02  1.08515001E-01
  2.67396944E-01  4.29567221E-01  2.86993117E-01  2.77772914E-01  7.47057636E-01
  1.00000000E+00  1.00000000E+00  1.00000000E+00  1.00000000E+00  1.39552623E-03
  1.23748283E-02  6.10175241E-02  2.26775547E-01  4.05975875E-01  4.50692322E-01
  2.92018585E-01  5.30220862E-01  2.75287404E-01  1.00000000E+00  1.00000000E+00
  2.15879371E-02  1.34176036E-01  3.67870647E-01  4.91895206E-01  2.68321979E-01
  1.00000000E+00  2.10682753E-04  1.61271721E-03  8.36010959E-03  3.40275588E-02
  1.08515001E-01  2.67396944E-01  4.29567221E-01  2.86993117E-01  2.77772914E-01
  7.47057636E-01  1.00000000E+00  1.00000000E+00  1.00000000E+00  1.00000000E+00
  1.39552623E-03  1.23748283E-02  6.10175241E-02  2.26775547E-01  4.05975875E-01
  4.50692322E-01  2.92018585E-01  5.30220862E-01  2.75287404E-01  1.00000000E+00
  1.00000000E+00  2.15879371E-02  1.34176036E-01  3.67870647E-01  4.91895206E-01
  2.68321979E-01  1.00000000E+00  2.10682753E-04  1.61271721E-03  8.36010959E-03
  3.40275588E-02  1.08515001E-01  2.67396944E-01  4.29567221E-01  2.86993117E-01
  2.77772914E-01  7.47057636E-01  1.00000000E+00  1.00000000E+00  1.00000000E+00
  1.00000000E+00  1.39552623E-03  1.23748283E-02  6.10175241E-02  2.26775547E-01
  4.05975875E-01  4.50692322E-01  2.92018585E-01  5.30220862E-01  2.75287404E-01
  1.00000000E+00  1.00000000E+00  2.15879371E-02  1.34176036E-01  3.67870647E-01
  4.91895206E-01  2.68321979E-01  1.00000000E+00  2.10682753E-04  1.61271721E-03
  8.36010959E-03  3.40275588E-02  1.08515001E-01  2.67396944E-01  4.29567221E-01
  2.86993117E-01  2.77772914E-01  7.47057636E-01  1.00000000E+00  1.00000000E+00
  1.00000000E+00  1.00000000E+00  1.39552623E-03  1.23748283E-02  6.10175241E-02
  2.26775547E-01  4.05975875E-01  4.50692322E-01  2.92018585E-01  5.30220862E-01
  2.75287404E-01  1.00000000E+00  1.00000000E+00  2.15879371E-02  1.34176036E-01
  3.67870647E-01  4.91895206E-01  2.68321979E-01  1.00000000E+00  1.83473713E-03
  1.40373228E-02  6.88426223E-02  2.32184443E-01  4.67941348E-01  3.62311985E-01
 -1.19332420E-01 -1.60854152E-01  1.14345644E+00  1.00000000E+00  1.00000000E+00
P(S=P) Contraction coefficients            R   N=         135
  0.00000000E+00  0.00000000E+00  0.00000000E+00  0.00000000E+00  0.00000000E+00
  0.00000000E+00  0.00000000E+00  0.00000000E+00  0.00000000E+00  0.00000000E+00
  0.00000000E+00  0.00000000E+00  0.00000000E+00  0.00000000E+00  0.00000000E+00
  0.00000000E+00  0.00000000E+00  0.00000000E+00  0.00000000E+00  0.00000000E+00
  0.00000000E+00  0.00000000E+00  0.00000000E+00  0.00000000E+00  0.00000000E+00
  0.00000000E+00  0.00000000E+00  0.00000000E+00  0.00000000E+00  0.00000000E+00
  0.00000000E+00  0.00000000E+00  0.00000000E+00  0.00000000E+00  0.00000000E+00
  0.00000000E+00  0.00000000E+00  0.00000000E+00  0.00000000E+00  0.00000000E+00
  0.00000000E+00  0.00000000E+00  0.00000000E+00  0.00000000E+00  0.00000000E+00
  0.00000000E+00  0.00000000E+00  0.00000000E+00  0.00000000E+00  0.00000000E+00
  0.00000000E+00  0.00000000E+00  0.00000000E+00  0.00000000E+00  0.00000000E+00
  0.00000000E+00  0.00000000E+00  0.00000000E+00  0.00000000E+00  0.00000000E+00
  0.00000000E+00  0.00000000E+00  0.00000000E+00  0.00000000E+00  0.00000000E+00
  0.00000000E+00  0.00000000E+00  0.00000000E+00  0.00000000E+00  0.00000000E+00
  0.00000000E+00  0.00000000E+00  0.00000000E+00  0.00000000E+00  0.00000000E+00
  0.00000000E+00  0.00000000E+00  0.00000000E+00  0.00000000E+00  0.00000000E+00
  0.00000000E+00  0.00000000E+00  0.00000000E+00  0.00000000E+00  0.00000000E+00
  0.00000000E+00  0.00000000E+00  0.00000000E+00  0.00000000E+00  0.00000000E+00
  0.00000000E+00  0.00000000E+00  0.00000000E+00  0.00000000E+00  0.00000000E+00
  0.00000000E+00  0.00000000E+00  0.00000000E+00  0.00000000E+00  0.00000000E+00
  0.00000000E+00  0.00000000E+00  0.00000000E+00  0.00000000E+00  0.00000000E+00
  0.00000000E+00  0.00000000E+00  0.00000000E+00  0.00000000E+00  0.00000000E+00
  0.00000000E+00  0.00000000E+00  0.00000000E+00  0.00000000E+00  0.00000000E+00
  0.00000000E+00  0.00000000E+00  0.00000000E+00  0.00000000E+00  0.00000000E+00
  0.00000000E+00  0.00000000E+00  0.00000000E+00  0.00000000E+00  0.00000000E+00
  0.00000000E+00  0.00000000E+00  0.00000000E+00  0.00000000E+00  0.00000000E+00
  6.89990666E-02  3.16423961E-01  7.44308291E-01  1.00000000E+00  0.00000000E+00
Coordinates of each shell                  R   N=         156
  3.51409330E+00 -7.27298453E-01 -8.13594829E-01  3.51409330E+00 -7.27298453E-01
 -8.13594829E-01  3.51409330E+00 -7.27298453E-01 -8.13594829E-01  3.51409330E+00
 -7.27298453E-01 -8.13594829E-01  3.51409330E+00 -7.27298453E-01 -8.13594829E-01
  3.51409330E+00 -7.27298453E-01 -8.13594829E-01  3.51409330E+00 -7.27298453E-01
 -8.13594829E-01  3.51409330E+00 -7.27298453E-01 -8.13594829E-01  3.51409330E+00
 -7.27298453E-01 -8.13594829E-01  3.51409330E+00 -7.27298453E-01 -8.13594829E-01
  3.51409330E+00 -7.27298453E-01 -8.13594829E-01  3.51409330E+00 -7.27298453E-01
 -8.13594829E-01 -1.03173712E+00  3.10458508E+00 -1.68426719E+00 -1.03173712E+00
  3.10458508E+00 -1.68426719E+00 -1.03173712E+00  3.10458508E+00 -1.68426719E+00
 -1.03173712E+00  3.10458508E+00 -1.68426719E+00 -1.03173712E+00  3.10458508E+00
 -1.68426719E+00 -1.03173712E+00  3.10458508E+00 -1.68426719E+00 -1.03173712E+00
  3.10458508E+00 -1.68426719E+00 -1.03173712E+00  3.10458508E+00 -1.68426719E+00
 -1.03173712E+00  3.10458508E+00 -1.68426719E+00 -1.03173712E+00  3.10458508E+00
 -1.68426719E+00 -1.03173712E+00  3.10458508E+00 -1.68426719E+00 -1.03173712E+00
  3.10458508E+00 -1.68426719E+00 -3.58386492E-01  4.01924110E-01  3.64000274E+00
 -3.58386492E-01  4.01924110E-01  3.64000274E+00 -3.58386492E-01  4.01924110E-01
  3.64000274E+00 -3.58386492E-01  4.01924110E-01  3.64000274E+00 -3.58386492E-01
  4.01924110E-01  3.64000274E+00 -3.58386492E-01  4.01924110E-01  3.64000274E+00
 -3.58386492E-01  4.01924110E-01  3.64000274E+00 -3.58386492E-01  4.01924110E-01
  3.64000274E+00 -3.58386492E-01  4.01924110E-01  3.64000274E+00 -3.58386492E-01
  4.01924110E-01  3.64000274E+00 -3.58386492E-01  4.01924110E-01  3.64000274E+00
 -3.58386492E-01  4.01924110E-01  3.64000274E+00 -2.12397130E+00 -2.77920633E+00
 -1.14213171E+00 -2.12397130E+00 -2.77920633E+00 -1.14213171E+00 -2.12397130E+00
 -2.77920633E+00 -1.14213171E+00 -2.12397130E+00 -2.77920633E+00 -1.14213171E+00
 -2.12397130E+00 -2.77920633E+00 -1.14213171E+00 -2.12397130E+00 -2.77920633E+00
 -1.14213171E+00 -2.12397130E+00 -2.77920633E+00 -1.14213171E+00 -2.12397130E+00
 -2.77920633E+00 -1.14213171E+00 -2.12397130E+00 -2.77920633E+00 -1.14213171E+00
 -2.12397130E+00 -2.77920633E+00 -1.14213171E+00 -2.12397130E+00 -2.77920633E+00
 -1.14213171E+00 -2.12397130E+00 -2.77920633E+00 -1.14213171E+00  9.41928051E-06
 -2.57484419E-05 -5.25702544E-05  9.41928051E-06 -2.57484419E-05 -5.25702544E-05
  9.41928051E-06 -2.57484419E-05 -5.25702544E-05  9.41928051E-06 -2.57484419E-05
 -5.25702544E-05
Constraint Structure                       R   N=          15
  3.51409330E+00 -7.27298453E-01 -8.13594829E-01 -1.03173712E+00  3.10458508E+00
 -1.68426719E+00 -3.58386492E-01  4.01924110E-01  3.64000274E+00 -2.12397130E+00
 -2.77920633E+00 -1.14213171E+00  9.41928051E-06 -2.57484419E-05 -5.25702544E-05
Num ILSW                                   I              100
ILSW                                       I   N=         100
           0           1           0           0           2           0
           0           0           0           0           0          -1
           0           0           0           0           0           0
           0           0           0           0           1           0
           1           0           0           0           0           0
           0           0      100000           0          -1           0
           0           0           0           0           0           0
           0           0           0           1           1           0
           0           0           1           0           0           0
           0           0           4          40           0           0
           0           0           0           0           0           0
           0           0           0           0           0           0
           0           0           0           0           0           0
           0           0           0           0           0           0
           0           0           0           0           0           0
           0           0           0           0           0           0
           0           0           0           0
Num RLSW                                   I               40
RLSW                                       R   N=          40
  1.00000000E+00  1.00000000E+00  1.00000000E+00  1.00000000E+00  1.00000000E+00
  0.00000000E+00  0.00000000E+00  1.00000000E+00  0.00000000E+00  0.00000000E+00
  0.00000000E+00  0.00000000E+00  1.00000000E+00  0.00000000E+00  0.00000000E+00
  0.00000000E+00  0.00000000E+00  1.00000000E+00  0.00000000E+00  0.00000000E+00
  0.00000000E+00  0.00000000E+00  1.00000000E+00  0.00000000E+00  0.00000000E+00
  0.00000000E+00  0.00000000E+00  1.00000000E+00  0.00000000E+00  0.00000000E+00
  0.00000000E+00  0.00000000E+00  0.00000000E+00  0.00000000E+00  0.00000000E+00
  0.00000000E+00  0.00000000E+00  0.00000000E+00  1.00000000E+00  1.00000000E+00
MxBond                                     I                4
NBond                                      I   N=           5
           1           1           1           1           4
IBond                                      I   N=          20
           5           0           0           0           5           0
           0           0           5           0           0           0
           5           0           0           0           1           2
           3           4
RBond                                      R   N=          20
  1.00000000E+00  0.00000000E+00  0.00000000E+00  0.00000000E+00  1.00000000E+00
  0.00000000E+00  0.00000000E+00  0.00000000E+00  1.00000000E+00  0.00000000E+00
  0.00000000E+00  0.00000000E+00  1.00000000E+00  0.00000000E+00  0.00000000E+00
  0.00000000E+00  1.00000000E+00  1.00000000E+00  1.00000000E+00  1.00000000E+00
Virial Ratio                               R      2.004521129562165E+00
SCF Energy                                 R     -1.031737905357401E+04
MP2 Energy                                 R     -1.031797686999436E+04
Total Energy                               R     -1.031797686999436E+04
Post-SCF wavefunction norm                 R      1.596114262854806E+00
RMS Force                                  R      3.197164669815594E-06
RMS Density                                R      7.871497127635350E-10
External E-field                           R   N=          35
  0.00000000E+00  0.00000000E+00  0.00000000E+00  0.00000000E+00  0.00000000E+00
  0.00000000E+00  0.00000000E+00  0.00000000E+00  0.00000000E+00  0.00000000E+00
  0.00000000E+00  0.00000000E+00  0.00000000E+00  0.00000000E+00  0.00000000E+00
  0.00000000E+00  0.00000000E+00  0.00000000E+00  0.00000000E+00  0.00000000E+00
  0.00000000E+00  0.00000000E+00  0.00000000E+00  0.00000000E+00  0.00000000E+00
  0.00000000E+00  0.00000000E+00  0.00000000E+00  0.00000000E+00  0.00000000E+00
  0.00000000E+00  0.00000000E+00  0.00000000E+00  0.00000000E+00  0.00000000E+00
IOpCl                                      I                0
IROHF                                      I                0
Alpha Orbital Energies                     R   N=         135
 -4.90101052E+02 -4.90101051E+02 -4.90101049E+02 -4.90100819E+02 -6.45131583E+01
 -6.45131573E+01 -6.45131548E+01 -6.45112540E+01 -5.86517198E+01 -5.86517188E+01
 -5.86517162E+01 -5.86516016E+01 -5.86496472E+01 -5.86496459E+01 -5.86496454E+01
 -5.86494326E+01 -5.86494322E+01 -5.86494288E+01 -5.86494270E+01 -5.86494269E+01
 -1.14736998E+01 -9.76090409E+00 -9.76090303E+00 -9.76090028E+00 -9.76027346E+00
 -7.51066841E+00 -7.51066747E+00 -7.51066522E+00 -7.51066044E+00 -7.50010896E+00
 -7.50010813E+00 -7.50010741E+00 -7.50010273E+00 -7.50010192E+00 -7.50010050E+00
 -7.50009805E+00 -7.50009799E+00 -3.24983012E+00 -3.24980964E+00 -3.24980850E+00
 -3.24980556E+00 -3.24492070E+00 -3.24492044E+00 -3.24491681E+00 -3.24491512E+00
 -3.24491503E+00 -3.24490703E+00 -3.24490522E+00 -3.24490480E+00 -3.23254955E+00
 -3.23254911E+00 -3.23254818E+00 -3.23254630E+00 -3.23254545E+00 -3.23254155E+00
 -3.23253945E+00 -3.23253920E+00 -1.17616309E+00 -1.02560854E+00 -1.02560632E+00
 -1.02560062E+00 -7.90670881E-01 -5.95033076E-01 -5.95031867E-01 -5.95028702E-01
 -4.74478858E-01 -4.74478849E-01 -4.36392674E-01 -4.36391077E-01 -4.36386886E-01
 -4.10891311E-01 -4.10889618E-01 -4.10888984E-01  4.36530711E-02  1.28006755E-01
  1.28015026E-01  1.28018333E-01  3.23450663E-01  4.14145630E-01  4.14146739E-01
  4.14149688E-01  4.96308777E-01  4.96308788E-01  5.26715122E-01  5.26716666E-01
  5.26720693E-01  5.78022145E-01  5.78022871E-01  5.78023233E-01  6.15380949E-01
  6.15380952E-01  6.35371232E-01  6.37190497E-01  6.37190969E-01  6.37192120E-01
  6.40372689E-01  6.40374687E-01  6.40375434E-01  6.57515104E-01  6.57516653E-01
  6.57517228E-01  7.42641068E-01  7.42641074E-01  8.11089324E-01  8.11092033E-01
  8.11093357E-01  9.28248236E-01  9.28251608E-01  9.28252998E-01  9.67431914E-01
  1.07794262E+00  1.07794538E+00  1.07794644E+00  1.31266671E+00  1.31267120E+00
  1.31267290E+00  1.60672614E+00  1.85353613E+00  1.85353661E+00  1.85353715E+00
  1.89271122E+00  2.01056989E+00  2.01056989E+00  2.33923820E+00  2.33924631E+00
  2.33924989E+00  4.41220139E+00  9.20305513E+00  9.30302372E+00  9.30302567E+00
  9.30303088E+00  7.32095235E+01  7.57490790E+01  7.57490970E+01  7.57491335E+01
Alpha MO coefficients                      R   N=       18225
 -6.46474043E-01 -2.14864792E-02  2.92904660E-02  3.15666138E-02  1.69007361E-02
  1.42856134E-02  1.74333749E-05 -1.87991729E-06 -3.27170422E-06 -5.44601089E-05
  4.74040966E-06  9.71979934E-06  2.82243888E-04  1.45348646E-06 -3.88633467E-05
 -7.15717422E-04 -9.70963986E-05  5.72286211E-05 -2.92534064E-02 -2.92356070E-02
 -2.92321625E-02 -8.93121776E-06 -6.41724751E-07 -2.00180676E-06 -7.46270365E-03
 -7.63475866E-03 -7.66468957E-03  9.17079948E-05  9.32875748E-06  1.54296598E-05
 -7.72486502E-02 -2.56768397E-03  3.50066846E-03  3.77283011E-03  2.01909526E-03
  1.70974547E-03  1.93901970E-06  2.79448380E-06 -6.60745462E-07 -7.72837161E-06
 -9.35547006E-06  1.84322344E-06  7.84170024E-05  6.29769165E-05 -4.53629867E-06
 -3.36463249E-04 -2.12050523E-04 -6.32658302E-06 -3.48353102E-03 -3.50759490E-03
 -3.49332858E-03 -1.53135941E-05  7.09885007E-07 -6.84186897E-07 -1.01910067E-03
 -7.80094275E-04 -9.22502610E-04  1.52916840E-04 -1.42489967E-05  5.07328670E-06
 -2.62118828E-02 -8.71423982E-04  1.18835378E-03  1.28083787E-03  6.84806784E-04
  5.82191238E-04  2.40136806E-06  1.28721242E-06  8.17452114E-07 -9.12225001E-06
 -4.81165971E-06 -2.61033248E-06  8.45053950E-05  4.31194235E-05  1.49725951E-05
 -3.47900742E-04 -1.74666299E-04 -4.35741189E-05 -1.17924730E-03 -1.19219672E-03
 -1.18796146E-03 -8.50914976E-06 -1.51895444E-05 -8.46570856E-06 -3.77603303E-04
 -2.53984998E-04 -2.93280343E-04  7.95491752E-05  1.55346649E-04  8.56807043E-05
  7.51946714E-01  2.49914864E-02 -3.40675570E-02 -3.67146206E-02 -1.96591135E-02
 -1.66096658E-02  1.29948201E-05  1.49994990E-05  5.85763487E-06 -4.10773260E-05
 -4.61757326E-05 -1.78181595E-05  2.23798561E-04  2.23411416E-04  8.11968023E-05
 -6.06135411E-04 -5.08740408E-04 -1.65586243E-04  3.40188152E-02  3.40073136E-02
  3.40008358E-02  8.80846149E-06  1.63419933E-06  2.20439943E-06  8.72638096E-03
  8.84441036E-03  8.90063564E-03 -8.35953789E-05 -1.49172294E-05 -1.62879596E-05
  1.03130950E-07  3.81353330E-07  2.11814774E-04  1.04793167E-04  1.67088575E-05
 -1.86879381E-06 -1.14967786E-04 -5.68828800E-05 -9.07104775E-06  3.01426347E-05
 -3.02275336E-05  1.73583659E-07 -4.70625850E-05 -2.65095617E-05 -1.75855956E-05
 -5.18752835E-01 -1.72404298E-02  2.35003269E-02  2.53259052E-02  1.35637618E-02
  1.14499063E-02  1.32580429E-05 -4.96037607E-06 -2.77997970E-06 -4.09342353E-05
  1.68482226E-05  8.38313813E-06  2.00439965E-04 -1.18268018E-04 -3.63772780E-05
 -4.64439454E-04  4.10635861E-04  6.64466088E-05 -2.34606250E-02 -2.34615123E-02
 -2.34563448E-02  1.72024114E-05  7.11599587E-07  3.70438561E-06 -6.07938568E-03
 -6.06189142E-03 -6.11505232E-03 -1.70837330E-04 -3.57786768E-06 -3.18155921E-05
  7.57986734E-01  2.51933382E-02 -3.43447160E-02 -3.70139636E-02 -1.98149006E-02
 -1.67570846E-02  6.37073970E-06 -1.79650542E-05  8.41344187E-06 -2.01441434E-05
  5.60614658E-05 -2.53775818E-05  1.10071709E-04 -2.89468343E-04  1.10872318E-04
 -2.99778499E-04  7.31057270E-04 -2.07495624E-04  3.42877709E-02  3.42956273E-02
  3.42756819E-02 -6.53169655E-06  1.88294854E-06 -3.26407721E-06  8.88291370E-03
  8.80865371E-03  9.00172566E-03  6.36704143E-05 -1.68934023E-05  2.52382063E-05
  1.17684038E-01  3.91221130E-03 -5.33461847E-03 -5.74964789E-03 -3.07503617E-03
 -2.61087927E-03  1.49704212E-06 -2.77862743E-06 -2.79683244E-06 -5.44572940E-06
  1.02632644E-05  8.41855045E-06  4.59461872E-05 -8.96254746E-05 -3.68015972E-05
 -1.80282267E-04  3.58241241E-04  7.02640649E-05  5.33309300E-03  5.32198976E-03
  5.32293762E-03  2.34658902E-06 -7.77149679E-06  1.76328812E-05  1.31686010E-03
  1.41783239E-03  1.41573382E-03 -1.94170542E-05  7.88253847E-05 -1.77501945E-04
 -3.64017909E-01 -1.20976554E-02  1.64897816E-02  1.77706088E-02  9.51842181E-03
  8.03136876E-03 -3.88773595E-06 -9.15391572E-06 -2.74030986E-06  1.08025467E-05
  2.95043272E-05  8.26454483E-06 -2.47882010E-05 -1.73323599E-04 -3.58402260E-05
 -5.01699427E-05  5.11447256E-04  6.52272075E-05 -1.64448135E-02 -1.64781680E-02
 -1.64599312E-02 -6.78909137E-07 -1.48189141E-06  1.76197957E-06 -4.43048166E-03
 -4.09804625E-03 -4.28012879E-03  2.62352700E-06  8.54922081E-06 -1.52093119E-05
 -3.63564739E-07 -1.35698197E-06  1.05015339E-04 -2.12358045E-04  5.86744501E-07
  6.59428897E-06 -5.69962887E-05  1.15263281E-04 -3.18307764E-07  4.61429674E-05
 -2.75484274E-05 -1.88874041E-05  2.42523479E-05 -1.30907159E-05  3.89921544E-05
 -2.41494994E-01 -8.02465389E-03  1.09360396E-02  1.17848298E-02  6.31681591E-03
  5.31401687E-03  5.81004659E-06 -1.08572504E-06 -4.05175393E-06 -1.76839002E-05
  3.21877111E-06  1.43229099E-05  7.99010264E-05 -1.24924528E-05 -1.12263830E-04
 -1.57382131E-04  1.60063510E-05  4.20512951E-04 -1.09128711E-02 -1.09073357E-02
 -1.09285061E-02 -1.06677023E-07  1.47194867E-05 -5.61007087E-06 -2.86683170E-03
 -2.91174090E-03 -2.70958784E-03  3.29085695E-06 -1.50136941E-04  5.45972876E-05
 -4.02505274E-01 -1.33760002E-02  1.82309144E-02  1.96465499E-02  1.05262175E-02
  8.87123041E-03 -2.57180491E-06  8.35190604E-06 -7.23507647E-06  7.62927219E-06
 -2.52742481E-05  2.39308452E-05 -2.99225935E-05  1.11280223E-04 -1.54050430E-04
  4.04258173E-05 -2.08649093E-04  4.96926439E-04 -1.81890357E-02 -1.81919661E-02
 -1.82148120E-02  2.87109684E-07 -1.83722566E-06  9.81874930E-06 -4.80854857E-03
 -4.78982715E-03 -4.55841916E-03  2.27476999E-06  1.89825028E-05 -9.84891800E-05
  8.49445377E-01  2.82338946E-02 -3.84910610E-02 -4.14829819E-02 -2.22043843E-02
 -1.87881765E-02  2.18011951E-06 -2.16626924E-06 -2.30911826E-05 -6.70869581E-06
  6.47036163E-06  7.17227117E-05  3.25100950E-05 -2.68032799E-05 -3.63053807E-04
 -7.45731437E-05  4.40776906E-05  8.92013710E-04  3.84198997E-02  3.84210905E-02
  3.84373464E-02 -8.01852872E-07 -1.25815341E-06 -6.37041462E-07  1.00307189E-02
  1.00200687E-02  9.86938991E-03  7.11482821E-06  1.10586979E-05  8.22130455E-06
 -2.19360850E-01 -7.28900338E-03  9.93321388E-03  1.07040802E-02  5.73814735E-03
  4.82501667E-03 -2.91756036E-06 -3.96930591E-06 -4.41170366E-06  8.67951760E-06
  1.19304482E-05  1.54108182E-05 -3.43717404E-05 -5.02310316E-05 -1.16967905E-04
  4.72293580E-05  8.33271768E-05  4.28809697E-04 -9.90802905E-03 -9.90766179E-03
 -9.92970505E-03 -1.22581205E-06 -5.39697163E-06 -1.30419181E-05 -2.63880469E-03
 -2.64379410E-03 -2.42630021E-03  5.87873616E-06  5.75330635E-05  1.30817604E-04
 -7.12606821E-07 -2.65935704E-06  1.52345029E-05  6.88746978E-06 -2.36305659E-04
  1.29245513E-05 -8.26707762E-06 -3.73752868E-06  1.28257289E-04  2.69968248E-05
  3.51831807E-05 -6.27547632E-05 -3.63300892E-06  1.22452803E-05 -1.86229276E-05
  4.94575245E-01  1.61966295E-02 -2.16433341E-02 -2.31835011E-02 -1.33936781E-02
 -7.87596522E-03 -1.69501840E-05  3.49928131E-06  3.90571871E-06  5.45177892E-05
 -1.12500489E-05 -1.25518869E-05 -1.77942374E-04  3.65223835E-05  4.05525542E-05
 -3.40199379E-04  7.16649998E-05  8.14153323E-05  2.14454452E-02  2.14614295E-02
  2.14611171E-02  4.05622588E-06  4.56575440E-06 -9.46999745E-07  5.30421367E-03
  5.04668462E-03  5.05083366E-03 -6.49602384E-05 -7.29815288E-05  1.51357702E-05
  4.97429352E-01  1.62914874E-02 -2.17726408E-02 -2.33228533E-02 -1.34682922E-02
 -7.93901107E-03  5.00007033E-06 -1.50458139E-05  8.13799868E-06 -1.60803974E-05
  4.83879966E-05 -2.61586399E-05  5.26392789E-05 -1.58401942E-04  8.50867037E-05
  9.88401094E-05 -2.97399715E-04  1.64826122E-04  2.15898002E-02  2.15782499E-02
  2.15871930E-02  4.99057560E-06 -2.71749156E-06  8.21422286E-06  5.09172036E-03
  5.27809962E-03  5.13239871E-03 -8.04738845E-05  4.37937696E-05 -1.32121814E-04
  5.03848841E-01  1.65048443E-02 -2.20634834E-02 -2.36362910E-02 -1.36361218E-02
 -8.08081643E-03  1.75406976E-06 -1.97316519E-06 -1.78034320E-05 -5.63928890E-06
  6.34701310E-06  5.72310680E-05  1.85550971E-05 -2.10169940E-05 -1.88040678E-04
  3.36767471E-05 -3.69162695E-05 -3.43771664E-04  2.18813209E-02  2.18812581E-02
  2.18636893E-02  2.36055211E-07  2.01389043E-06 -2.21523192E-06  5.14746500E-03
  5.14834588E-03  5.43242269E-03 -3.72284985E-06 -3.26108596E-05  3.61357260E-05
  4.93868016E-01  1.61731231E-02 -2.16112889E-02 -2.31489660E-02 -1.33751830E-02
 -7.86034200E-03  1.02400657E-05  1.33855610E-05  5.48540917E-06 -3.29403815E-05
 -4.30514210E-05 -1.76339603E-05  1.07594133E-04  1.40318589E-04  5.71294308E-05