549116                                                                  
Freq      RMP2-FC                                                     6-31G(d)            
Number of atoms                            I               21
Info1-9                                    I   N=           9
          33          31        1002           0           0         100
           6           2           1
Charge                                     I                0
Multiplicity                               I                1
Number of electrons                        I               74
Number of alpha electrons                  I               37
Number of beta electrons                   I               37
Number of basis functions                  I              172
Number of independent functions            I              172
Number of point charges in /Mol/           I                0
Number of translation vectors              I                0
Atomic numbers                             I   N=          21
           8           7           6           6           6           6
           6           6           6           6           1           1
           1           1           1           1           1           1
           1           1           1
Nuclear charges                            R   N=          21
  8.00000000E+00  7.00000000E+00  6.00000000E+00  6.00000000E+00  6.00000000E+00
  6.00000000E+00  6.00000000E+00  6.00000000E+00  6.00000000E+00  6.00000000E+00
  1.00000000E+00  1.00000000E+00  1.00000000E+00  1.00000000E+00  1.00000000E+00
  1.00000000E+00  1.00000000E+00  1.00000000E+00  1.00000000E+00  1.00000000E+00
  1.00000000E+00
Current cartesian coordinates              R   N=          63
  4.73726458E-01  4.23922814E+00 -2.24503387E-05 -2.90141449E-01 -7.39074775E-02
 -8.13936801E-06 -3.04088397E+00  4.14545819E-01 -1.11810432E-05 -4.25293371E+00
 -6.05544718E-01  2.40491065E+00 -4.25295041E+00 -6.05632214E-01 -2.40488780E+00
  1.33436195E+00  2.05884852E+00 -1.38401959E-05  5.78322444E-01 -2.50821141E+00
  1.02196212E-05  3.99241644E+00  1.42283302E+00 -9.08355893E-06  3.10340854E+00
 -3.05661841E+00  1.75821332E-05  4.84378253E+00 -1.01908182E+00  6.44480617E-06
 -3.16526593E+00  2.47365301E+00 -4.77721655E-05 -6.24633835E+00 -5.94809244E-02
  2.46596208E+00 -4.15960613E+00 -2.66968143E+00  2.49421316E+00 -3.31249312E+00
  1.70377226E-01  4.07212210E+00 -3.31251111E+00  1.70215303E-01 -4.07213459E+00
 -6.24635061E+00 -5.95539428E-02 -2.46595208E+00 -4.15964308E+00 -2.66977314E+00
 -2.49410973E+00 -8.59049675E-01 -3.97119650E+00  1.90867955E-05  5.28171697E+00
  3.01796699E+00 -1.65082291E-05  3.72305915E+00 -5.00925647E+00  3.21117618E-05
  6.86451755E+00 -1.39657570E+00  1.07214522E-05
Force Field                                I                0
Int Atom Types                             I   N=          21
           0           0           0           0           0           0
           0           0           0           0           0           0
           0           0           0           0           0           0
           0           0           0
MM charges                                 R   N=          21
  0.00000000E+00  0.00000000E+00  0.00000000E+00  0.00000000E+00  0.00000000E+00
  0.00000000E+00  0.00000000E+00  0.00000000E+00  0.00000000E+00  0.00000000E+00
  0.00000000E+00  0.00000000E+00  0.00000000E+00  0.00000000E+00  0.00000000E+00
  0.00000000E+00  0.00000000E+00  0.00000000E+00  0.00000000E+00  0.00000000E+00
  0.00000000E+00
Integer atomic weights                     I   N=          21
          16          14          12          12          12          12
          12          12          12          12           1           1
           1           1           1           1           1           1
           1           1           1
Real atomic weights                        R   N=          21
  1.59949146E+01  1.40030740E+01  1.20000000E+01  1.20000000E+01  1.20000000E+01
  1.20000000E+01  1.20000000E+01  1.20000000E+01  1.20000000E+01  1.20000000E+01
  1.00782504E+00  1.00782504E+00  1.00782504E+00  1.00782504E+00  1.00782504E+00
  1.00782504E+00  1.00782504E+00  1.00782504E+00  1.00782504E+00  1.00782504E+00
  1.00782504E+00
Atom fragment info                         I   N=          21
           0           0           0           0           0           0
           0           0           0           0           0           0
           0           0           0           0           0           0
           0           0           0
Atom residue num                           I   N=          21
           0           0           0           0           0           0
           0           0           0           0           0           0
           0           0           0           0           0           0
           0           0           0
Nuclear spins                              I   N=          21
           0           2           0           0           0           0
           0           0           0           0           1           1
           1           1           1           1           1           1
           1           1           1
Nuclear ZEff                               R   N=          21
 -5.60000000E+00 -4.55000000E+00 -3.60000000E+00 -3.60000000E+00 -3.60000000E+00
 -3.60000000E+00 -3.60000000E+00 -3.60000000E+00 -3.60000000E+00 -3.60000000E+00
 -1.00000000E+00 -1.00000000E+00 -1.00000000E+00 -1.00000000E+00 -1.00000000E+00
 -1.00000000E+00 -1.00000000E+00 -1.00000000E+00 -1.00000000E+00 -1.00000000E+00
 -1.00000000E+00
Nuclear QMom                               R   N=          21
  0.00000000E+00  2.04400000E+00  0.00000000E+00  0.00000000E+00  0.00000000E+00
  0.00000000E+00  0.00000000E+00  0.00000000E+00  0.00000000E+00  0.00000000E+00
  0.00000000E+00  0.00000000E+00  0.00000000E+00  0.00000000E+00  0.00000000E+00
  0.00000000E+00  0.00000000E+00  0.00000000E+00  0.00000000E+00  0.00000000E+00
  0.00000000E+00
Nuclear GFac                               R   N=          21
  0.00000000E+00  4.03761000E-01  0.00000000E+00  0.00000000E+00  0.00000000E+00
  0.00000000E+00  0.00000000E+00  0.00000000E+00  0.00000000E+00  0.00000000E+00
  2.79284600E+00  2.79284600E+00  2.79284600E+00  2.79284600E+00  2.79284600E+00
  2.79284600E+00  2.79284600E+00  2.79284600E+00  2.79284600E+00  2.79284600E+00
  2.79284600E+00
MicOpt                                     I   N=          21
          -1          -1          -1          -1          -1          -1
          -1          -1          -1          -1          -1          -1
          -1          -1          -1          -1          -1          -1
          -1          -1          -1
Number of contracted shells                I               62
Number of primitive shells                 I              154
Pure/Cartesian d shells                    I                1
Pure/Cartesian f shells                    I                0
Highest angular momentum                   I                2
Largest degree of contraction              I                6
Shell types                                I   N=          62
           0          -1          -1           2           0          -1
          -1           2           0          -1          -1           2
           0          -1          -1           2           0          -1
          -1           2           0          -1          -1           2
           0          -1          -1           2           0          -1
          -1           2           0          -1          -1           2
           0          -1          -1           2           0           0
           0           0           0           0           0           0
           0           0           0           0           0           0
           0           0           0           0           0           0
           0           0
Number of primitives per shell             I   N=          62
           6           3           1           1           6           3
           1           1           6           3           1           1
           6           3           1           1           6           3
           1           1           6           3           1           1
           6           3           1           1           6           3
           1           1           6           3           1           1
           6           3           1           1           3           1
           3           1           3           1           3           1
           3           1           3           1           3           1
           3           1           3           1           3           1
           3           1
Shell to atom map                          I   N=          62
           1           1           1           1           2           2
           2           2           3           3           3           3
           4           4           4           4           5           5
           5           5           6           6           6           6
           7           7           7           7           8           8
           8           8           9           9           9           9
          10          10          10          10          11          11
          12          12          13          13          14          14
          15          15          16          16          17          17
          18          18          19          19          20          20
          21          21
Primitive exponents                        R   N=         154
  5.48467166E+03  8.25234946E+02  1.88046958E+02  5.29645000E+01  1.68975704E+01
  5.79963534E+00  1.55396162E+01  3.59993359E+00  1.01376175E+00  2.70005823E-01
  8.00000000E-01  4.17351146E+03  6.27457911E+02  1.42902093E+02  4.02343293E+01
  1.28202129E+01  4.39043701E+00  1.16263619E+01  2.71627981E+00  7.72218397E-01
  2.12031498E-01  8.00000000E-01  3.04752488E+03  4.57369518E+02  1.03948685E+02
  2.92101553E+01  9.28666296E+00  3.16392696E+00  7.86827235E+00  1.88128854E+00
  5.44249258E-01  1.68714478E-01  8.00000000E-01  3.04752488E+03  4.57369518E+02
  1.03948685E+02  2.92101553E+01  9.28666296E+00  3.16392696E+00  7.86827235E+00
  1.88128854E+00  5.44249258E-01  1.68714478E-01  8.00000000E-01  3.04752488E+03
  4.57369518E+02  1.03948685E+02  2.92101553E+01  9.28666296E+00  3.16392696E+00
  7.86827235E+00  1.88128854E+00  5.44249258E-01  1.68714478E-01  8.00000000E-01
  3.04752488E+03  4.57369518E+02  1.03948685E+02  2.92101553E+01  9.28666296E+00
  3.16392696E+00  7.86827235E+00  1.88128854E+00  5.44249258E-01  1.68714478E-01
  8.00000000E-01  3.04752488E+03  4.57369518E+02  1.03948685E+02  2.92101553E+01
  9.28666296E+00  3.16392696E+00  7.86827235E+00  1.88128854E+00  5.44249258E-01
  1.68714478E-01  8.00000000E-01  3.04752488E+03  4.57369518E+02  1.03948685E+02
  2.92101553E+01  9.28666296E+00  3.16392696E+00  7.86827235E+00  1.88128854E+00
  5.44249258E-01  1.68714478E-01  8.00000000E-01  3.04752488E+03  4.57369518E+02
  1.03948685E+02  2.92101553E+01  9.28666296E+00  3.16392696E+00  7.86827235E+00
  1.88128854E+00  5.44249258E-01  1.68714478E-01  8.00000000E-01  3.04752488E+03
  4.57369518E+02  1.03948685E+02  2.92101553E+01  9.28666296E+00  3.16392696E+00
  7.86827235E+00  1.88128854E+00  5.44249258E-01  1.68714478E-01  8.00000000E-01
  1.87311370E+01  2.82539436E+00  6.40121692E-01  1.61277759E-01  1.87311370E+01
  2.82539436E+00  6.40121692E-01  1.61277759E-01  1.87311370E+01  2.82539436E+00
  6.40121692E-01  1.61277759E-01  1.87311370E+01  2.82539436E+00  6.40121692E-01
  1.61277759E-01  1.87311370E+01  2.82539436E+00  6.40121692E-01  1.61277759E-01
  1.87311370E+01  2.82539436E+00  6.40121692E-01  1.61277759E-01  1.87311370E+01
  2.82539436E+00  6.40121692E-01  1.61277759E-01  1.87311370E+01  2.82539436E+00
  6.40121692E-01  1.61277759E-01  1.87311370E+01  2.82539436E+00  6.40121692E-01
  1.61277759E-01  1.87311370E+01  2.82539436E+00  6.40121692E-01  1.61277759E-01
  1.87311370E+01  2.82539436E+00  6.40121692E-01  1.61277759E-01
Contraction coefficients                   R   N=         154
  1.83107443E-03  1.39501722E-02  6.84450781E-02  2.32714336E-01  4.70192898E-01
  3.58520853E-01 -1.10777550E-01 -1.48026263E-01  1.13076702E+00  1.00000000E+00
  1.00000000E+00  1.83477216E-03  1.39946270E-02  6.85865518E-02  2.32240873E-01
  4.69069948E-01  3.60455199E-01 -1.14961182E-01 -1.69117479E-01  1.14585195E+00
  1.00000000E+00  1.00000000E+00  1.83473713E-03  1.40373228E-02  6.88426223E-02
  2.32184443E-01  4.67941348E-01  3.62311985E-01 -1.19332420E-01 -1.60854152E-01
  1.14345644E+00  1.00000000E+00  1.00000000E+00  1.83473713E-03  1.40373228E-02
  6.88426223E-02  2.32184443E-01  4.67941348E-01  3.62311985E-01 -1.19332420E-01
 -1.60854152E-01  1.14345644E+00  1.00000000E+00  1.00000000E+00  1.83473713E-03
  1.40373228E-02  6.88426223E-02  2.32184443E-01  4.67941348E-01  3.62311985E-01
 -1.19332420E-01 -1.60854152E-01  1.14345644E+00  1.00000000E+00  1.00000000E+00
  1.83473713E-03  1.40373228E-02  6.88426223E-02  2.32184443E-01  4.67941348E-01
  3.62311985E-01 -1.19332420E-01 -1.60854152E-01  1.14345644E+00  1.00000000E+00
  1.00000000E+00  1.83473713E-03  1.40373228E-02  6.88426223E-02  2.32184443E-01
  4.67941348E-01  3.62311985E-01 -1.19332420E-01 -1.60854152E-01  1.14345644E+00
  1.00000000E+00  1.00000000E+00  1.83473713E-03  1.40373228E-02  6.88426223E-02
  2.32184443E-01  4.67941348E-01  3.62311985E-01 -1.19332420E-01 -1.60854152E-01
  1.14345644E+00  1.00000000E+00  1.00000000E+00  1.83473713E-03  1.40373228E-02
  6.88426223E-02  2.32184443E-01  4.67941348E-01  3.62311985E-01 -1.19332420E-01
 -1.60854152E-01  1.14345644E+00  1.00000000E+00  1.00000000E+00  1.83473713E-03
  1.40373228E-02  6.88426223E-02  2.32184443E-01  4.67941348E-01  3.62311985E-01
 -1.19332420E-01 -1.60854152E-01  1.14345644E+00  1.00000000E+00  1.00000000E+00
  3.34946043E-02  2.34726953E-01  8.13757326E-01  1.00000000E+00  3.34946043E-02
  2.34726953E-01  8.13757326E-01  1.00000000E+00  3.34946043E-02  2.34726953E-01
  8.13757326E-01  1.00000000E+00  3.34946043E-02  2.34726953E-01  8.13757326E-01
  1.00000000E+00  3.34946043E-02  2.34726953E-01  8.13757326E-01  1.00000000E+00
  3.34946043E-02  2.34726953E-01  8.13757326E-01  1.00000000E+00  3.34946043E-02
  2.34726953E-01  8.13757326E-01  1.00000000E+00  3.34946043E-02  2.34726953E-01
  8.13757326E-01  1.00000000E+00  3.34946043E-02  2.34726953E-01  8.13757326E-01
  1.00000000E+00  3.34946043E-02  2.34726953E-01  8.13757326E-01  1.00000000E+00
  3.34946043E-02  2.34726953E-01  8.13757326E-01  1.00000000E+00
P(S=P) Contraction coefficients            R   N=         154
  0.00000000E+00  0.00000000E+00  0.00000000E+00  0.00000000E+00  0.00000000E+00
  0.00000000E+00  7.08742682E-02  3.39752839E-01  7.27158577E-01  1.00000000E+00
  0.00000000E+00  0.00000000E+00  0.00000000E+00  0.00000000E+00  0.00000000E+00
  0.00000000E+00  0.00000000E+00  6.75797439E-02  3.23907296E-01  7.40895140E-01
  1.00000000E+00  0.00000000E+00  0.00000000E+00  0.00000000E+00  0.00000000E+00
  0.00000000E+00  0.00000000E+00  0.00000000E+00  6.89990666E-02  3.16423961E-01
  7.44308291E-01  1.00000000E+00  0.00000000E+00  0.00000000E+00  0.00000000E+00
  0.00000000E+00  0.00000000E+00  0.00000000E+00  0.00000000E+00  6.89990666E-02
  3.16423961E-01  7.44308291E-01  1.00000000E+00  0.00000000E+00  0.00000000E+00
  0.00000000E+00  0.00000000E+00  0.00000000E+00  0.00000000E+00  0.00000000E+00
  6.89990666E-02  3.16423961E-01  7.44308291E-01  1.00000000E+00  0.00000000E+00
  0.00000000E+00  0.00000000E+00  0.00000000E+00  0.00000000E+00  0.00000000E+00
  0.00000000E+00  6.89990666E-02  3.16423961E-01  7.44308291E-01  1.00000000E+00
  0.00000000E+00  0.00000000E+00  0.00000000E+00  0.00000000E+00  0.00000000E+00
  0.00000000E+00  0.00000000E+00  6.89990666E-02  3.16423961E-01  7.44308291E-01
  1.00000000E+00  0.00000000E+00  0.00000000E+00  0.00000000E+00  0.00000000E+00
  0.00000000E+00  0.00000000E+00  0.00000000E+00  6.89990666E-02  3.16423961E-01
  7.44308291E-01  1.00000000E+00  0.00000000E+00  0.00000000E+00  0.00000000E+00
  0.00000000E+00  0.00000000E+00  0.00000000E+00  0.00000000E+00  6.89990666E-02
  3.16423961E-01  7.44308291E-01  1.00000000E+00  0.00000000E+00  0.00000000E+00
  0.00000000E+00  0.00000000E+00  0.00000000E+00  0.00000000E+00  0.00000000E+00
  6.89990666E-02  3.16423961E-01  7.44308291E-01  1.00000000E+00  0.00000000E+00
  0.00000000E+00  0.00000000E+00  0.00000000E+00  0.00000000E+00  0.00000000E+00
  0.00000000E+00  0.00000000E+00  0.00000000E+00  0.00000000E+00  0.00000000E+00
  0.00000000E+00  0.00000000E+00  0.00000000E+00  0.00000000E+00  0.00000000E+00
  0.00000000E+00  0.00000000E+00  0.00000000E+00  0.00000000E+00  0.00000000E+00
  0.00000000E+00  0.00000000E+00  0.00000000E+00  0.00000000E+00  0.00000000E+00
  0.00000000E+00  0.00000000E+00  0.00000000E+00  0.00000000E+00  0.00000000E+00
  0.00000000E+00  0.00000000E+00  0.00000000E+00  0.00000000E+00  0.00000000E+00
  0.00000000E+00  0.00000000E+00  0.00000000E+00  0.00000000E+00  0.00000000E+00
  0.00000000E+00  0.00000000E+00  0.00000000E+00  0.00000000E+00
Coordinates of each shell                  R   N=         186
  4.73726458E-01  4.23922814E+00 -2.24503387E-05  4.73726458E-01  4.23922814E+00
 -2.24503387E-05  4.73726458E-01  4.23922814E+00 -2.24503387E-05  4.73726458E-01
  4.23922814E+00 -2.24503387E-05 -2.90141449E-01 -7.39074775E-02 -8.13936801E-06
 -2.90141449E-01 -7.39074775E-02 -8.13936801E-06 -2.90141449E-01 -7.39074775E-02
 -8.13936801E-06 -2.90141449E-01 -7.39074775E-02 -8.13936801E-06 -3.04088397E+00
  4.14545819E-01 -1.11810432E-05 -3.04088397E+00  4.14545819E-01 -1.11810432E-05
 -3.04088397E+00  4.14545819E-01 -1.11810432E-05 -3.04088397E+00  4.14545819E-01
 -1.11810432E-05 -4.25293371E+00 -6.05544718E-01  2.40491065E+00 -4.25293371E+00
 -6.05544718E-01  2.40491065E+00 -4.25293371E+00 -6.05544718E-01  2.40491065E+00
 -4.25293371E+00 -6.05544718E-01  2.40491065E+00 -4.25295041E+00 -6.05632214E-01
 -2.40488780E+00 -4.25295041E+00 -6.05632214E-01 -2.40488780E+00 -4.25295041E+00
 -6.05632214E-01 -2.40488780E+00 -4.25295041E+00 -6.05632214E-01 -2.40488780E+00
  1.33436195E+00  2.05884852E+00 -1.38401959E-05  1.33436195E+00  2.05884852E+00
 -1.38401959E-05  1.33436195E+00  2.05884852E+00 -1.38401959E-05  1.33436195E+00
  2.05884852E+00 -1.38401959E-05  5.78322444E-01 -2.50821141E+00  1.02196212E-05
  5.78322444E-01 -2.50821141E+00  1.02196212E-05  5.78322444E-01 -2.50821141E+00
  1.02196212E-05  5.78322444E-01 -2.50821141E+00  1.02196212E-05  3.99241644E+00
  1.42283302E+00 -9.08355893E-06  3.99241644E+00  1.42283302E+00 -9.08355893E-06
  3.99241644E+00  1.42283302E+00 -9.08355893E-06  3.99241644E+00  1.42283302E+00
 -9.08355893E-06  3.10340854E+00 -3.05661841E+00  1.75821332E-05  3.10340854E+00
 -3.05661841E+00  1.75821332E-05  3.10340854E+00 -3.05661841E+00  1.75821332E-05
  3.10340854E+00 -3.05661841E+00  1.75821332E-05  4.84378253E+00 -1.01908182E+00
  6.44480617E-06  4.84378253E+00 -1.01908182E+00  6.44480617E-06  4.84378253E+00
 -1.01908182E+00  6.44480617E-06  4.84378253E+00 -1.01908182E+00  6.44480617E-06
 -3.16526593E+00  2.47365301E+00 -4.77721655E-05 -3.16526593E+00  2.47365301E+00
 -4.77721655E-05 -6.24633835E+00 -5.94809244E-02  2.46596208E+00 -6.24633835E+00
 -5.94809244E-02  2.46596208E+00 -4.15960613E+00 -2.66968143E+00  2.49421316E+00
 -4.15960613E+00 -2.66968143E+00  2.49421316E+00 -3.31249312E+00  1.70377226E-01
  4.07212210E+00 -3.31249312E+00  1.70377226E-01  4.07212210E+00 -3.31251111E+00
  1.70215303E-01 -4.07213459E+00 -3.31251111E+00  1.70215303E-01 -4.07213459E+00
 -6.24635061E+00 -5.95539428E-02 -2.46595208E+00 -6.24635061E+00 -5.95539428E-02
 -2.46595208E+00 -4.15964308E+00 -2.66977314E+00 -2.49410973E+00 -4.15964308E+00
 -2.66977314E+00 -2.49410973E+00 -8.59049675E-01 -3.97119650E+00  1.90867955E-05
 -8.59049675E-01 -3.97119650E+00  1.90867955E-05  5.28171697E+00  3.01796699E+00
 -1.65082291E-05  5.28171697E+00  3.01796699E+00 -1.65082291E-05  3.72305915E+00
 -5.00925647E+00  3.21117618E-05  3.72305915E+00 -5.00925647E+00  3.21117618E-05
  6.86451755E+00 -1.39657570E+00  1.07214522E-05  6.86451755E+00 -1.39657570E+00
  1.07214522E-05
Constraint Structure                       R   N=          63
  4.73726458E-01  4.23922814E+00 -2.24503387E-05 -2.90141449E-01 -7.39074775E-02
 -8.13936801E-06 -3.04088397E+00  4.14545819E-01 -1.11810432E-05 -4.25293371E+00
 -6.05544718E-01  2.40491065E+00 -4.25295041E+00 -6.05632214E-01 -2.40488780E+00
  1.33436195E+00  2.05884852E+00 -1.38401959E-05  5.78322444E-01 -2.50821141E+00
  1.02196212E-05  3.99241644E+00  1.42283302E+00 -9.08355893E-06  3.10340854E+00
 -3.05661841E+00  1.75821332E-05  4.84378253E+00 -1.01908182E+00  6.44480617E-06
 -3.16526593E+00  2.47365301E+00 -4.77721655E-05 -6.24633835E+00 -5.94809244E-02
  2.46596208E+00 -4.15960613E+00 -2.66968143E+00  2.49421316E+00 -3.31249312E+00
  1.70377226E-01  4.07212210E+00 -3.31251111E+00  1.70215303E-01 -4.07213459E+00
 -6.24635061E+00 -5.95539428E-02 -2.46595208E+00 -4.15964308E+00 -2.66977314E+00
 -2.49410973E+00 -8.59049675E-01 -3.97119650E+00  1.90867955E-05  5.28171697E+00
  3.01796699E+00 -1.65082291E-05  3.72305915E+00 -5.00925647E+00  3.21117618E-05
  6.86451755E+00 -1.39657570E+00  1.07214522E-05
Num ILSW                                   I              100
ILSW                                       I   N=         100
           0           1           0           0           2           0
           0           0           0           0           0          -1
           0           0           0           0           0           0
           0           0           0           0           1           0
           1           0           0           0           0           0
           0           0      100000           0          -1           0
           0           0           0           0           0           0
           0           0           0           1           1           0
           0           0           1           0           0           0
           0           0           4          40           0           0
           0           0           0           0           0           0
           0           0           0           0           0           0
           0           0           0           0           0           0
           0           0           0           0           0           0
           0           0           0           0           0           0
           0           0           0           0           0           0
           0           0           0           0
Num RLSW                                   I               40
RLSW                                       R   N=          40
  1.00000000E+00  1.00000000E+00  1.00000000E+00  1.00000000E+00  1.00000000E+00
  0.00000000E+00  0.00000000E+00  1.00000000E+00  0.00000000E+00  0.00000000E+00
  0.00000000E+00  0.00000000E+00  1.00000000E+00  0.00000000E+00  0.00000000E+00
  0.00000000E+00  0.00000000E+00  1.00000000E+00  0.00000000E+00  0.00000000E+00
  0.00000000E+00  0.00000000E+00  1.00000000E+00  0.00000000E+00  0.00000000E+00
  0.00000000E+00  0.00000000E+00  1.00000000E+00  0.00000000E+00  0.00000000E+00
  0.00000000E+00  0.00000000E+00  0.00000000E+00  0.00000000E+00  0.00000000E+00
  0.00000000E+00  0.00000000E+00  0.00000000E+00  1.00000000E+00  1.00000000E+00
MxBond                                     I                4
NBond                                      I   N=          21
           1           3           4           4           4           3
           3           3           3           3           1           1
           1           1           1           1           1           1
           1           1           1
IBond                                      I   N=          84
           6           0           0           0           3           6
           7           0           2           4           5          11
           3          12          13          14           3          15
          16          17           1           2           8           0
           2           9          18           0           6          10
          19           0           7          10          20           0
           8           9          21           0           3           0
           0           0           4           0           0           0
           4           0           0           0           4           0
           0           0           5           0           0           0
           5           0           0           0           5           0
           0           0           7           0           0           0
           8           0           0           0           9           0
           0           0          10           0           0           0
RBond                                      R   N=          84
  2.00000000E+00  0.00000000E+00  0.00000000E+00  0.00000000E+00  1.00000000E+00
  1.00000000E+00  1.00000000E+00  0.00000000E+00  1.00000000E+00  1.00000000E+00
  1.00000000E+00  1.00000000E+00  1.00000000E+00  1.00000000E+00  1.00000000E+00
  1.00000000E+00  1.00000000E+00  1.00000000E+00  1.00000000E+00  1.00000000E+00
  2.00000000E+00  1.00000000E+00  1.00000000E+00  0.00000000E+00  1.00000000E+00
  2.00000000E+00  1.00000000E+00  0.00000000E+00  1.00000000E+00  2.00000000E+00
  1.00000000E+00  0.00000000E+00  2.00000000E+00  1.00000000E+00  1.00000000E+00
  0.00000000E+00  2.00000000E+00  1.00000000E+00  1.00000000E+00  0.00000000E+00
  1.00000000E+00  0.00000000E+00  0.00000000E+00  0.00000000E+00  1.00000000E+00
  0.00000000E+00  0.00000000E+00  0.00000000E+00  1.00000000E+00  0.00000000E+00
  0.00000000E+00  0.00000000E+00  1.00000000E+00  0.00000000E+00  0.00000000E+00
  0.00000000E+00  1.00000000E+00  0.00000000E+00  0.00000000E+00  0.00000000E+00
  1.00000000E+00  0.00000000E+00  0.00000000E+00  0.00000000E+00  1.00000000E+00
  0.00000000E+00  0.00000000E+00  0.00000000E+00  1.00000000E+00  0.00000000E+00
  0.00000000E+00  0.00000000E+00  1.00000000E+00  0.00000000E+00  0.00000000E+00
  0.00000000E+00  1.00000000E+00  0.00000000E+00  0.00000000E+00  0.00000000E+00
  1.00000000E+00  0.00000000E+00  0.00000000E+00  0.00000000E+00
Virial Ratio                               R      2.002247803039302E+00
SCF Energy                                 R     -4.386631676025895E+02
MP2 Energy                                 R     -4.400324752446796E+02
Total Energy                               R     -4.400324752446796E+02
Post-SCF wavefunction norm                 R      1.711133823750154E+00
RMS Force                                  R      4.893477699623167E-08
RMS Density                                R      1.458772097276132E-09
External E-field                           R   N=          35
  0.00000000E+00  0.00000000E+00  0.00000000E+00  0.00000000E+00  0.00000000E+00
  0.00000000E+00  0.00000000E+00  0.00000000E+00  0.00000000E+00  0.00000000E+00
  0.00000000E+00  0.00000000E+00  0.00000000E+00  0.00000000E+00  0.00000000E+00
  0.00000000E+00  0.00000000E+00  0.00000000E+00  0.00000000E+00  0.00000000E+00
  0.00000000E+00  0.00000000E+00  0.00000000E+00  0.00000000E+00  0.00000000E+00
  0.00000000E+00  0.00000000E+00  0.00000000E+00  0.00000000E+00  0.00000000E+00
  0.00000000E+00  0.00000000E+00  0.00000000E+00  0.00000000E+00  0.00000000E+00
IOpCl                                      I                0
IROHF                                      I                0
Alpha Orbital Energies                     R   N=         172
 -2.05071599E+01 -1.56234617E+01 -1.13486030E+01 -1.13052824E+01 -1.12730622E+01
 -1.12673731E+01 -1.12374376E+01 -1.12321215E+01 -1.12284876E+01 -1.12284679E+01
 -1.36141526E+00 -1.27351298E+00 -1.11903300E+00 -1.04925206E+00 -1.01864091E+00
 -9.49367297E-01 -8.89621758E-01 -8.52188104E-01 -8.00974134E-01 -7.07997391E-01
 -6.95039644E-01 -6.51640206E-01 -6.37917853E-01 -6.23808280E-01 -6.10785432E-01
 -5.97858965E-01 -5.60708031E-01 -5.60380114E-01 -5.45328259E-01 -5.39865903E-01
 -5.20460832E-01 -5.01770399E-01 -4.84572168E-01 -4.67164617E-01 -4.08571131E-01
 -4.01506569E-01 -2.99608926E-01  1.02035143E-01  1.73004652E-01  2.12042725E-01
  2.40057204E-01  2.60842659E-01  2.85095829E-01  2.85903753E-01  3.01678851E-01
  3.22243528E-01  3.32686544E-01  3.35651156E-01  3.42294794E-01  3.50375317E-01
  3.59230883E-01  3.67191040E-01  3.77717265E-01  4.40481618E-01  4.49928706E-01
  4.73165420E-01  4.85741676E-01  5.10553487E-01  5.13285227E-01  6.29657572E-01
  6.74305189E-01  7.01193062E-01  7.06153659E-01  7.15690487E-01  7.40437787E-01
  7.49243978E-01  7.66538582E-01  7.89240269E-01  8.04027973E-01  8.19104694E-01
  8.24899818E-01  8.32164238E-01  8.67166912E-01  8.84287706E-01  9.18131461E-01
  9.37497048E-01  9.43700409E-01  9.52413766E-01  1.00539220E+00  1.02425823E+00
  1.03242304E+00  1.05120698E+00  1.05913898E+00  1.09024527E+00  1.10524291E+00
  1.11371883E+00  1.14385727E+00  1.14417900E+00  1.16718815E+00  1.16836997E+00
  1.18302114E+00  1.19785245E+00  1.19902565E+00  1.21391246E+00  1.22612521E+00
  1.23638013E+00  1.24704415E+00  1.24922982E+00  1.31365827E+00  1.34790660E+00
  1.38046096E+00  1.38700358E+00  1.41124677E+00  1.46101080E+00  1.49965352E+00
  1.53878470E+00  1.60400860E+00  1.62548528E+00  1.67647681E+00  1.68101372E+00
  1.68572024E+00  1.70908976E+00  1.73789993E+00  1.75437321E+00  1.77249122E+00
  1.80083067E+00  1.94592637E+00  1.97634323E+00  2.01058984E+00  2.04106746E+00
  2.04191862E+00  2.09044641E+00  2.14869519E+00  2.16451218E+00  2.21042547E+00
  2.22194437E+00  2.23667482E+00  2.25735875E+00  2.26827774E+00  2.30285246E+00
  2.32350676E+00  2.36300586E+00  2.39372294E+00  2.40586725E+00  2.42204524E+00
  2.44342338E+00  2.45949457E+00  2.49795699E+00  2.50563852E+00  2.56733057E+00