10690                                                                   
Freq      RMP2-FC                                                     6-31G(d)            
Number of atoms                            I               25
Info1-9                                    I   N=           9
          37          35        1002           0           0         100
           6           2           1
Charge                                     I                0
Multiplicity                               I                1
Number of electrons                        I              104
Number of alpha electrons                  I               52
Number of beta electrons                   I               52
Number of basis functions                  I              219
Number of independent functions            I              219
Number of point charges in /Mol/           I                0
Number of translation vectors              I                0
Atomic numbers                             I   N=          25
           8           8           8           8           8           8
           8           6           6           6           6           6
           6           1           1           1           1           1
           1           1           1           1           1           1
           1
Nuclear charges                            R   N=          25
  8.00000000E+00  8.00000000E+00  8.00000000E+00  8.00000000E+00  8.00000000E+00
  8.00000000E+00  8.00000000E+00  6.00000000E+00  6.00000000E+00  6.00000000E+00
  6.00000000E+00  6.00000000E+00  6.00000000E+00  1.00000000E+00  1.00000000E+00
  1.00000000E+00  1.00000000E+00  1.00000000E+00  1.00000000E+00  1.00000000E+00
  1.00000000E+00  1.00000000E+00  1.00000000E+00  1.00000000E+00  1.00000000E+00
Current cartesian coordinates              R   N=          75
 -2.57417591E+00 -3.23495996E+00 -1.98178597E+00  2.50401226E+00 -2.85315770E+00
 -1.63670657E+00 -5.70751527E+00 -1.31757831E+00  1.51397291E+00  2.64577227E+00
 -6.98879727E-01  3.38858352E+00 -6.41284533E+00  3.40284411E+00 -2.54461825E-01
  4.92651846E+00  2.90932830E+00 -1.87807600E+00  6.97774135E+00  2.49279802E-01
  8.04973918E-01 -1.55182726E+00 -1.82356720E+00  9.01393770E-02  9.36577387E-01
 -7.88903716E-01 -8.99536158E-01 -3.48223416E+00  1.19678706E-01  9.74468569E-01
  2.43040660E+00  6.56416698E-01  1.10304937E+00 -4.14297174E+00  2.11081689E+00
 -9.97106280E-01  5.03862852E+00  1.22442638E+00  4.76129963E-02 -1.13418328E+00
 -3.08664696E+00  1.68091090E+00  5.84840560E-01  4.58627434E-01 -2.52596087E+00
 -2.79242424E+00  1.03755902E+00  2.71320941E+00  1.48315907E+00  2.44756028E+00
  1.53254892E+00 -4.58382020E+00  1.17972717E+00 -2.78321730E+00 -2.58767924E+00
  3.44732285E+00 -1.30283352E+00 -4.23995533E+00 -3.77721597E+00 -1.39556102E+00
  1.39513523E+00 -3.99666610E+00 -2.57020002E+00 -7.09693354E+00 -1.05836386E-01
  1.36824712E+00  4.03498848E+00 -1.88703824E+00  3.12734121E+00 -5.96932712E+00
  4.56000742E+00  1.10484296E+00  6.65866089E+00  3.07438084E+00 -2.51309502E+00
Force Field                                I                0
Int Atom Types                             I   N=          25
           0           0           0           0           0           0
           0           0           0           0           0           0
           0           0           0           0           0           0
           0           0           0           0           0           0
           0
MM charges                                 R   N=          25
  0.00000000E+00  0.00000000E+00  0.00000000E+00  0.00000000E+00  0.00000000E+00
  0.00000000E+00  0.00000000E+00  0.00000000E+00  0.00000000E+00  0.00000000E+00
  0.00000000E+00  0.00000000E+00  0.00000000E+00  0.00000000E+00  0.00000000E+00
  0.00000000E+00  0.00000000E+00  0.00000000E+00  0.00000000E+00  0.00000000E+00
  0.00000000E+00  0.00000000E+00  0.00000000E+00  0.00000000E+00  0.00000000E+00
Integer atomic weights                     I   N=          25
          16          16          16          16          16          16
          16          12          12          12          12          12
          12           1           1           1           1           1
           1           1           1           1           1           1
           1
Real atomic weights                        R   N=          25
  1.59949146E+01  1.59949146E+01  1.59949146E+01  1.59949146E+01  1.59949146E+01
  1.59949146E+01  1.59949146E+01  1.20000000E+01  1.20000000E+01  1.20000000E+01
  1.20000000E+01  1.20000000E+01  1.20000000E+01  1.00782504E+00  1.00782504E+00
  1.00782504E+00  1.00782504E+00  1.00782504E+00  1.00782504E+00  1.00782504E+00
  1.00782504E+00  1.00782504E+00  1.00782504E+00  1.00782504E+00  1.00782504E+00
Atom fragment info                         I   N=          25
           0           0           0           0           0           0
           0           0           0           0           0           0
           0           0           0           0           0           0
           0           0           0           0           0           0
           0
Atom residue num                           I   N=          25
           0           0           0           0           0           0
           0           0           0           0           0           0
           0           0           0           0           0           0
           0           0           0           0           0           0
           0
Nuclear spins                              I   N=          25
           0           0           0           0           0           0
           0           0           0           0           0           0
           0           1           1           1           1           1
           1           1           1           1           1           1
           1
Nuclear ZEff                               R   N=          25
 -5.60000000E+00 -5.60000000E+00 -5.60000000E+00 -5.60000000E+00 -5.60000000E+00
 -5.60000000E+00 -5.60000000E+00 -3.60000000E+00 -3.60000000E+00 -3.60000000E+00
 -3.60000000E+00 -3.60000000E+00 -3.60000000E+00 -1.00000000E+00 -1.00000000E+00
 -1.00000000E+00 -1.00000000E+00 -1.00000000E+00 -1.00000000E+00 -1.00000000E+00
 -1.00000000E+00 -1.00000000E+00 -1.00000000E+00 -1.00000000E+00 -1.00000000E+00
Nuclear QMom                               R   N=          25
  0.00000000E+00  0.00000000E+00  0.00000000E+00  0.00000000E+00  0.00000000E+00
  0.00000000E+00  0.00000000E+00  0.00000000E+00  0.00000000E+00  0.00000000E+00
  0.00000000E+00  0.00000000E+00  0.00000000E+00  0.00000000E+00  0.00000000E+00
  0.00000000E+00  0.00000000E+00  0.00000000E+00  0.00000000E+00  0.00000000E+00
  0.00000000E+00  0.00000000E+00  0.00000000E+00  0.00000000E+00  0.00000000E+00
Nuclear GFac                               R   N=          25
  0.00000000E+00  0.00000000E+00  0.00000000E+00  0.00000000E+00  0.00000000E+00
  0.00000000E+00  0.00000000E+00  0.00000000E+00  0.00000000E+00  0.00000000E+00
  0.00000000E+00  0.00000000E+00  0.00000000E+00  2.79284600E+00  2.79284600E+00
  2.79284600E+00  2.79284600E+00  2.79284600E+00  2.79284600E+00  2.79284600E+00
  2.79284600E+00  2.79284600E+00  2.79284600E+00  2.79284600E+00  2.79284600E+00
MicOpt                                     I   N=          25
          -1          -1          -1          -1          -1          -1
          -1          -1          -1          -1          -1          -1
          -1          -1          -1          -1          -1          -1
          -1          -1          -1          -1          -1          -1
          -1
Number of contracted shells                I               76
Number of primitive shells                 I              191
Pure/Cartesian d shells                    I                1
Pure/Cartesian f shells                    I                0
Highest angular momentum                   I                2
Largest degree of contraction              I                6
Shell types                                I   N=          76
           0          -1          -1           2           0          -1
          -1           2           0          -1          -1           2
           0          -1          -1           2           0          -1
          -1           2           0          -1          -1           2
           0          -1          -1           2           0          -1
          -1           2           0          -1          -1           2
           0          -1          -1           2           0          -1
          -1           2           0          -1          -1           2
           0          -1          -1           2           0           0
           0           0           0           0           0           0
           0           0           0           0           0           0
           0           0           0           0           0           0
           0           0           0           0
Number of primitives per shell             I   N=          76
           6           3           1           1           6           3
           1           1           6           3           1           1
           6           3           1           1           6           3
           1           1           6           3           1           1
           6           3           1           1           6           3
           1           1           6           3           1           1
           6           3           1           1           6           3
           1           1           6           3           1           1
           6           3           1           1           3           1
           3           1           3           1           3           1
           3           1           3           1           3           1
           3           1           3           1           3           1
           3           1           3           1
Shell to atom map                          I   N=          76
           1           1           1           1           2           2
           2           2           3           3           3           3
           4           4           4           4           5           5
           5           5           6           6           6           6
           7           7           7           7           8           8
           8           8           9           9           9           9
          10          10          10          10          11          11
          11          11          12          12          12          12
          13          13          13          13          14          14
          15          15          16          16          17          17
          18          18          19          19          20          20
          21          21          22          22          23          23
          24          24          25          25
Primitive exponents                        R   N=         191
  5.48467166E+03  8.25234946E+02  1.88046958E+02  5.29645000E+01  1.68975704E+01
  5.79963534E+00  1.55396162E+01  3.59993359E+00  1.01376175E+00  2.70005823E-01
  8.00000000E-01  5.48467166E+03  8.25234946E+02  1.88046958E+02  5.29645000E+01
  1.68975704E+01  5.79963534E+00  1.55396162E+01  3.59993359E+00  1.01376175E+00
  2.70005823E-01  8.00000000E-01  5.48467166E+03  8.25234946E+02  1.88046958E+02
  5.29645000E+01  1.68975704E+01  5.79963534E+00  1.55396162E+01  3.59993359E+00
  1.01376175E+00  2.70005823E-01  8.00000000E-01  5.48467166E+03  8.25234946E+02
  1.88046958E+02  5.29645000E+01  1.68975704E+01  5.79963534E+00  1.55396162E+01
  3.59993359E+00  1.01376175E+00  2.70005823E-01  8.00000000E-01  5.48467166E+03
  8.25234946E+02  1.88046958E+02  5.29645000E+01  1.68975704E+01  5.79963534E+00
  1.55396162E+01  3.59993359E+00  1.01376175E+00  2.70005823E-01  8.00000000E-01
  5.48467166E+03  8.25234946E+02  1.88046958E+02  5.29645000E+01  1.68975704E+01
  5.79963534E+00  1.55396162E+01  3.59993359E+00  1.01376175E+00  2.70005823E-01
  8.00000000E-01  5.48467166E+03  8.25234946E+02  1.88046958E+02  5.29645000E+01
  1.68975704E+01  5.79963534E+00  1.55396162E+01  3.59993359E+00  1.01376175E+00
  2.70005823E-01  8.00000000E-01  3.04752488E+03  4.57369518E+02  1.03948685E+02
  2.92101553E+01  9.28666296E+00  3.16392696E+00  7.86827235E+00  1.88128854E+00
  5.44249258E-01  1.68714478E-01  8.00000000E-01  3.04752488E+03  4.57369518E+02
  1.03948685E+02  2.92101553E+01  9.28666296E+00  3.16392696E+00  7.86827235E+00
  1.88128854E+00  5.44249258E-01  1.68714478E-01  8.00000000E-01  3.04752488E+03
  4.57369518E+02  1.03948685E+02  2.92101553E+01  9.28666296E+00  3.16392696E+00
  7.86827235E+00  1.88128854E+00  5.44249258E-01  1.68714478E-01  8.00000000E-01
  3.04752488E+03  4.57369518E+02  1.03948685E+02  2.92101553E+01  9.28666296E+00
  3.16392696E+00  7.86827235E+00  1.88128854E+00  5.44249258E-01  1.68714478E-01
  8.00000000E-01  3.04752488E+03  4.57369518E+02  1.03948685E+02  2.92101553E+01
  9.28666296E+00  3.16392696E+00  7.86827235E+00  1.88128854E+00  5.44249258E-01
  1.68714478E-01  8.00000000E-01  3.04752488E+03  4.57369518E+02  1.03948685E+02
  2.92101553E+01  9.28666296E+00  3.16392696E+00  7.86827235E+00  1.88128854E+00
  5.44249258E-01  1.68714478E-01  8.00000000E-01  1.87311370E+01  2.82539436E+00
  6.40121692E-01  1.61277759E-01  1.87311370E+01  2.82539436E+00  6.40121692E-01
  1.61277759E-01  1.87311370E+01  2.82539436E+00  6.40121692E-01  1.61277759E-01
  1.87311370E+01  2.82539436E+00  6.40121692E-01  1.61277759E-01  1.87311370E+01
  2.82539436E+00  6.40121692E-01  1.61277759E-01  1.87311370E+01  2.82539436E+00
  6.40121692E-01  1.61277759E-01  1.87311370E+01  2.82539436E+00  6.40121692E-01
  1.61277759E-01  1.87311370E+01  2.82539436E+00  6.40121692E-01  1.61277759E-01
  1.87311370E+01  2.82539436E+00  6.40121692E-01  1.61277759E-01  1.87311370E+01
  2.82539436E+00  6.40121692E-01  1.61277759E-01  1.87311370E+01  2.82539436E+00
  6.40121692E-01  1.61277759E-01  1.87311370E+01  2.82539436E+00  6.40121692E-01
  1.61277759E-01
Contraction coefficients                   R   N=         191
  1.83107443E-03  1.39501722E-02  6.84450781E-02  2.32714336E-01  4.70192898E-01
  3.58520853E-01 -1.10777550E-01 -1.48026263E-01  1.13076702E+00  1.00000000E+00
  1.00000000E+00  1.83107443E-03  1.39501722E-02  6.84450781E-02  2.32714336E-01
  4.70192898E-01  3.58520853E-01 -1.10777550E-01 -1.48026263E-01  1.13076702E+00
  1.00000000E+00  1.00000000E+00  1.83107443E-03  1.39501722E-02  6.84450781E-02
  2.32714336E-01  4.70192898E-01  3.58520853E-01 -1.10777550E-01 -1.48026263E-01
  1.13076702E+00  1.00000000E+00  1.00000000E+00  1.83107443E-03  1.39501722E-02
  6.84450781E-02  2.32714336E-01  4.70192898E-01  3.58520853E-01 -1.10777550E-01
 -1.48026263E-01  1.13076702E+00  1.00000000E+00  1.00000000E+00  1.83107443E-03
  1.39501722E-02  6.84450781E-02  2.32714336E-01  4.70192898E-01  3.58520853E-01
 -1.10777550E-01 -1.48026263E-01  1.13076702E+00  1.00000000E+00  1.00000000E+00
  1.83107443E-03  1.39501722E-02  6.84450781E-02  2.32714336E-01  4.70192898E-01
  3.58520853E-01 -1.10777550E-01 -1.48026263E-01  1.13076702E+00  1.00000000E+00
  1.00000000E+00  1.83107443E-03  1.39501722E-02  6.84450781E-02  2.32714336E-01
  4.70192898E-01  3.58520853E-01 -1.10777550E-01 -1.48026263E-01  1.13076702E+00
  1.00000000E+00  1.00000000E+00  1.83473713E-03  1.40373228E-02  6.88426223E-02
  2.32184443E-01  4.67941348E-01  3.62311985E-01 -1.19332420E-01 -1.60854152E-01
  1.14345644E+00  1.00000000E+00  1.00000000E+00  1.83473713E-03  1.40373228E-02
  6.88426223E-02  2.32184443E-01  4.67941348E-01  3.62311985E-01 -1.19332420E-01
 -1.60854152E-01  1.14345644E+00  1.00000000E+00  1.00000000E+00  1.83473713E-03
  1.40373228E-02  6.88426223E-02  2.32184443E-01  4.67941348E-01  3.62311985E-01
 -1.19332420E-01 -1.60854152E-01  1.14345644E+00  1.00000000E+00  1.00000000E+00
  1.83473713E-03  1.40373228E-02  6.88426223E-02  2.32184443E-01  4.67941348E-01
  3.62311985E-01 -1.19332420E-01 -1.60854152E-01  1.14345644E+00  1.00000000E+00
  1.00000000E+00  1.83473713E-03  1.40373228E-02  6.88426223E-02  2.32184443E-01
  4.67941348E-01  3.62311985E-01 -1.19332420E-01 -1.60854152E-01  1.14345644E+00
  1.00000000E+00  1.00000000E+00  1.83473713E-03  1.40373228E-02  6.88426223E-02
  2.32184443E-01  4.67941348E-01  3.62311985E-01 -1.19332420E-01 -1.60854152E-01
  1.14345644E+00  1.00000000E+00  1.00000000E+00  3.34946043E-02  2.34726953E-01
  8.13757326E-01  1.00000000E+00  3.34946043E-02  2.34726953E-01  8.13757326E-01
  1.00000000E+00  3.34946043E-02  2.34726953E-01  8.13757326E-01  1.00000000E+00
  3.34946043E-02  2.34726953E-01  8.13757326E-01  1.00000000E+00  3.34946043E-02
  2.34726953E-01  8.13757326E-01  1.00000000E+00  3.34946043E-02  2.34726953E-01
  8.13757326E-01  1.00000000E+00  3.34946043E-02  2.34726953E-01  8.13757326E-01
  1.00000000E+00  3.34946043E-02  2.34726953E-01  8.13757326E-01  1.00000000E+00
  3.34946043E-02  2.34726953E-01  8.13757326E-01  1.00000000E+00  3.34946043E-02
  2.34726953E-01  8.13757326E-01  1.00000000E+00  3.34946043E-02  2.34726953E-01
  8.13757326E-01  1.00000000E+00  3.34946043E-02  2.34726953E-01  8.13757326E-01
  1.00000000E+00
P(S=P) Contraction coefficients            R   N=         191
  0.00000000E+00  0.00000000E+00  0.00000000E+00  0.00000000E+00  0.00000000E+00
  0.00000000E+00  7.08742682E-02  3.39752839E-01  7.27158577E-01  1.00000000E+00
  0.00000000E+00  0.00000000E+00  0.00000000E+00  0.00000000E+00  0.00000000E+00
  0.00000000E+00  0.00000000E+00  7.08742682E-02  3.39752839E-01  7.27158577E-01
  1.00000000E+00  0.00000000E+00  0.00000000E+00  0.00000000E+00  0.00000000E+00
  0.00000000E+00  0.00000000E+00  0.00000000E+00  7.08742682E-02  3.39752839E-01
  7.27158577E-01  1.00000000E+00  0.00000000E+00  0.00000000E+00  0.00000000E+00
  0.00000000E+00  0.00000000E+00  0.00000000E+00  0.00000000E+00  7.08742682E-02
  3.39752839E-01  7.27158577E-01  1.00000000E+00  0.00000000E+00  0.00000000E+00
  0.00000000E+00  0.00000000E+00  0.00000000E+00  0.00000000E+00  0.00000000E+00
  7.08742682E-02  3.39752839E-01  7.27158577E-01  1.00000000E+00  0.00000000E+00
  0.00000000E+00  0.00000000E+00  0.00000000E+00  0.00000000E+00  0.00000000E+00
  0.00000000E+00  7.08742682E-02  3.39752839E-01  7.27158577E-01  1.00000000E+00
  0.00000000E+00  0.00000000E+00  0.00000000E+00  0.00000000E+00  0.00000000E+00
  0.00000000E+00  0.00000000E+00  7.08742682E-02  3.39752839E-01  7.27158577E-01
  1.00000000E+00  0.00000000E+00  0.00000000E+00  0.00000000E+00  0.00000000E+00
  0.00000000E+00  0.00000000E+00  0.00000000E+00  6.89990666E-02  3.16423961E-01
  7.44308291E-01  1.00000000E+00  0.00000000E+00  0.00000000E+00  0.00000000E+00
  0.00000000E+00  0.00000000E+00  0.00000000E+00  0.00000000E+00  6.89990666E-02
  3.16423961E-01  7.44308291E-01  1.00000000E+00  0.00000000E+00  0.00000000E+00
  0.00000000E+00  0.00000000E+00  0.00000000E+00  0.00000000E+00  0.00000000E+00
  6.89990666E-02  3.16423961E-01  7.44308291E-01  1.00000000E+00  0.00000000E+00
  0.00000000E+00  0.00000000E+00  0.00000000E+00  0.00000000E+00  0.00000000E+00
  0.00000000E+00  6.89990666E-02  3.16423961E-01  7.44308291E-01  1.00000000E+00
  0.00000000E+00  0.00000000E+00  0.00000000E+00  0.00000000E+00  0.00000000E+00
  0.00000000E+00  0.00000000E+00  6.89990666E-02  3.16423961E-01  7.44308291E-01
  1.00000000E+00  0.00000000E+00  0.00000000E+00  0.00000000E+00  0.00000000E+00
  0.00000000E+00  0.00000000E+00  0.00000000E+00  6.89990666E-02  3.16423961E-01
  7.44308291E-01  1.00000000E+00  0.00000000E+00  0.00000000E+00  0.00000000E+00
  0.00000000E+00  0.00000000E+00  0.00000000E+00  0.00000000E+00  0.00000000E+00
  0.00000000E+00  0.00000000E+00  0.00000000E+00  0.00000000E+00  0.00000000E+00
  0.00000000E+00  0.00000000E+00  0.00000000E+00  0.00000000E+00  0.00000000E+00
  0.00000000E+00  0.00000000E+00  0.00000000E+00  0.00000000E+00  0.00000000E+00
  0.00000000E+00  0.00000000E+00  0.00000000E+00  0.00000000E+00  0.00000000E+00
  0.00000000E+00  0.00000000E+00  0.00000000E+00  0.00000000E+00  0.00000000E+00
  0.00000000E+00  0.00000000E+00  0.00000000E+00  0.00000000E+00  0.00000000E+00
  0.00000000E+00  0.00000000E+00  0.00000000E+00  0.00000000E+00  0.00000000E+00
  0.00000000E+00  0.00000000E+00  0.00000000E+00  0.00000000E+00  0.00000000E+00
  0.00000000E+00
Coordinates of each shell                  R   N=         228
 -2.57417591E+00 -3.23495996E+00 -1.98178597E+00 -2.57417591E+00 -3.23495996E+00
 -1.98178597E+00 -2.57417591E+00 -3.23495996E+00 -1.98178597E+00 -2.57417591E+00
 -3.23495996E+00 -1.98178597E+00  2.50401226E+00 -2.85315770E+00 -1.63670657E+00
  2.50401226E+00 -2.85315770E+00 -1.63670657E+00  2.50401226E+00 -2.85315770E+00
 -1.63670657E+00  2.50401226E+00 -2.85315770E+00 -1.63670657E+00 -5.70751527E+00
 -1.31757831E+00  1.51397291E+00 -5.70751527E+00 -1.31757831E+00  1.51397291E+00
 -5.70751527E+00 -1.31757831E+00  1.51397291E+00 -5.70751527E+00 -1.31757831E+00
  1.51397291E+00  2.64577227E+00 -6.98879727E-01  3.38858352E+00  2.64577227E+00
 -6.98879727E-01  3.38858352E+00  2.64577227E+00 -6.98879727E-01  3.38858352E+00
  2.64577227E+00 -6.98879727E-01  3.38858352E+00 -6.41284533E+00  3.40284411E+00
 -2.54461825E-01 -6.41284533E+00  3.40284411E+00 -2.54461825E-01 -6.41284533E+00
  3.40284411E+00 -2.54461825E-01 -6.41284533E+00  3.40284411E+00 -2.54461825E-01
  4.92651846E+00  2.90932830E+00 -1.87807600E+00  4.92651846E+00  2.90932830E+00
 -1.87807600E+00  4.92651846E+00  2.90932830E+00 -1.87807600E+00  4.92651846E+00
  2.90932830E+00 -1.87807600E+00  6.97774135E+00  2.49279802E-01  8.04973918E-01
  6.97774135E+00  2.49279802E-01  8.04973918E-01  6.97774135E+00  2.49279802E-01
  8.04973918E-01  6.97774135E+00  2.49279802E-01  8.04973918E-01 -1.55182726E+00
 -1.82356720E+00  9.01393770E-02 -1.55182726E+00 -1.82356720E+00  9.01393770E-02
 -1.55182726E+00 -1.82356720E+00  9.01393770E-02 -1.55182726E+00 -1.82356720E+00
  9.01393770E-02  9.36577387E-01 -7.88903716E-01 -8.99536158E-01  9.36577387E-01
 -7.88903716E-01 -8.99536158E-01  9.36577387E-01 -7.88903716E-01 -8.99536158E-01
  9.36577387E-01 -7.88903716E-01 -8.99536158E-01 -3.48223416E+00  1.19678706E-01
  9.74468569E-01 -3.48223416E+00  1.19678706E-01  9.74468569E-01 -3.48223416E+00
  1.19678706E-01  9.74468569E-01 -3.48223416E+00  1.19678706E-01  9.74468569E-01
  2.43040660E+00  6.56416698E-01  1.10304937E+00  2.43040660E+00  6.56416698E-01
  1.10304937E+00  2.43040660E+00  6.56416698E-01  1.10304937E+00  2.43040660E+00
  6.56416698E-01  1.10304937E+00 -4.14297174E+00  2.11081689E+00 -9.97106280E-01
 -4.14297174E+00  2.11081689E+00 -9.97106280E-01 -4.14297174E+00  2.11081689E+00
 -9.97106280E-01 -4.14297174E+00  2.11081689E+00 -9.97106280E-01  5.03862852E+00
  1.22442638E+00  4.76129963E-02  5.03862852E+00  1.22442638E+00  4.76129963E-02
  5.03862852E+00  1.22442638E+00  4.76129963E-02  5.03862852E+00  1.22442638E+00
  4.76129963E-02 -1.13418328E+00 -3.08664696E+00  1.68091090E+00 -1.13418328E+00
 -3.08664696E+00  1.68091090E+00  5.84840560E-01  4.58627434E-01 -2.52596087E+00
  5.84840560E-01  4.58627434E-01 -2.52596087E+00 -2.79242424E+00  1.03755902E+00
  2.71320941E+00 -2.79242424E+00  1.03755902E+00  2.71320941E+00  1.48315907E+00
  2.44756028E+00  1.53254892E+00  1.48315907E+00  2.44756028E+00  1.53254892E+00
 -4.58382020E+00  1.17972717E+00 -2.78321730E+00 -4.58382020E+00  1.17972717E+00
 -2.78321730E+00 -2.58767924E+00  3.44732285E+00 -1.30283352E+00 -2.58767924E+00
  3.44732285E+00 -1.30283352E+00 -4.23995533E+00 -3.77721597E+00 -1.39556102E+00
 -4.23995533E+00 -3.77721597E+00 -1.39556102E+00  1.39513523E+00 -3.99666610E+00
 -2.57020002E+00  1.39513523E+00 -3.99666610E+00 -2.57020002E+00 -7.09693354E+00
 -1.05836386E-01  1.36824712E+00 -7.09693354E+00 -1.05836386E-01  1.36824712E+00
  4.03498848E+00 -1.88703824E+00  3.12734121E+00  4.03498848E+00 -1.88703824E+00
  3.12734121E+00 -5.96932712E+00  4.56000742E+00  1.10484296E+00 -5.96932712E+00
  4.56000742E+00  1.10484296E+00  6.65866089E+00  3.07438084E+00 -2.51309502E+00
  6.65866089E+00  3.07438084E+00 -2.51309502E+00
Constraint Structure                       R   N=          75
 -2.57417591E+00 -3.23495996E+00 -1.98178597E+00  2.50401226E+00 -2.85315770E+00
 -1.63670657E+00 -5.70751527E+00 -1.31757831E+00  1.51397291E+00  2.64577227E+00
 -6.98879727E-01  3.38858352E+00 -6.41284533E+00  3.40284411E+00 -2.54461825E-01
  4.92651846E+00  2.90932830E+00 -1.87807600E+00  6.97774135E+00  2.49279802E-01
  8.04973918E-01 -1.55182726E+00 -1.82356720E+00  9.01393770E-02  9.36577387E-01
 -7.88903716E-01 -8.99536158E-01 -3.48223416E+00  1.19678706E-01  9.74468569E-01
  2.43040660E+00  6.56416698E-01  1.10304937E+00 -4.14297174E+00  2.11081689E+00
 -9.97106280E-01  5.03862852E+00  1.22442638E+00  4.76129963E-02 -1.13418328E+00
 -3.08664696E+00  1.68091090E+00  5.84840560E-01  4.58627434E-01 -2.52596087E+00
 -2.79242424E+00  1.03755902E+00  2.71320941E+00  1.48315907E+00  2.44756028E+00
  1.53254892E+00 -4.58382020E+00  1.17972717E+00 -2.78321730E+00 -2.58767924E+00
  3.44732285E+00 -1.30283352E+00 -4.23995533E+00 -3.77721597E+00 -1.39556102E+00
  1.39513523E+00 -3.99666610E+00 -2.57020002E+00 -7.09693354E+00 -1.05836386E-01
  1.36824712E+00  4.03498848E+00 -1.88703824E+00  3.12734121E+00 -5.96932712E+00
  4.56000742E+00  1.10484296E+00  6.65866089E+00  3.07438084E+00 -2.51309502E+00
Num ILSW                                   I              100
ILSW                                       I   N=         100
           0           1           0           0           2           0
           0           0           0           0           0          -1
           0           0           0           0           0           0
           0           0           0           0           1           0
           1           0           0           0           0           0
           0           0      100000           0          -1           0
           0           0           0           0           0           0
           0           0           0           1           1           0
           0           0           1           0           0           0
           0           0           4          40           0           0
           0           0           0           0           0           0
           0           0           0           0           0           0
           0           0           0           0           0           0
           0           0           0           0           0           0
           0           0           0           0           0           0
           0           0           0           0           0           0
           0           0           0           0
Num RLSW                                   I               40
RLSW                                       R   N=          40
  1.00000000E+00  1.00000000E+00  1.00000000E+00  1.00000000E+00  1.00000000E+00
  0.00000000E+00  0.00000000E+00  1.00000000E+00  0.00000000E+00  0.00000000E+00
  0.00000000E+00  0.00000000E+00  1.00000000E+00  0.00000000E+00  0.00000000E+00
  0.00000000E+00  0.00000000E+00  1.00000000E+00  0.00000000E+00  0.00000000E+00
  0.00000000E+00  0.00000000E+00  1.00000000E+00  0.00000000E+00  0.00000000E+00
  0.00000000E+00  0.00000000E+00  1.00000000E+00  0.00000000E+00  0.00000000E+00
  0.00000000E+00  0.00000000E+00  0.00000000E+00  0.00000000E+00  0.00000000E+00
  0.00000000E+00  0.00000000E+00  0.00000000E+00  1.00000000E+00  1.00000000E+00
MxBond                                     I                4
NBond                                      I   N=          25
           2           2           2           2           2           2
           1           4           4           4           4           4
           3           1           1           1           1           1
           1           1           1           1           1           1
           1
IBond                                      I   N=         100
           8          20           0           0           9          21
           0           0          10          22           0           0
          11          23           0           0          12          24
           0           0          13          25           0           0
          13           0           0           0           1           9
          10          14           2           8          11          15
           3           8          12          16           4           9
          13          17           5          10          18          19
           6           7          11           0           8           0
           0           0           9           0           0           0
          10           0           0           0          11           0
           0           0          12           0           0           0
          12           0           0           0           1           0
           0           0           2           0           0           0
           3           0           0           0           4           0
           0           0           5           0           0           0
           6           0           0           0
RBond                                      R   N=         100
  1.00000000E+00  1.00000000E+00  0.00000000E+00  0.00000000E+00  1.00000000E+00
  1.00000000E+00  0.00000000E+00  0.00000000E+00  1.00000000E+00  1.00000000E+00
  0.00000000E+00  0.00000000E+00  1.00000000E+00  1.00000000E+00  0.00000000E+00
  0.00000000E+00  1.00000000E+00  1.00000000E+00  0.00000000E+00  0.00000000E+00
  1.50000000E+00  1.00000000E+00  0.00000000E+00  0.00000000E+00  2.00000000E+00
  0.00000000E+00  0.00000000E+00  0.00000000E+00  1.00000000E+00  1.00000000E+00
  1.00000000E+00  1.00000000E+00  1.00000000E+00  1.00000000E+00  1.00000000E+00