
    -----------------------------------------------------------------------
          Psi4: An Open-Source Ab Initio Electronic Structure Package
                               Psi4 1.3.2 release

                         Git: Rev {HEAD} ecbda83 


    R. M. Parrish, L. A. Burns, D. G. A. Smith, A. C. Simmonett,
    A. E. DePrince III, E. G. Hohenstein, U. Bozkaya, A. Yu. Sokolov,
    R. Di Remigio, R. M. Richard, J. F. Gonthier, A. M. James,
    H. R. McAlexander, A. Kumar, M. Saitow, X. Wang, B. P. Pritchard,
    P. Verma, H. F. Schaefer III, K. Patkowski, R. A. King, E. F. Valeev,
    F. A. Evangelista, J. M. Turney, T. D. Crawford, and C. D. Sherrill,
    J. Chem. Theory Comput. 13(7) pp 3185--3197 (2017).
    (doi: 10.1021/acs.jctc.7b00174)


                         Additional Contributions by
    P. Kraus, H. Kruse, M. H. Lechner, M. C. Schieber, R. A. Shaw,
    A. Alenaizan, R. Galvelis, Z. L. Glick, S. Lehtola, and J. P. Misiewicz

    -----------------------------------------------------------------------


    Psi4 started on: Wednesday, 03 February 2021 07:47AM

    Process ID: 11534
    Host:       node35.bme.utexas.edu
    PSIDATADIR: /home/xy3866/psi4conda/share/psi4
    Memory:     500.0 MiB
    Threads:    8
    
  ==> Input File <==

--------------------------------------------------------------------------
#psi4
#
memory 32 gb

molecule  {
0 1
  S        1.1830230     0.0407500    -0.0002230
  N       -1.2657710    -0.7786410     0.0002510
  C       -0.0644320     1.2156230    -0.0000300
  C       -1.1947158     0.5928182     0.0002179
  C       -0.0184830    -1.1998720     0.0000480
  H        0.1541650     2.2748950    -0.0001110
  H       -2.2450570     1.1086030     0.0003980
  H        0.2637610    -2.2461300     0.0000230
units angstrom
no_reorient  #important for SAPT in psi4, default
symmetry c1  #important for SAPT in psi4, default
}

set PROPERTIES_ORIGIN ["COM"]
properties('MP2/aug-cc-pvtz', properties = ['dipole'])
--------------------------------------------------------------------------

  Memory set to  29.802 GiB by Python driver.
    SCF Algorithm Type (re)set to DF.

*** tstart() called on node35.bme.utexas.edu
*** at Wed Feb  3 07:47:31 2021

   => Loading Basis Set <=

    Name: AUG-CC-PVTZ
    Role: ORBITAL
    Keyword: BASIS
    atoms 1   entry S          line   902 file /home/xy3866/psi4conda/share/psi4/basis/aug-cc-pvtz.gbs 
    atoms 2   entry N          line   281 file /home/xy3866/psi4conda/share/psi4/basis/aug-cc-pvtz.gbs 
    atoms 3-5 entry C          line   235 file /home/xy3866/psi4conda/share/psi4/basis/aug-cc-pvtz.gbs 
    atoms 6-8 entry H          line    36 file /home/xy3866/psi4conda/share/psi4/basis/aug-cc-pvtz.gbs 


         ---------------------------------------------------------
                                   SCF
               by Justin Turney, Rob Parrish, Andy Simmonett
                          and Daniel G. A. Smith
                              RHF Reference
                        8 Threads,  30517 MiB Core
         ---------------------------------------------------------

  ==> Geometry <==

    Molecular point group: c1
    Full point group: C1

    Geometry (in Angstrom), charge = 0, multiplicity = 1:

       Center              X                  Y                   Z               Mass       
    ------------   -----------------  -----------------  -----------------  -----------------
         S            1.148598763432     0.054296188168    -0.000217449621    31.972071174400
         N           -1.300195236568    -0.765094811832     0.000256550379    14.003074004430
         C           -0.098856236568     1.229169188168    -0.000024449621    12.000000000000
         C           -1.229140036568     0.606364388168     0.000223450379    12.000000000000
         C           -0.052907236568    -1.186325811832     0.000053550379    12.000000000000
         H            0.119740763432     2.288441188168    -0.000105449621     1.007825032230
         H           -2.279481236568     1.122149188168     0.000403550379     1.007825032230
         H            0.229336763432    -2.232583811832     0.000028550379     1.007825032230

  Running in c1 symmetry.

  Rotational constants: A =      0.28620  B =      0.18767  C =      0.11334 [cm^-1]
  Rotational constants: A =   8580.13284  B =   5626.05652  C =   3397.97754 [MHz]
  Nuclear repulsion =  206.551811977120678

  Charge       = 0
  Multiplicity = 1
  Electrons    = 44
  Nalpha       = 22
  Nbeta        = 22

  ==> Algorithm <==

  SCF Algorithm Type is DF.
  DIIS enabled.
  MOM disabled.
  Fractional occupation disabled.
  Guess Type is SAD.
  Energy threshold   = 1.00e-10
  Density threshold  = 1.00e-10
  Integral threshold = 0.00e+00

  ==> Primary Basis <==

  Basis Set: AUG-CC-PVTZ
    Blend: AUG-CC-PVTZ
    Number of shells: 99
    Number of basis function: 303
    Number of Cartesian functions: 354
    Spherical Harmonics?: true
    Max angular momentum: 3

   => Loading Basis Set <=

    Name: (AUG-CC-PVTZ AUX)
    Role: JKFIT
    Keyword: DF_BASIS_SCF
    atoms 1   entry S          line   730 file /home/xy3866/psi4conda/share/psi4/basis/aug-cc-pvtz-jkfit.gbs 
    atoms 2   entry N          line   224 file /home/xy3866/psi4conda/share/psi4/basis/aug-cc-pvtz-jkfit.gbs 
    atoms 3-5 entry C          line   162 file /home/xy3866/psi4conda/share/psi4/basis/aug-cc-pvtz-jkfit.gbs 
    atoms 6-8 entry H          line    70 file /home/xy3866/psi4conda/share/psi4/basis/aug-cc-pvtz-jkfit.gbs 

  ==> Pre-Iterations <==

   -------------------------------------------------------
    Irrep   Nso     Nmo     Nalpha   Nbeta   Ndocc  Nsocc
   -------------------------------------------------------
     A        303     303       0       0       0       0
   -------------------------------------------------------
    Total     303     303      22      22      22       0
   -------------------------------------------------------

  ==> Integral Setup <==

  DFHelper Memory: AOs need 0.505 GiB; user supplied 22.352 GiB. Using in-core AOs.

  ==> MemDFJK: Density-Fitted J/K Matrices <==

    J tasked:                   Yes
    K tasked:                   Yes
    wK tasked:                   No
    OpenMP threads:               8
    Memory [MiB]:             22888
    Algorithm:                 Core
    Schwarz Cutoff:           1E-12
    Mask sparsity (%):       0.3660
    Fitting Condition:        1E-10

   => Auxiliary Basis Set <=

  Basis Set: (AUG-CC-PVTZ AUX)
    Blend: AUG-CC-PVTZ-JKFIT
    Number of shells: 204
    Number of basis function: 700
    Number of Cartesian functions: 869
    Spherical Harmonics?: true
    Max angular momentum: 4

  Minimum eigenvalue in the overlap matrix is 7.4304044554E-06.
  Using Symmetric Orthogonalization.

  SCF Guess: Superposition of Atomic Densities via on-the-fly atomic UHF.

  ==> Iterations <==

                           Total Energy        Delta E     RMS |[F,P]|

   @DF-RHF iter SAD:  -567.15662307829382   -5.67157e+02   0.00000e+00 
   @DF-RHF iter   1:  -567.21025580438049   -5.36327e-02   1.72067e-03 DIIS
   @DF-RHF iter   2:  -567.29640296467403   -8.61472e-02   1.26994e-03 DIIS
   @DF-RHF iter   3:  -567.36870882463518   -7.23059e-02   1.91654e-04 DIIS
   @DF-RHF iter   4:  -567.37184551939947   -3.13669e-03   8.21616e-05 DIIS
   @DF-RHF iter   5:  -567.37242515498599   -5.79636e-04   2.86530e-05 DIIS
   @DF-RHF iter   6:  -567.37256561923539   -1.40464e-04   1.27522e-05 DIIS
   @DF-RHF iter   7:  -567.37260776996322   -4.21507e-05   4.11159e-06 DIIS
   @DF-RHF iter   8:  -567.37261075367803   -2.98371e-06   1.74316e-06 DIIS
   @DF-RHF iter   9:  -567.37261117452590   -4.20848e-07   4.12160e-07 DIIS
   @DF-RHF iter  10:  -567.37261119370135   -1.91754e-08   1.58403e-07 DIIS
   @DF-RHF iter  11:  -567.37261119693892   -3.23757e-09   5.73783e-08 DIIS
   @DF-RHF iter  12:  -567.37261119735342   -4.14502e-10   1.38745e-08 DIIS
   @DF-RHF iter  13:  -567.37261119738105   -2.76259e-11   5.83183e-09 DIIS
   @DF-RHF iter  14:  -567.37261119738298   -1.93268e-12   2.31516e-09 DIIS
   @DF-RHF iter  15:  -567.37261119738491   -1.93268e-12   9.67822e-10 DIIS
   @DF-RHF iter  16:  -567.37261119738628   -1.36424e-12   4.64628e-10 DIIS
   @DF-RHF iter  17:  -567.37261119738753   -1.25056e-12   1.13966e-10 DIIS
   @DF-RHF iter  18:  -567.37261119738582    1.70530e-12   4.83829e-11 DIIS
  Energy and wave function converged.


  ==> Post-Iterations <==

    Orbital Energies [Eh]
    ---------------------

    Doubly Occupied:                                                      

       1A    -91.999923     2A    -15.579586     3A    -11.317281  
       4A    -11.270073     5A    -11.260500     6A     -9.001282  
       7A     -6.682150     8A     -6.681704     9A     -6.680867  
      10A     -1.290059    11A     -1.081411    12A     -1.008475  
      13A     -0.810762    14A     -0.767134    15A     -0.703545  
      16A     -0.576404    17A     -0.576248    18A     -0.570801  
      19A     -0.497642    20A     -0.445109    21A     -0.393959  
      22A     -0.357384  

    Virtual:                                                              

      23A      0.028972    24A      0.034740    25A      0.041741  
      26A      0.068616    27A      0.082887    28A      0.085142  
      29A      0.093779    30A      0.105799    31A      0.106323  
      32A      0.106873    33A      0.112833    34A      0.114516  
      35A      0.126635    36A      0.131861    37A      0.140412  
      38A      0.148294    39A      0.154305    40A      0.184442  
      41A      0.186533    42A      0.190942    43A      0.203766  
      44A      0.209406    45A      0.212643    46A      0.232021  
      47A      0.254962    48A      0.258578    49A      0.264760  
      50A      0.266258    51A      0.284124    52A      0.309467  
      53A      0.319206    54A      0.320042    55A      0.320744  
      56A      0.339521    57A      0.348146    58A      0.366190  
      59A      0.375059    60A      0.381505    61A      0.394420  
      62A      0.397387    63A      0.404332    64A      0.409598  
      65A      0.414891    66A      0.439398    67A      0.440681  
      68A      0.448640    69A      0.460498    70A      0.464722  
      71A      0.467119    72A      0.474519    73A      0.496964  
      74A      0.508262    75A      0.515767    76A      0.518213  
      77A      0.537856    78A      0.548335    79A      0.559412  
      80A      0.573528    81A      0.584107    82A      0.613937  
      83A      0.614337    84A      0.636006    85A      0.678117  
      86A      0.679047    87A      0.682892    88A      0.689876  
      89A      0.712673    90A      0.719952    91A      0.732006  
      92A      0.736582    93A      0.748317    94A      0.753005  
      95A      0.763081    96A      0.770792    97A      0.801518  
      98A      0.825633    99A      0.845205   100A      0.854475  
     101A      0.859227   102A      0.864827   103A      0.877101  
     104A      0.891961   105A      0.917052   106A      0.917306  
     107A      0.939703   108A      0.942262   109A      0.948681  
     110A      0.952119   111A      0.962381   112A      0.993748  
     113A      0.994045   114A      0.994264   115A      1.006320  
     116A      1.032783   117A      1.033151   118A      1.058703  
     119A      1.062028   120A      1.065469   121A      1.088704  
     122A      1.089956   123A      1.090574   124A      1.121011  
     125A      1.121700   126A      1.135072   127A      1.141569  
     128A      1.151143   129A      1.163036   130A      1.184360  
     131A      1.198105   132A      1.208641   133A      1.230083  
     134A      1.268801   135A      1.285882   136A      1.287097  
     137A      1.304470   138A      1.321653   139A      1.369391  
     140A      1.386544   141A      1.411510   142A      1.424263  
     143A      1.451776   144A      1.462164   145A      1.477623  
     146A      1.494633   147A      1.504850   148A      1.547544  
     149A      1.547926   150A      1.557479   151A      1.598547  
     152A      1.613555   153A      1.622137   154A      1.644940  
     155A      1.650090   156A      1.688544   157A      1.695409  
     158A      1.737779   159A      1.738069   160A      1.782455  
     161A      1.786340   162A      1.792513   163A      1.818298  
     164A      1.846599   165A      1.884819   166A      1.887792  
     167A      1.909569   168A      1.920786   169A      1.935143  
     170A      1.955303   171A      1.981846   172A      1.997693  
     173A      2.028461   174A      2.036609   175A      2.058192  
     176A      2.114539   177A      2.118349   178A      2.149780  
     179A      2.165371   180A      2.170793   181A      2.208862  
     182A      2.244381   183A      2.254473   184A      2.279486  
     185A      2.287717   186A      2.295765   187A      2.346202  
     188A      2.351593   189A      2.355249   190A      2.397186  
     191A      2.425280   192A      2.489832   193A      2.490378  
     194A      2.546041   195A      2.562325   196A      2.565237  
     197A      2.582272   198A      2.586377   199A      2.620420  
     200A      2.629142   201A      2.759710   202A      2.769018  
     203A      2.797028   204A      2.835038   205A      2.857191  
     206A      2.945857   207A      2.978767   208A      2.986531  
     209A      3.019416   210A      3.091187   211A      3.100534  
     212A      3.197513   213A      3.219870   214A      3.291738  
     215A      3.303100   216A      3.320101   217A      3.342432  
     218A      3.450055   219A      3.450917   220A      3.472273  
     221A      3.490051   222A      3.516776   223A      3.540837  
     224A      3.600264   225A      3.614344   226A      3.630361  
     227A      3.651470   228A      3.716067   229A      3.726994  
     230A      3.737772   231A      3.760570   232A      3.793191  
     233A      3.800111   234A      3.829436   235A      3.856796  
     236A      3.859676   237A      3.890955   238A      3.935620  
     239A      3.946050   240A      3.953698   241A      3.995709  
     242A      4.010734   243A      4.037840   244A      4.061710  
     245A      4.064852   246A      4.117815   247A      4.180553  
     248A      4.199739   249A      4.223853   250A      4.247483  
     251A      4.252513   252A      4.272815   253A      4.321130  
     254A      4.334544   255A      4.386586   256A      4.421690  
     257A      4.484237   258A      4.515827   259A      4.540905  
     260A      4.584711   261A      4.663218   262A      4.704714  
     263A      4.790008   264A      4.819690   265A      4.858220  
     266A      4.952252   267A      4.960273   268A      4.982029  
     269A      5.012478   270A      5.072350   271A      5.078820  
     272A      5.126710   273A      5.146760   274A      5.178309  
     275A      5.215457   276A      5.275484   277A      5.396953  
     278A      5.407087   279A      5.496814   280A      5.510699  
     281A      5.548646   282A      5.662205   283A      5.666339  
     284A      5.752585   285A      5.772894   286A      5.820085  
     287A      5.850587   288A      5.884833   289A      5.959186  
     290A      5.963018   291A      6.194817   292A      6.322976  
     293A      6.445809   294A      6.499824   295A      6.569035  
     296A      6.739211   297A      6.967011   298A      7.071330  
     299A      8.269713   300A     15.379403   301A     16.185328  
     302A     16.862813   303A     17.869881  

    Final Occupation by Irrep:
              A 
    DOCC [    22 ]

  @DF-RHF Final Energy:  -567.37261119738582

   => Energetics <=

    Nuclear Repulsion Energy =            206.5518119771206784
    One-Electron Energy =               -1188.7442509531731503
    Two-Electron Energy =                 414.8198277786667063
    Total Energy =                       -567.3726111973858224

Computation Completed

*** tstop() called on node35.bme.utexas.edu at Wed Feb  3 07:47:39 2021
Module time:
	user time   =      53.53 seconds =       0.89 minutes
	system time =       3.33 seconds =       0.06 minutes
	total time  =          8 seconds =       0.13 minutes
Total time:
	user time   =      53.53 seconds =       0.89 minutes
	system time =       3.33 seconds =       0.06 minutes
	total time  =          8 seconds =       0.13 minutes
   => Loading Basis Set <=

    Name: (AUG-CC-PVTZ AUX)
    Role: RIFIT
    Keyword: DF_BASIS_MP2
    atoms 1   entry S          line   666 file /home/xy3866/psi4conda/share/psi4/basis/aug-cc-pvtz-ri.gbs 
    atoms 2   entry N          line   206 file /home/xy3866/psi4conda/share/psi4/basis/aug-cc-pvtz-ri.gbs 
    atoms 3-5 entry C          line   148 file /home/xy3866/psi4conda/share/psi4/basis/aug-cc-pvtz-ri.gbs 
    atoms 6-8 entry H          line    30 file /home/xy3866/psi4conda/share/psi4/basis/aug-cc-pvtz-ri.gbs 


*** tstart() called on node35.bme.utexas.edu
*** at Wed Feb  3 07:47:40 2021


  //>>>>>>>>>>>>>>>>>>>>>>>>>>>>>>>>>>>//
  //               DFMP2               //
  //<<<<<<<<<<<<<<<<<<<<<<<<<<<<<<<<<<<//

	 --------------------------------------------------------
	                          DF-MP2                         
	      2nd-Order Density-Fitted Moller-Plesset Theory     
	              RMP2 Wavefunction,   8 Threads             
	                                                         
	        Rob Parrish, Justin Turney, Andy Simmonett,      
	           Ed Hohenstein, and C. David Sherrill          
	 --------------------------------------------------------

   => Auxiliary Basis Set <=

  Basis Set: (AUG-CC-PVTZ AUX)
    Blend: AUG-CC-PVTZ-RI
    Number of shells: 191
    Number of basis function: 709
    Number of Cartesian functions: 900
    Spherical Harmonics?: true
    Max angular momentum: 4

	 --------------------------------------------------------
	                 NBF =   303, NAUX =   709
	 --------------------------------------------------------
	   CLASS    FOCC     OCC    AOCC    AVIR     VIR    FVIR
	   PAIRS       0      22      22     281     281       0
	 --------------------------------------------------------

  DFHelper Memory: AOs need 0.505 GiB; user supplied 22.352 GiB. Using in-core AOs.


         ------------------------------------------------------------
                                     CPHF                           
                                  Rob Parrish                       
         ------------------------------------------------------------

  ==> Geometry <==

    Molecular point group: c1
    Full point group: C1

    Geometry (in Angstrom), charge = 0, multiplicity = 1:

       Center              X                  Y                   Z               Mass       
    ------------   -----------------  -----------------  -----------------  -----------------
         S            1.148598763432     0.054296188168    -0.000217449621    31.972071174400
         N           -1.300195236568    -0.765094811832     0.000256550379    14.003074004430
         C           -0.098856236568     1.229169188168    -0.000024449621    12.000000000000
         C           -1.229140036568     0.606364388168     0.000223450379    12.000000000000
         C           -0.052907236568    -1.186325811832     0.000053550379    12.000000000000
         H            0.119740763432     2.288441188168    -0.000105449621     1.007825032230
         H           -2.279481236568     1.122149188168     0.000403550379     1.007825032230
         H            0.229336763432    -2.232583811832     0.000028550379     1.007825032230

  Nuclear repulsion =  206.551811977120678
  Reference energy  = -567.372611197385822

  ==> Basis Set <==

  Basis Set: AUG-CC-PVTZ
    Blend: AUG-CC-PVTZ
    Number of shells: 99
    Number of basis function: 303
    Number of Cartesian functions: 354
    Spherical Harmonics?: true
    Max angular momentum: 3

  ==> CGRSolver (by Rob Parrish) <==

   Number of roots    =         1
   Preconditioning    =    JACOBI
   Convergence cutoff =     1E-06
   Maximum iterations =       100

  ==> CPHFRHamiltonian (by Rob Parrish) <== 

  ==> MemDFJK: Density-Fitted J/K Matrices <==

    J tasked:                   Yes
    K tasked:                   Yes
    wK tasked:                   No
    OpenMP threads:               8
    Memory [MiB]:             22888
    Algorithm:                 Core
    Schwarz Cutoff:           1E-12
    Mask sparsity (%):       0.3660
    Fitting Condition:        1E-10

   => Auxiliary Basis Set <=

  Basis Set: (AUG-CC-PVTZ AUX)
    Blend: AUG-CC-PVTZ-JKFIT
    Number of shells: 204
    Number of basis function: 700
    Number of Cartesian functions: 869
    Spherical Harmonics?: true
    Max angular momentum: 4

  ==> CPHF Iterations <==

  => Iterations <=

             Iter  Converged  Remaining    Residual
  CGR           1          0          1   1.397E-01
  CGR           2          0          1   4.577E-02
  CGR           3          0          1   2.047E-02
  CGR           4          0          1   7.819E-03
  CGR           5          0          1   2.289E-03
  CGR           6          0          1   8.564E-04
  CGR           7          0          1   3.782E-04
  CGR           8          0          1   1.731E-04
  CGR           9          0          1   6.489E-05
  CGR          10          0          1   2.243E-05
  CGR          11          0          1   6.799E-06
  CGR          12          0          1   1.878E-06
  CGR          13          1          0   6.216E-07

    CGRSolver converged.

	-----------------------------------------------------------
	 ==================> DF-MP2 Energies <==================== 
	-----------------------------------------------------------
	 Reference Energy          =    -567.3726111973858224 [Eh]
	 Singles Energy            =      -0.0000000000000000 [Eh]
	 Same-Spin Energy          =      -0.2446317768612850 [Eh]
	 Opposite-Spin Energy      =      -0.7283881230730165 [Eh]
	 Correlation Energy        =      -0.9730198999343014 [Eh]
	 Total Energy              =    -568.3456310973201653 [Eh]
	-----------------------------------------------------------
	 ================> DF-SCS-MP2 Energies <================== 
	-----------------------------------------------------------
	 SCS Same-Spin Scale       =       0.3333333333333333 [-]
	 SCS Opposite-Spin Scale   =       1.2000000000000000 [-]
	 SCS Same-Spin Energy      =      -0.0815439256204283 [Eh]
	 SCS Opposite-Spin Energy  =      -0.8740657476876198 [Eh]
	 SCS Correlation Energy    =      -0.9556096733080481 [Eh]
	 SCS Total Energy          =    -568.3282208706938263 [Eh]
	-----------------------------------------------------------



Properties will be evaluated at  -0.000000,  -0.000000,  -0.000000 [a0]

Properties computed using the MP2 density matrix

  Nuclear Dipole Moment: [e a0]
     X:    -1.7756      Y:     1.1080      Z:     0.0003

  Electronic Dipole Moment: [e a0]
     X:     2.3348      Y:    -0.6546      Z:    -0.0004

  Dipole Moment: [e a0]
     X:     0.5592      Y:     0.4534      Z:    -0.0001     Total:     0.7199

  Dipole Moment: [D]
     X:     1.4213      Y:     1.1523      Z:    -0.0003     Total:     1.8298


*** tstop() called on node35.bme.utexas.edu at Wed Feb  3 07:48:02 2021
Module time:
	user time   =     131.04 seconds =       2.18 minutes
	system time =      10.23 seconds =       0.17 minutes
	total time  =         22 seconds =       0.37 minutes
Total time:
	user time   =     185.39 seconds =       3.09 minutes
	system time =      13.62 seconds =       0.23 minutes
	total time  =         31 seconds =       0.52 minutes

    Psi4 stopped on: Wednesday, 03 February 2021 07:48AM
    Psi4 wall time for execution: 0:00:30.78

*** Psi4 exiting successfully. Buy a developer a beer!
