
    -----------------------------------------------------------------------
          Psi4: An Open-Source Ab Initio Electronic Structure Package
                               Psi4 1.4a3.dev225 

                         Git: Rev {master} 7105e37 


    D. G. A. Smith, L. A. Burns, A. C. Simmonett, R. M. Parrish,
    M. C. Schieber, R. Galvelis, P. Kraus, H. Kruse, R. Di Remigio,
    A. Alenaizan, A. M. James, S. Lehtola, J. P. Misiewicz, M. Scheurer,
    R. A. Shaw, J. B. Schriber, Y. Xie, Z. L. Glick, D. A. Sirianni,
    J. S. O'Brien, J. M. Waldrop, A. Kumar, E. G. Hohenstein,
    B. P. Pritchard, B. R. Brooks, H. F. Schaefer III, A. Yu. Sokolov,
    K. Patkowski, A. E. DePrince III, U. Bozkaya, R. A. King,
    F. A. Evangelista, J. M. Turney, T. D. Crawford, C. D. Sherrill,
    J. Chem. Phys. 152(18) 184108 (2020). https://doi.org/10.1063/5.0006002

                            Additional Code Authors
    E. T. Seidl, C. L. Janssen, E. F. Valeev, M. L. Leininger,
    J. F. Gonthier, R. M. Richard, H. R. McAlexander, M. Saitow, X. Wang,
    P. Verma, and M. H. Lechner

             Previous Authors, Complete List of Code Contributors,
                       and Citations for Specific Modules
    https://github.com/psi4/psi4/blob/master/codemeta.json
    https://github.com/psi4/psi4/graphs/contributors
    http://psicode.org/psi4manual/master/introduction.html#citing-psifour

    -----------------------------------------------------------------------


    Psi4 started on: Saturday, 20 March 2021 06:36AM

    Process ID: 179544
    Host:       c446-023.stampede2.tacc.utexas.edu
    PSIDATADIR: /home1/07844/xy3866/miniconda3/envs/p4env/share/psi4
    Memory:     500.0 MiB
    Threads:    32
    
  ==> Input File <==

--------------------------------------------------------------------------
#psi4
#
memory 32 gb

molecule  {
0 1
  S        1.1830230     0.0407500    -0.0002230
  N       -1.2657710    -0.7786410     0.0002510
  C       -0.0644320     1.2156230    -0.0000300
  C       -1.2909180     0.6144307     0.0002338
  C       -0.0184830    -1.1998720     0.0000480
  H        0.1541650     2.2748950    -0.0001110
  H       -2.2450570     1.1086030     0.0003980
  H        0.2637610    -2.2461300     0.0000230
units angstrom
no_reorient  #important for SAPT in psi4, default
symmetry c1  #important for SAPT in psi4, default
}

set PROPERTIES_ORIGIN ["COM"]
properties('MP2/aug-cc-pvtz', properties = ['dipole'])
--------------------------------------------------------------------------

  Memory set to  29.802 GiB by Python driver.
    SCF Algorithm Type (re)set to DF.

*** tstart() called on c446-023.stampede2.tacc.utexas.edu
*** at Sat Mar 20 06:36:26 2021

   => Loading Basis Set <=

    Name: AUG-CC-PVTZ
    Role: ORBITAL
    Keyword: BASIS
    atoms 1   entry S          line   906 file /home1/07844/xy3866/miniconda3/envs/p4env/share/psi4/basis/aug-cc-pvtz.gbs 
    atoms 2   entry N          line   285 file /home1/07844/xy3866/miniconda3/envs/p4env/share/psi4/basis/aug-cc-pvtz.gbs 
    atoms 3-5 entry C          line   239 file /home1/07844/xy3866/miniconda3/envs/p4env/share/psi4/basis/aug-cc-pvtz.gbs 
    atoms 6-8 entry H          line    40 file /home1/07844/xy3866/miniconda3/envs/p4env/share/psi4/basis/aug-cc-pvtz.gbs 


         ---------------------------------------------------------
                                   SCF
               by Justin Turney, Rob Parrish, Andy Simmonett
                          and Daniel G. A. Smith
                              RHF Reference
                       32 Threads,  30517 MiB Core
         ---------------------------------------------------------

  ==> Geometry <==

    Molecular point group: c1
    Full point group: C1

    Geometry (in Angstrom), charge = 0, multiplicity = 1:

       Center              X                  Y                   Z               Mass       
    ------------   -----------------  -----------------  -----------------  -----------------
         S            1.162180470950     0.051244962170    -0.000219694364    31.972071174400
         N           -1.286613529050    -0.768146037830     0.000254305636    14.003074004430
         C           -0.085274529050     1.226117962170    -0.000026694364    12.000000000000
         C           -1.311760529050     0.624925662170     0.000237105636    12.000000000000
         C           -0.039325529050    -1.189377037830     0.000051305636    12.000000000000
         H            0.133322470950     2.285389962170    -0.000107694364     1.007825032230
         H           -2.265899529050     1.119097962170     0.000401305636     1.007825032230
         H            0.242918470950    -2.235635037830     0.000026305636     1.007825032230

  Running in c1 symmetry.

  Rotational constants: A =      0.28363  B =      0.18215  C =      0.11092 [cm^-1]
  Rotational constants: A =   8503.13036  B =   5460.75223  C =   3325.25626 [MHz]
  Nuclear repulsion =  204.600153621861949

  Charge       = 0
  Multiplicity = 1
  Electrons    = 44
  Nalpha       = 22
  Nbeta        = 22

  ==> Algorithm <==

  SCF Algorithm Type is DF.
  DIIS enabled.
  MOM disabled.
  Fractional occupation disabled.
  Guess Type is SAD.
  Energy threshold   = 1.00e-10
  Density threshold  = 1.00e-10
  Integral threshold = 1.00e-12

  ==> Primary Basis <==

  Basis Set: AUG-CC-PVTZ
    Blend: AUG-CC-PVTZ
    Number of shells: 99
    Number of basis functions: 303
    Number of Cartesian functions: 354
    Spherical Harmonics?: true
    Max angular momentum: 3

   => Loading Basis Set <=

    Name: (AUG-CC-PVTZ AUX)
    Role: JKFIT
    Keyword: DF_BASIS_SCF
    atoms 1   entry S          line   730 file /home1/07844/xy3866/miniconda3/envs/p4env/share/psi4/basis/aug-cc-pvtz-jkfit.gbs 
    atoms 2   entry N          line   224 file /home1/07844/xy3866/miniconda3/envs/p4env/share/psi4/basis/aug-cc-pvtz-jkfit.gbs 
    atoms 3-5 entry C          line   162 file /home1/07844/xy3866/miniconda3/envs/p4env/share/psi4/basis/aug-cc-pvtz-jkfit.gbs 
    atoms 6-8 entry H          line    70 file /home1/07844/xy3866/miniconda3/envs/p4env/share/psi4/basis/aug-cc-pvtz-jkfit.gbs 

  ==> Integral Setup <==

  DFHelper Memory: AOs need 0.521 GiB; user supplied 22.352 GiB. Using in-core AOs.

  ==> MemDFJK: Density-Fitted J/K Matrices <==

    J tasked:                   Yes
    K tasked:                   Yes
    wK tasked:                   No
    OpenMP threads:              32
    Memory [MiB]:             22888
    Algorithm:                 Core
    Schwarz Cutoff:           1E-12
    Mask sparsity (%):       0.4814
    Fitting Condition:        1E-10

   => Auxiliary Basis Set <=

  Basis Set: (AUG-CC-PVTZ AUX)
    Blend: AUG-CC-PVTZ-JKFIT
    Number of shells: 204
    Number of basis functions: 700
    Number of Cartesian functions: 869
    Spherical Harmonics?: true
    Max angular momentum: 4

  Minimum eigenvalue in the overlap matrix is 1.1181718188E-05.
  Reciprocal condition number of the overlap matrix is 8.6913222444E-07.
    Using symmetric orthogonalization.

  ==> Pre-Iterations <==

  SCF Guess: Superposition of Atomic Densities via on-the-fly atomic UHF (no occupation information).

   -------------------------
    Irrep   Nso     Nmo    
   -------------------------
     A        303     303 
   -------------------------
    Total     303     303
   -------------------------

  ==> Iterations <==

                           Total Energy        Delta E     RMS |[F,P]|

   @DF-RHF iter SAD:  -567.01483890983900   -5.67015e+02   0.00000e+00 
   @DF-RHF iter   1:  -567.22985025832509   -2.15011e-01   1.64759e-03 DIIS
   @DF-RHF iter   2:  -567.30952209285965   -7.96718e-02   1.24241e-03 DIIS
   @DF-RHF iter   3:  -567.37898419267253   -6.94621e-02   1.88702e-04 DIIS
   @DF-RHF iter   4:  -567.38208618568092   -3.10199e-03   7.99593e-05 DIIS
   @DF-RHF iter   5:  -567.38264286791150   -5.56682e-04   2.82306e-05 DIIS
   @DF-RHF iter   6:  -567.38278033559902   -1.37468e-04   1.25011e-05 DIIS
   @DF-RHF iter   7:  -567.38282143647655   -4.11009e-05   4.12274e-06 DIIS
   @DF-RHF iter   8:  -567.38282431699656   -2.88052e-06   1.86367e-06 DIIS
   @DF-RHF iter   9:  -567.38282482262412   -5.05628e-07   4.17979e-07 DIIS
   @DF-RHF iter  10:  -567.38282485078059   -2.81565e-08   1.58783e-07 DIIS
   @DF-RHF iter  11:  -567.38282485432853   -3.54794e-09   5.98228e-08 DIIS
   @DF-RHF iter  12:  -567.38282485476009   -4.31555e-10   1.46743e-08 DIIS
   @DF-RHF iter  13:  -567.38282485478385   -2.37605e-11   6.13864e-09 DIIS
   @DF-RHF iter  14:  -567.38282485478783   -3.97904e-12   1.54818e-09 DIIS
   @DF-RHF iter  15:  -567.38282485478726    5.68434e-13   7.58303e-10 DIIS
   @DF-RHF iter  16:  -567.38282485478771   -4.54747e-13   3.32041e-10 DIIS
   @DF-RHF iter  17:  -567.38282485478760    1.13687e-13   1.24194e-10 DIIS
   @DF-RHF iter  18:  -567.38282485478703    5.68434e-13   5.74450e-11 DIIS
  Energy and wave function converged.


  ==> Post-Iterations <==

    Orbital Energies [Eh]
    ---------------------

    Doubly Occupied:                                                      

       1A    -92.002731     2A    -15.579691     3A    -11.314444  
       4A    -11.274943     5A    -11.271041     6A     -9.003618  
       7A     -6.684521     8A     -6.683984     9A     -6.683263  
      10A     -1.275835    11A     -1.069862    12A     -1.004889  
      13A     -0.802749    14A     -0.778606    15A     -0.697967  
      16A     -0.594812    17A     -0.568853    18A     -0.560489  
      19A     -0.513614    20A     -0.436345    21A     -0.392323  
      22A     -0.345930  

    Virtual:                                                              

      23A      0.029109    24A      0.034941    25A      0.041382  
      26A      0.068662    27A      0.082508    28A      0.085165  
      29A      0.091255    30A      0.105615    31A      0.106137  
      32A      0.107253    33A      0.113068    34A      0.114551  
      35A      0.126823    36A      0.132958    37A      0.140279  
      38A      0.148759    39A      0.153594    40A      0.176266  
      41A      0.186686    42A      0.190998    43A      0.202277  
      44A      0.208931    45A      0.209646    46A      0.228592  
      47A      0.256142    48A      0.257214    49A      0.265500  
      50A      0.270367    51A      0.287729    52A      0.310611  
      53A      0.319681    54A      0.320338    55A      0.323584  
      56A      0.337180    57A      0.345734    58A      0.362299  
      59A      0.374192    60A      0.381560    61A      0.395108  
      62A      0.395149    63A      0.407321    64A      0.409155  
      65A      0.412644    66A      0.438369    67A      0.443669  
      68A      0.451430    69A      0.461045    70A      0.462413  
      71A      0.467759    72A      0.474570    73A      0.492355  
      74A      0.502010    75A      0.508806    76A      0.519379  
      77A      0.538064    78A      0.549459    79A      0.555872  
      80A      0.581468    81A      0.585760    82A      0.611524  
      83A      0.625434    84A      0.636515    85A      0.671732  
      86A      0.671736    87A      0.679018    88A      0.686019  
      89A      0.712755    90A      0.721492    91A      0.731024  
      92A      0.739284    93A      0.751237    94A      0.755848  
      95A      0.762807    96A      0.775275    97A      0.804760  
      98A      0.827954    99A      0.845572   100A      0.847793  
     101A      0.855504   102A      0.863444   103A      0.876478  
     104A      0.892939   105A      0.912370   106A      0.923781  
     107A      0.931402   108A      0.938288   109A      0.940393  
     110A      0.954677   111A      0.959458   112A      0.988259  
     113A      0.993234   114A      0.993830   115A      1.003807  
     116A      1.025123   117A      1.025518   118A      1.043587  
     119A      1.059970   120A      1.062863   121A      1.071150  
     122A      1.083191   123A      1.090435   124A      1.121390  
     125A      1.122726   126A      1.133152   127A      1.150169  
     128A      1.151222   129A      1.162915   130A      1.192063  
     131A      1.198900   132A      1.207693   133A      1.235231  
     134A      1.271203   135A      1.283792   136A      1.295258  
     137A      1.303571   138A      1.325243   139A      1.369844  
     140A      1.384343   141A      1.403232   142A      1.425369  
     143A      1.443728   144A      1.460185   145A      1.477794  
     146A      1.482959   147A      1.495614   148A      1.534443  
     149A      1.548115   150A      1.550528   151A      1.591520  
     152A      1.612920   153A      1.614007   154A      1.646847  
     155A      1.648184   156A      1.683713   157A      1.696835  
     158A      1.739079   159A      1.739229   160A      1.775292  
     161A      1.780395   162A      1.787816   163A      1.824239  
     164A      1.829008   165A      1.885097   166A      1.892846  
     167A      1.906143   168A      1.907928   169A      1.934035  
     170A      1.952833   171A      1.987166   172A      2.014736  
     173A      2.026488   174A      2.032948   175A      2.063080  
     176A      2.113238   177A      2.123050   178A      2.133278  
     179A      2.163076   180A      2.169233   181A      2.192526  
     182A      2.218724   183A      2.243380   184A      2.270730  
     185A      2.288263   186A      2.294376   187A      2.349955  
     188A      2.358308   189A      2.368565   190A      2.386884  
     191A      2.413543   192A      2.497236   193A      2.501442  
     194A      2.532359   195A      2.557498   196A      2.557740  
     197A      2.573012   198A      2.590931   199A      2.612069  
     200A      2.636099   201A      2.738161   202A      2.762516  
     203A      2.782447   204A      2.842904   205A      2.865226  
     206A      2.932953   207A      2.944535   208A      2.996472  
     209A      3.003311   210A      3.088215   211A      3.101191  
     212A      3.184165   213A      3.214994   214A      3.241215  
     215A      3.271970   216A      3.286864   217A      3.325298  
     218A      3.441442   219A      3.456047   220A      3.475347  
     221A      3.503208   222A      3.525027   223A      3.526910  
     224A      3.591889   225A      3.601897   226A      3.626458  
     227A      3.638083   228A      3.684284   229A      3.721881  
     230A      3.729064   231A      3.753608   232A      3.791465  
     233A      3.794348   234A      3.812446   235A      3.836044  
     236A      3.838470   237A      3.902893   238A      3.924790  
     239A      3.928996   240A      3.958276   241A      3.997632  
     242A      3.998401   243A      4.023548   244A      4.061424  
     245A      4.094678   246A      4.114596   247A      4.175412  
     248A      4.182466   249A      4.242418   250A      4.247741  
     251A      4.252906   252A      4.274516   253A      4.335537  
     254A      4.356265   255A      4.373784   256A      4.392606  
     257A      4.459658   258A      4.495773   259A      4.543063  
     260A      4.567477   261A      4.661201   262A      4.723915  
     263A      4.765983   264A      4.818391   265A      4.855983  
     266A      4.889370   267A      4.932468   268A      4.945312  
     269A      5.050681   270A      5.081559   271A      5.082653  
     272A      5.131913   273A      5.156792   274A      5.158995  
     275A      5.223921   276A      5.281724   277A      5.369404  
     278A      5.456651   279A      5.503952   280A      5.504616  
     281A      5.567157   282A      5.657707   283A      5.676087  
     284A      5.722621   285A      5.763077   286A      5.804100  
     287A      5.829629   288A      5.947802   289A      5.948858  
     290A      6.048913   291A      6.204664   292A      6.308215  
     293A      6.441445   294A      6.515398   295A      6.555818  
     296A      6.697727   297A      6.946831   298A      6.978601  
     299A      8.237812   300A     15.370322   301A     15.996163  
     302A     16.506052   303A     17.417947  

    Final Occupation by Irrep:
              A 
    DOCC [    22 ]

  @DF-RHF Final Energy:  -567.38282485478703

   => Energetics <=

    Nuclear Repulsion Energy =            204.6001536218619492
    One-Electron Energy =               -1184.8849398584525261
    Two-Electron Energy =                 412.9019613818035168
    Total Energy =                       -567.3828248547870317

Computation Completed

*** tstop() called on c446-023.stampede2.tacc.utexas.edu at Sat Mar 20 06:36:37 2021
Module time:
	user time   =     144.64 seconds =       2.41 minutes
	system time =      15.17 seconds =       0.25 minutes
	total time  =         11 seconds =       0.18 minutes
Total time:
	user time   =     144.64 seconds =       2.41 minutes
	system time =      15.17 seconds =       0.25 minutes
	total time  =         11 seconds =       0.18 minutes
   => Loading Basis Set <=

    Name: (AUG-CC-PVTZ AUX)
    Role: RIFIT
    Keyword: DF_BASIS_MP2
    atoms 1   entry S          line   666 file /home1/07844/xy3866/miniconda3/envs/p4env/share/psi4/basis/aug-cc-pvtz-ri.gbs 
    atoms 2   entry N          line   206 file /home1/07844/xy3866/miniconda3/envs/p4env/share/psi4/basis/aug-cc-pvtz-ri.gbs 
    atoms 3-5 entry C          line   148 file /home1/07844/xy3866/miniconda3/envs/p4env/share/psi4/basis/aug-cc-pvtz-ri.gbs 
    atoms 6-8 entry H          line    30 file /home1/07844/xy3866/miniconda3/envs/p4env/share/psi4/basis/aug-cc-pvtz-ri.gbs 


*** tstart() called on c446-023.stampede2.tacc.utexas.edu
*** at Sat Mar 20 06:36:38 2021


  //>>>>>>>>>>>>>>>>>>>>>>>>>>>>>>>>>>>//
  //               DFMP2               //
  //<<<<<<<<<<<<<<<<<<<<<<<<<<<<<<<<<<<//

	 --------------------------------------------------------
	                          DF-MP2                         
	      2nd-Order Density-Fitted Moller-Plesset Theory     
	              RMP2 Wavefunction,  32 Threads             
	                                                         
	        Rob Parrish, Justin Turney, Andy Simmonett,      
	           Ed Hohenstein, and C. David Sherrill          
	 --------------------------------------------------------

   => Auxiliary Basis Set <=

  Basis Set: (AUG-CC-PVTZ AUX)
    Blend: AUG-CC-PVTZ-RI
    Number of shells: 191
    Number of basis functions: 709
    Number of Cartesian functions: 900
    Spherical Harmonics?: true
    Max angular momentum: 4

	 --------------------------------------------------------
	                 NBF =   303, NAUX =   709
	 --------------------------------------------------------
	   CLASS    FOCC     OCC    AOCC    AVIR     VIR    FVIR
	   PAIRS       0      22      22     281     281       0
	 --------------------------------------------------------

  DFHelper Memory: AOs need 0.521 GiB; user supplied 22.352 GiB. Using in-core AOs.


         ------------------------------------------------------------
                                     CPHF                           
                                  Rob Parrish                       
         ------------------------------------------------------------

  ==> Geometry <==

    Molecular point group: c1
    Full point group: C1

    Geometry (in Angstrom), charge = 0, multiplicity = 1:

       Center              X                  Y                   Z               Mass       
    ------------   -----------------  -----------------  -----------------  -----------------
         S            1.162180470950     0.051244962170    -0.000219694364    31.972071174400
         N           -1.286613529050    -0.768146037830     0.000254305636    14.003074004430
         C           -0.085274529050     1.226117962170    -0.000026694364    12.000000000000
         C           -1.311760529050     0.624925662170     0.000237105636    12.000000000000
         C           -0.039325529050    -1.189377037830     0.000051305636    12.000000000000
         H            0.133322470950     2.285389962170    -0.000107694364     1.007825032230
         H           -2.265899529050     1.119097962170     0.000401305636     1.007825032230
         H            0.242918470950    -2.235635037830     0.000026305636     1.007825032230

  Nuclear repulsion =  204.600153621861949
  Reference energy  = -567.382824854787032

  ==> Basis Set <==

  Basis Set: AUG-CC-PVTZ
    Blend: AUG-CC-PVTZ
    Number of shells: 99
    Number of basis functions: 303
    Number of Cartesian functions: 354
    Spherical Harmonics?: true
    Max angular momentum: 3

  ==> CGRSolver (by Rob Parrish) <==

   Number of roots    =         1
   Preconditioning    =    JACOBI
   Convergence cutoff =     1E-06
   Maximum iterations =       100

  ==> CPHFRHamiltonian (by Rob Parrish) <== 

  ==> MemDFJK: Density-Fitted J/K Matrices <==

    J tasked:                   Yes
    K tasked:                   Yes
    wK tasked:                   No
    OpenMP threads:              32
    Memory [MiB]:             22888
    Algorithm:                 Core
    Schwarz Cutoff:           1E-12
    Mask sparsity (%):       0.3660
    Fitting Condition:        1E-10

   => Auxiliary Basis Set <=

  Basis Set: (AUG-CC-PVTZ AUX)
    Blend: AUG-CC-PVTZ-JKFIT
    Number of shells: 204
    Number of basis functions: 700
    Number of Cartesian functions: 869
    Spherical Harmonics?: true
    Max angular momentum: 4

  ==> CPHF Iterations <==

  => Iterations <=

             Iter  Converged  Remaining    Residual
  CGR           1          0          1   1.357E-01
  CGR           2          0          1   4.468E-02
  CGR           3          0          1   2.056E-02
  CGR           4          0          1   8.305E-03
  CGR           5          0          1   2.418E-03
  CGR           6          0          1   8.622E-04
  CGR           7          0          1   4.249E-04
  CGR           8          0          1   1.826E-04
  CGR           9          0          1   6.696E-05
  CGR          10          0          1   2.554E-05
  CGR          11          0          1   8.761E-06
  CGR          12          0          1   2.970E-06
  CGR          13          1          0   8.922E-07

    CGRSolver converged.

	-----------------------------------------------------------
	 ==================> DF-MP2 Energies <==================== 
	-----------------------------------------------------------
	 Reference Energy          =    -567.3828248547870317 [Eh]
	 Singles Energy            =      -0.0000000000000000 [Eh]
	 Same-Spin Energy          =      -0.2453649541851837 [Eh]
	 Opposite-Spin Energy      =      -0.7300617048503442 [Eh]
	 Correlation Energy        =      -0.9754266590355278 [Eh]
	 Total Energy              =    -568.3582515138225517 [Eh]
	-----------------------------------------------------------
	 ================> DF-SCS-MP2 Energies <================== 
	-----------------------------------------------------------
	 SCS Same-Spin Scale       =       0.3333333333333333 [-]
	 SCS Opposite-Spin Scale   =       1.2000000000000000 [-]
	 SCS Same-Spin Energy      =      -0.0817883180617279 [Eh]
	 SCS Opposite-Spin Energy  =      -0.8760740458204129 [Eh]
	 SCS Correlation Energy    =      -0.9578623638821409 [Eh]
	 SCS Total Energy          =    -568.3406872186691317 [Eh]
	-----------------------------------------------------------



Properties will be evaluated at   0.000000,  -0.000000,   0.000000 [a0]

Properties computed using the MP2 density matrix

  Nuclear Dipole Moment: [e a0]
     X:    -1.7371      Y:     1.0993      Z:     0.0003

  Electronic Dipole Moment: [e a0]
     X:     2.2718      Y:    -0.6345      Z:    -0.0004

  Dipole Moment: [e a0]
     X:     0.5348      Y:     0.4649      Z:    -0.0001     Total:     0.7086

  Dipole Moment: [D]
     X:     1.3592      Y:     1.1816      Z:    -0.0003     Total:     1.8010


*** tstop() called on c446-023.stampede2.tacc.utexas.edu at Sat Mar 20 06:37:47 2021
Module time:
	user time   =     297.01 seconds =       4.95 minutes
	system time =      14.30 seconds =       0.24 minutes
	total time  =         69 seconds =       1.15 minutes
Total time:
	user time   =     443.67 seconds =       7.39 minutes
	system time =      29.67 seconds =       0.49 minutes
	total time  =         81 seconds =       1.35 minutes

    Psi4 stopped on: Saturday, 20 March 2021 06:37AM
    Psi4 wall time for execution: 0:01:20.83

*** Psi4 exiting successfully. Buy a developer a beer!
