
    -----------------------------------------------------------------------
          Psi4: An Open-Source Ab Initio Electronic Structure Package
                               Psi4 1.3.2 release

                         Git: Rev {HEAD} ecbda83 


    R. M. Parrish, L. A. Burns, D. G. A. Smith, A. C. Simmonett,
    A. E. DePrince III, E. G. Hohenstein, U. Bozkaya, A. Yu. Sokolov,
    R. Di Remigio, R. M. Richard, J. F. Gonthier, A. M. James,
    H. R. McAlexander, A. Kumar, M. Saitow, X. Wang, B. P. Pritchard,
    P. Verma, H. F. Schaefer III, K. Patkowski, R. A. King, E. F. Valeev,
    F. A. Evangelista, J. M. Turney, T. D. Crawford, and C. D. Sherrill,
    J. Chem. Theory Comput. 13(7) pp 3185--3197 (2017).
    (doi: 10.1021/acs.jctc.7b00174)


                         Additional Contributions by
    P. Kraus, H. Kruse, M. H. Lechner, M. C. Schieber, R. A. Shaw,
    A. Alenaizan, R. Galvelis, Z. L. Glick, S. Lehtola, and J. P. Misiewicz

    -----------------------------------------------------------------------


    Psi4 started on: Wednesday, 04 November 2020 12:46AM

    Process ID: 116228
    Host:       node93.bme.utexas.edu
    PSIDATADIR: /home/xy3866/psi4conda/share/psi4
    Memory:     500.0 MiB
    Threads:    8
    
  ==> Input File <==

--------------------------------------------------------------------------
#psi4
#
memory 32 gb

molecule  {
-1 1
  O       -1.4366360    -1.1870470     0.0571230
  O       -1.4476160     1.0691130    -0.2107340
  N        1.2636070     1.2939420     0.0706720
  C        0.6179830     0.0092170     0.3932550
  C        1.4068670    -1.1350240    -0.2248910
  C       -0.9849590    -0.0486378     0.0052936
  H        0.6585810    -0.1007720     1.4894850
  H        2.4544500    -1.1027320     0.0899700
  H        0.9700140    -2.0919800     0.0583780
  H        1.3764410    -1.0627810    -1.3188240
  H        0.5133110     1.9810410     0.1712720
  H        1.4338170     1.2887330    -0.9390950
units angstrom
no_reorient  #important for SAPT in psi4, default
symmetry c1  #important for SAPT in psi4, default
}

set PROPERTIES_ORIGIN ["COM"]
properties('MP2/aug-cc-pvtz', properties = ['dipole'])
--------------------------------------------------------------------------

  Memory set to  29.802 GiB by Python driver.
    SCF Algorithm Type (re)set to DF.

*** tstart() called on node93.bme.utexas.edu
*** at Wed Nov  4 00:46:46 2020

   => Loading Basis Set <=

    Name: AUG-CC-PVTZ
    Role: ORBITAL
    Keyword: BASIS
    atoms 1-2  entry O          line   327 file /home/xy3866/psi4conda/share/psi4/basis/aug-cc-pvtz.gbs 
    atoms 3    entry N          line   281 file /home/xy3866/psi4conda/share/psi4/basis/aug-cc-pvtz.gbs 
    atoms 4-6  entry C          line   235 file /home/xy3866/psi4conda/share/psi4/basis/aug-cc-pvtz.gbs 
    atoms 7-12 entry H          line    36 file /home/xy3866/psi4conda/share/psi4/basis/aug-cc-pvtz.gbs 


         ---------------------------------------------------------
                                   SCF
               by Justin Turney, Rob Parrish, Andy Simmonett
                          and Daniel G. A. Smith
                              RHF Reference
                        8 Threads,  30517 MiB Core
         ---------------------------------------------------------

  ==> Geometry <==

    Molecular point group: c1
    Full point group: C1

    Geometry (in Angstrom), charge = -1, multiplicity = 1:

       Center              X                  Y                   Z               Mass       
    ------------   -----------------  -----------------  -----------------  -----------------
         O           -1.340137439145    -1.198887947081     0.055257985169    15.994914619570
         O           -1.351117439145     1.057272052919    -0.212599014831    15.994914619570
         N            1.360105560855     1.282101052919     0.068806985169    14.003074004430
         C            0.714481560855    -0.002623947081     0.391389985169    12.000000000000
         C            1.503365560855    -1.146864947081    -0.226756014831    12.000000000000
         C           -0.888460439145    -0.060478747081     0.003428585169    12.000000000000
         H            0.755079560855    -0.112612947081     1.487619985169     1.007825032230
         H            2.550948560855    -1.114572947081     0.088104985169     1.007825032230
         H            1.066512560855    -2.103820947081     0.056512985169     1.007825032230
         H            1.472939560855    -1.074621947081    -1.320689014831     1.007825032230
         H            0.609809560855     1.969200052919     0.169406985169     1.007825032230
         H            1.530315560855     1.276892052919    -0.940960014831     1.007825032230

  Running in c1 symmetry.

  Rotational constants: A =      0.16846  B =      0.11373  C =      0.07268 [cm^-1]
  Rotational constants: A =   5050.18877  B =   3409.44240  C =   2178.93911 [MHz]
  Nuclear repulsion =  237.825316449914482

  Charge       = -1
  Multiplicity = 1
  Electrons    = 48
  Nalpha       = 24
  Nbeta        = 24

  ==> Algorithm <==

  SCF Algorithm Type is DF.
  DIIS enabled.
  MOM disabled.
  Fractional occupation disabled.
  Guess Type is SAD.
  Energy threshold   = 1.00e-10
  Density threshold  = 1.00e-10
  Integral threshold = 0.00e+00

  ==> Primary Basis <==

  Basis Set: AUG-CC-PVTZ
    Blend: AUG-CC-PVTZ
    Number of shells: 138
    Number of basis function: 414
    Number of Cartesian functions: 480
    Spherical Harmonics?: true
    Max angular momentum: 3

   => Loading Basis Set <=

    Name: (AUG-CC-PVTZ AUX)
    Role: JKFIT
    Keyword: DF_BASIS_SCF
    atoms 1-2  entry O          line   286 file /home/xy3866/psi4conda/share/psi4/basis/aug-cc-pvtz-jkfit.gbs 
    atoms 3    entry N          line   224 file /home/xy3866/psi4conda/share/psi4/basis/aug-cc-pvtz-jkfit.gbs 
    atoms 4-6  entry C          line   162 file /home/xy3866/psi4conda/share/psi4/basis/aug-cc-pvtz-jkfit.gbs 
    atoms 7-12 entry H          line    70 file /home/xy3866/psi4conda/share/psi4/basis/aug-cc-pvtz-jkfit.gbs 

  ==> Pre-Iterations <==

   -------------------------------------------------------
    Irrep   Nso     Nmo     Nalpha   Nbeta   Ndocc  Nsocc
   -------------------------------------------------------
     A        414     414       0       0       0       0
   -------------------------------------------------------
    Total     414     414      24      24      24       0
   -------------------------------------------------------

  ==> Integral Setup <==

  DFHelper Memory: AOs need 1.184 GiB; user supplied 22.352 GiB. Using in-core AOs.

  ==> MemDFJK: Density-Fitted J/K Matrices <==

    J tasked:                   Yes
    K tasked:                   Yes
    wK tasked:                   No
    OpenMP threads:               8
    Memory [MiB]:             22888
    Algorithm:                 Core
    Schwarz Cutoff:           1E-12
    Mask sparsity (%):       1.3559
    Fitting Condition:        1E-10

   => Auxiliary Basis Set <=

  Basis Set: (AUG-CC-PVTZ AUX)
    Blend: AUG-CC-PVTZ-JKFIT
    Number of shells: 264
    Number of basis function: 900
    Number of Cartesian functions: 1116
    Spherical Harmonics?: true
    Max angular momentum: 4

  Minimum eigenvalue in the overlap matrix is 1.0959017604E-05.
  Using Symmetric Orthogonalization.

  SCF Guess: Superposition of Atomic Densities via on-the-fly atomic UHF.

  ==> Iterations <==

                           Total Energy        Delta E     RMS |[F,P]|

   @DF-RHF iter SAD:  -320.25964905255927   -3.20260e+02   0.00000e+00 
   @DF-RHF iter   1:  -321.13768669721208   -8.78038e-01   1.90465e-03 DIIS
   @DF-RHF iter   2:  -321.34947934093969   -2.11793e-01   1.12966e-03 DIIS
   @DF-RHF iter   3:  -321.42427399092014   -7.47946e-02   1.34322e-04 DIIS
   @DF-RHF iter   4:  -321.42660021317676   -2.32622e-03   5.53815e-05 DIIS
   @DF-RHF iter   5:  -321.42691678679091   -3.16574e-04   1.19727e-05 DIIS
   @DF-RHF iter   6:  -321.42693680115485   -2.00144e-05   3.67994e-06 DIIS
   @DF-RHF iter   7:  -321.42693862507440   -1.82392e-06   1.17047e-06 DIIS
   @DF-RHF iter   8:  -321.42693882583404   -2.00760e-07   4.06373e-07 DIIS
   @DF-RHF iter   9:  -321.42693884725185   -2.14178e-08   1.57005e-07 DIIS
   @DF-RHF iter  10:  -321.42693885086373   -3.61189e-09   4.76004e-08 DIIS
   @DF-RHF iter  11:  -321.42693885130529   -4.41560e-10   1.66818e-08 DIIS
   @DF-RHF iter  12:  -321.42693885135543   -5.01359e-11   5.34201e-09 DIIS
   @DF-RHF iter  13:  -321.42693885136066   -5.22959e-12   1.65005e-09 DIIS
   @DF-RHF iter  14:  -321.42693885136219   -1.53477e-12   5.27067e-10 DIIS
   @DF-RHF iter  15:  -321.42693885136066    1.53477e-12   2.33828e-10 DIIS
   @DF-RHF iter  16:  -321.42693885136066    0.00000e+00   9.03996e-11 DIIS
  Energy and wave function converged.


  ==> Post-Iterations <==

    Orbital Energies [Eh]
    ---------------------

    Doubly Occupied:                                                      

       1A    -20.307446     2A    -20.304000     3A    -15.379414  
       4A    -11.140658     5A    -11.080866     6A    -11.064267  
       7A     -1.194730     8A     -1.102824     9A     -1.012998  
      10A     -0.830910    11A     -0.669876    12A     -0.526890  
      13A     -0.495152    14A     -0.466412    15A     -0.434579  
      16A     -0.414254    17A     -0.389639    18A     -0.376687  
      19A     -0.344642    20A     -0.324231    21A     -0.281394  
      22A     -0.228587    23A     -0.214836    24A     -0.169414  

    Virtual:                                                              

      25A      0.122595    26A      0.133082    27A      0.135877  
      28A      0.143326    29A      0.155182    30A      0.160747  
      31A      0.190459    32A      0.205890    33A      0.210835  
      34A      0.223769    35A      0.240277    36A      0.242460  
      37A      0.246696    38A      0.250114    39A      0.256963  
      40A      0.266918    41A      0.273381    42A      0.281096  
      43A      0.303862    44A      0.308313    45A      0.324011  
      46A      0.337995    47A      0.359757    48A      0.367656  
      49A      0.374565    50A      0.377084    51A      0.391530  
      52A      0.398188    53A      0.404610    54A      0.414435  
      55A      0.424499    56A      0.427792    57A      0.444916  
      58A      0.453563    59A      0.463653    60A      0.467665  
      61A      0.474262    62A      0.481582    63A      0.486011  
      64A      0.492905    65A      0.501362    66A      0.511962  
      67A      0.516789    68A      0.527236    69A      0.538071  
      70A      0.544711    71A      0.558508    72A      0.564119  
      73A      0.573250    74A      0.575674    75A      0.583590  
      76A      0.591266    77A      0.593726    78A      0.607110  
      79A      0.619689    80A      0.620789    81A      0.632766  
      82A      0.642435    83A      0.650197    84A      0.651985  
      85A      0.663660    86A      0.673657    87A      0.680811  
      88A      0.704128    89A      0.704844    90A      0.715713  
      91A      0.726954    92A      0.729862    93A      0.745185  
      94A      0.767094    95A      0.770251    96A      0.791555  
      97A      0.809098    98A      0.811407    99A      0.839163  
     100A      0.857908   101A      0.861364   102A      0.887750  
     103A      0.891308   104A      0.900556   105A      0.912438  
     106A      0.937008   107A      0.944946   108A      0.958866  
     109A      0.966687   110A      0.971960   111A      0.985756  
     112A      0.995199   113A      1.002033   114A      1.009725  
     115A      1.031683   116A      1.033226   117A      1.045012  
     118A      1.051975   119A      1.058905   120A      1.071596  
     121A      1.073449   122A      1.082437   123A      1.096570  
     124A      1.105230   125A      1.124607   126A      1.135828  
     127A      1.144911   128A      1.151950   129A      1.163048  
     130A      1.173129   131A      1.179966   132A      1.196829  
     133A      1.202863   134A      1.212355   135A      1.228451  
     136A      1.234356   137A      1.244169   138A      1.252583  
     139A      1.259597   140A      1.278059   141A      1.289762  
     142A      1.294618   143A      1.303552   144A      1.324619  
     145A      1.331636   146A      1.336888   147A      1.341694  
     148A      1.349403   149A      1.369305   150A      1.379214  
     151A      1.394428   152A      1.402890   153A      1.423399  
     154A      1.442000   155A      1.445957   156A      1.454310  
     157A      1.460825   158A      1.480648   159A      1.483588  
     160A      1.500530   161A      1.511497   162A      1.526092  
     163A      1.552598   164A      1.560949   165A      1.582894  
     166A      1.601466   167A      1.610125   168A      1.640316  
     169A      1.643970   170A      1.649840   171A      1.664221  
     172A      1.675387   173A      1.688732   174A      1.696444  
     175A      1.712888   176A      1.718581   177A      1.739107  
     178A      1.757021   179A      1.776849   180A      1.797072  
     181A      1.797553   182A      1.820220   183A      1.824441  
     184A      1.839312   185A      1.850342   186A      1.860309  
     187A      1.873691   188A      1.886617   189A      1.911680  
     190A      1.920126   191A      1.935863   192A      1.956031  
     193A      1.968309   194A      1.982039   195A      1.995200  
     196A      2.009604   197A      2.021920   198A      2.031335  
     199A      2.052752   200A      2.067354   201A      2.089733  
     202A      2.106308   203A      2.125724   204A      2.131220  
     205A      2.166669   206A      2.176777   207A      2.188853  
     208A      2.210545   209A      2.225931   210A      2.253898  
     211A      2.272289   212A      2.277297   213A      2.301379  
     214A      2.322544   215A      2.346731   216A      2.361122  
     217A      2.381083   218A      2.386408   219A      2.405933  
     220A      2.415241   221A      2.424876   222A      2.455242  
     223A      2.471860   224A      2.516196   225A      2.546591  
     226A      2.550868   227A      2.580628   228A      2.583744  
     229A      2.610594   230A      2.627699   231A      2.650589  
     232A      2.672861   233A      2.687056   234A      2.693326  
     235A      2.710769   236A      2.732554   237A      2.756188  
     238A      2.774894   239A      2.795698   240A      2.813379  
     241A      2.814163   242A      2.822338   243A      2.839216  
     244A      2.845390   245A      2.888244   246A      2.901810  
     247A      2.961991   248A      2.991372   249A      3.012627  
     250A      3.033039   251A      3.051189   252A      3.079901  
     253A      3.094964   254A      3.106076   255A      3.171733  
     256A      3.231656   257A      3.261198   258A      3.271574  
     259A      3.328082   260A      3.377672   261A      3.404643  
     262A      3.414233   263A      3.495764   264A      3.508694  
     265A      3.543870   266A      3.606643   267A      3.637920  
     268A      3.670640   269A      3.686652   270A      3.714853  
     271A      3.749157   272A      3.782029   273A      3.794967  
     274A      3.849974   275A      3.855961   276A      3.870242  
     277A      3.895385   278A      3.900512   279A      3.912590  
     280A      3.948749   281A      3.954216   282A      3.975905  
     283A      3.999975   284A      4.010330   285A      4.023360  
     286A      4.080070   287A      4.086060   288A      4.111244  
     289A      4.124766   290A      4.144201   291A      4.170855  
     292A      4.201180   293A      4.214491   294A      4.241107  
     295A      4.242970   296A      4.261504   297A      4.311522  
     298A      4.329485   299A      4.351215   300A      4.354340  
     301A      4.381941   302A      4.397625   303A      4.406992  
     304A      4.425649   305A      4.455741   306A      4.473470  
     307A      4.504061   308A      4.518122   309A      4.558870  
     310A      4.568316   311A      4.591345   312A      4.624033  
     313A      4.655922   314A      4.671639   315A      4.704691  
     316A      4.728088   317A      4.743172   318A      4.754963  
     319A      4.779680   320A      4.794021   321A      4.820456  
     322A      4.869940   323A      4.897009   324A      4.899803  
     325A      4.954566   326A      4.958765   327A      4.985809  
     328A      5.001991   329A      5.029147   330A      5.068775  
     331A      5.075174   332A      5.096940   333A      5.134479  
     334A      5.153800   335A      5.186938   336A      5.213112  
     337A      5.222515   338A      5.261621   339A      5.291705  
     340A      5.310176   341A      5.339868   342A      5.358068  
     343A      5.373329   344A      5.394347   345A      5.409690  
     346A      5.442663   347A      5.468444   348A      5.505907  
     349A      5.520409   350A      5.556594   351A      5.564810  
     352A      5.593157   353A      5.630192   354A      5.651526  
     355A      5.686192   356A      5.780061   357A      5.806438  
     358A      5.826324   359A      5.879445   360A      5.943422  
     361A      5.982378   362A      6.025734   363A      6.064213  
     364A      6.084236   365A      6.174623   366A      6.232338  
     367A      6.234402   368A      6.272678   369A      6.307075  
     370A      6.308205   371A      6.354917   372A      6.415482  
     373A      6.472264   374A      6.529373   375A      6.618490  
     376A      6.640432   377A      6.703921   378A      6.859587  
     379A      6.928657   380A      6.935018   381A      6.960940  
     382A      6.973564   383A      7.005826   384A      7.052034  
     385A      7.092203   386A      7.136308   387A      7.191619  
     388A      7.202763   389A      7.247988   390A      7.298868  
     391A      7.348582   392A      7.378243   393A      7.462379  
     394A      7.467674   395A      7.558495   396A      7.613948  
     397A      7.638317   398A      7.664938   399A      7.738507  
     400A      7.876625   401A      7.911060   402A      7.949833  
     403A      7.977951   404A      8.050034   405A      8.126040  
     406A      8.134768   407A      8.265663   408A      8.328097  
     409A     15.814233   410A     16.000054   411A     17.075357  
     412A     18.023468   413A     18.611826   414A     18.923032  

    Final Occupation by Irrep:
              A 
    DOCC [    24 ]

  @DF-RHF Final Energy:  -321.42693885136066

   => Energetics <=

    Nuclear Repulsion Energy =            237.8253164499144816
    One-Electron Energy =                -920.9950950665953542
    Two-Electron Energy =                 361.7428397653202410
    Total Energy =                       -321.4269388513606600

Computation Completed

*** tstop() called on node93.bme.utexas.edu at Wed Nov  4 00:46:55 2020
Module time:
	user time   =      54.82 seconds =       0.91 minutes
	system time =       1.49 seconds =       0.02 minutes
	total time  =          9 seconds =       0.15 minutes
Total time:
	user time   =      54.82 seconds =       0.91 minutes
	system time =       1.49 seconds =       0.02 minutes
	total time  =          9 seconds =       0.15 minutes
   => Loading Basis Set <=

    Name: (AUG-CC-PVTZ AUX)
    Role: RIFIT
    Keyword: DF_BASIS_MP2
    atoms 1-2  entry O          line   264 file /home/xy3866/psi4conda/share/psi4/basis/aug-cc-pvtz-ri.gbs 
    atoms 3    entry N          line   206 file /home/xy3866/psi4conda/share/psi4/basis/aug-cc-pvtz-ri.gbs 
    atoms 4-6  entry C          line   148 file /home/xy3866/psi4conda/share/psi4/basis/aug-cc-pvtz-ri.gbs 
    atoms 7-12 entry H          line    30 file /home/xy3866/psi4conda/share/psi4/basis/aug-cc-pvtz-ri.gbs 


*** tstart() called on node93.bme.utexas.edu
*** at Wed Nov  4 00:46:55 2020


  //>>>>>>>>>>>>>>>>>>>>>>>>>>>>>>>>>>>//
  //               DFMP2               //
  //<<<<<<<<<<<<<<<<<<<<<<<<<<<<<<<<<<<//

	 --------------------------------------------------------
	                          DF-MP2                         
	      2nd-Order Density-Fitted Moller-Plesset Theory     
	              RMP2 Wavefunction,   8 Threads             
	                                                         
	        Rob Parrish, Justin Turney, Andy Simmonett,      
	           Ed Hohenstein, and C. David Sherrill          
	 --------------------------------------------------------

   => Auxiliary Basis Set <=

  Basis Set: (AUG-CC-PVTZ AUX)
    Blend: AUG-CC-PVTZ-RI
    Number of shells: 252
    Number of basis function: 912
    Number of Cartesian functions: 1146
    Spherical Harmonics?: true
    Max angular momentum: 4

	 --------------------------------------------------------
	                 NBF =   414, NAUX =   912
	 --------------------------------------------------------
	   CLASS    FOCC     OCC    AOCC    AVIR     VIR    FVIR
	   PAIRS       0      24      24     390     390       0
	 --------------------------------------------------------

  DFHelper Memory: AOs need 1.184 GiB; user supplied 22.352 GiB. Using in-core AOs.


         ------------------------------------------------------------
                                     CPHF                           
                                  Rob Parrish                       
         ------------------------------------------------------------

  ==> Geometry <==

    Molecular point group: c1
    Full point group: C1

    Geometry (in Angstrom), charge = -1, multiplicity = 1:

       Center              X                  Y                   Z               Mass       
    ------------   -----------------  -----------------  -----------------  -----------------
         O           -1.340137439145    -1.198887947081     0.055257985169    15.994914619570
         O           -1.351117439145     1.057272052919    -0.212599014831    15.994914619570
         N            1.360105560855     1.282101052919     0.068806985169    14.003074004430
         C            0.714481560855    -0.002623947081     0.391389985169    12.000000000000
         C            1.503365560855    -1.146864947081    -0.226756014831    12.000000000000
         C           -0.888460439145    -0.060478747081     0.003428585169    12.000000000000
         H            0.755079560855    -0.112612947081     1.487619985169     1.007825032230
         H            2.550948560855    -1.114572947081     0.088104985169     1.007825032230
         H            1.066512560855    -2.103820947081     0.056512985169     1.007825032230
         H            1.472939560855    -1.074621947081    -1.320689014831     1.007825032230
         H            0.609809560855     1.969200052919     0.169406985169     1.007825032230
         H            1.530315560855     1.276892052919    -0.940960014831     1.007825032230

  Nuclear repulsion =  237.825316449914482
  Reference energy  = -321.426938851360660

  ==> Basis Set <==

  Basis Set: AUG-CC-PVTZ
    Blend: AUG-CC-PVTZ
    Number of shells: 138
    Number of basis function: 414
    Number of Cartesian functions: 480
    Spherical Harmonics?: true
    Max angular momentum: 3

  ==> CGRSolver (by Rob Parrish) <==

   Number of roots    =         1
   Preconditioning    =    JACOBI
   Convergence cutoff =     1E-06
   Maximum iterations =       100

  ==> CPHFRHamiltonian (by Rob Parrish) <== 

  ==> MemDFJK: Density-Fitted J/K Matrices <==

    J tasked:                   Yes
    K tasked:                   Yes
    wK tasked:                   No
    OpenMP threads:               8
    Memory [MiB]:             22888
    Algorithm:                 Core
    Schwarz Cutoff:           1E-12
    Mask sparsity (%):       1.3559
    Fitting Condition:        1E-10

   => Auxiliary Basis Set <=

  Basis Set: (AUG-CC-PVTZ AUX)
    Blend: AUG-CC-PVTZ-JKFIT
    Number of shells: 264
    Number of basis function: 900
    Number of Cartesian functions: 1116
    Spherical Harmonics?: true
    Max angular momentum: 4

  ==> CPHF Iterations <==

  => Iterations <=

             Iter  Converged  Remaining    Residual
  CGR           1          0          1   1.070E-01
  CGR           2          0          1   2.576E-02
  CGR           3          0          1   1.005E-02
  CGR           4          0          1   2.311E-03
  CGR           5          0          1   5.891E-04
  CGR           6          0          1   2.542E-04
  CGR           7          0          1   8.359E-05
  CGR           8          0          1   2.906E-05
  CGR           9          0          1   8.199E-06
  CGR          10          0          1   2.796E-06
  CGR          11          0          1   1.087E-06
  CGR          12          1          0   4.112E-07

    CGRSolver converged.

	-----------------------------------------------------------
	 ==================> DF-MP2 Energies <==================== 
	-----------------------------------------------------------
	 Reference Energy          =    -321.4269388513606600 [Eh]
	 Singles Energy            =      -0.0000000000000000 [Eh]
	 Same-Spin Energy          =      -0.3245128102257157 [Eh]
	 Opposite-Spin Energy      =      -1.0038439082586192 [Eh]
	 Correlation Energy        =      -1.3283567184843350 [Eh]
	 Total Energy              =    -322.7552955698449750 [Eh]
	-----------------------------------------------------------
	 ================> DF-SCS-MP2 Energies <================== 
	-----------------------------------------------------------
	 SCS Same-Spin Scale       =       0.3333333333333333 [-]
	 SCS Opposite-Spin Scale   =       1.2000000000000000 [-]
	 SCS Same-Spin Energy      =      -0.1081709367419052 [Eh]
	 SCS Opposite-Spin Energy  =      -1.2046126899103431 [Eh]
	 SCS Correlation Energy    =      -1.3127836266522483 [Eh]
	 SCS Total Energy          =    -322.7397224780129363 [Eh]
	-----------------------------------------------------------



Properties will be evaluated at  -0.000000,  -0.000000,   0.000000 [a0]

Properties computed using the MP2 density matrix

  Nuclear Dipole Moment: [e a0]
     X:     7.4694      Y:    -1.0914      Z:    -0.4322

  Electronic Dipole Moment: [e a0]
     X:    -5.9900      Y:     1.0372      Z:     0.3032

  Dipole Moment: [e a0]
     X:     1.4794      Y:    -0.0542      Z:    -0.1290     Total:     1.4860

  Dipole Moment: [D]
     X:     3.7602      Y:    -0.1378      Z:    -0.3280     Total:     3.7770


*** tstop() called on node93.bme.utexas.edu at Wed Nov  4 00:47:20 2020
Module time:
	user time   =     169.03 seconds =       2.82 minutes
	system time =       3.76 seconds =       0.06 minutes
	total time  =         25 seconds =       0.42 minutes
Total time:
	user time   =     224.78 seconds =       3.75 minutes
	system time =       5.30 seconds =       0.09 minutes
	total time  =         34 seconds =       0.57 minutes

    Psi4 stopped on: Wednesday, 04 November 2020 12:47AM
    Psi4 wall time for execution: 0:00:33.44

*** Psi4 exiting successfully. Buy a developer a beer!
