
    -----------------------------------------------------------------------
          Psi4: An Open-Source Ab Initio Electronic Structure Package
                               Psi4 1.3.2 release

                         Git: Rev {HEAD} ecbda83 


    R. M. Parrish, L. A. Burns, D. G. A. Smith, A. C. Simmonett,
    A. E. DePrince III, E. G. Hohenstein, U. Bozkaya, A. Yu. Sokolov,
    R. Di Remigio, R. M. Richard, J. F. Gonthier, A. M. James,
    H. R. McAlexander, A. Kumar, M. Saitow, X. Wang, B. P. Pritchard,
    P. Verma, H. F. Schaefer III, K. Patkowski, R. A. King, E. F. Valeev,
    F. A. Evangelista, J. M. Turney, T. D. Crawford, and C. D. Sherrill,
    J. Chem. Theory Comput. 13(7) pp 3185--3197 (2017).
    (doi: 10.1021/acs.jctc.7b00174)


                         Additional Contributions by
    P. Kraus, H. Kruse, M. H. Lechner, M. C. Schieber, R. A. Shaw,
    A. Alenaizan, R. Galvelis, Z. L. Glick, S. Lehtola, and J. P. Misiewicz

    -----------------------------------------------------------------------


    Psi4 started on: Wednesday, 04 November 2020 12:31AM

    Process ID: 115555
    Host:       node93.bme.utexas.edu
    PSIDATADIR: /home/xy3866/psi4conda/share/psi4
    Memory:     500.0 MiB
    Threads:    8
    
  ==> Input File <==

--------------------------------------------------------------------------
#psi4
#
memory 32 gb

molecule  {
-1 1
  O       -1.4366360    -1.1870470     0.0571230
  O       -1.4476160     1.0691130    -0.2107340
  N        1.2636070     1.2939420     0.0706720
  C        0.6179830     0.0092170     0.3932550
  C        1.4068670    -1.1350240    -0.2248910
  C       -0.8878250    -0.0451320     0.0288030
  H        0.6585810    -0.1007720     1.4894850
  H        2.4544500    -1.1027320     0.0899700
  H        0.9700140    -2.0919800     0.0583780
  H        1.3764410    -1.0627810    -1.3188240
  H        0.6600918     1.8466235     0.1515916
  H        1.4338170     1.2887330    -0.9390950
units angstrom
no_reorient  #important for SAPT in psi4, default
symmetry c1  #important for SAPT in psi4, default
}

set PROPERTIES_ORIGIN ["COM"]
properties('MP2/aug-cc-pvtz', properties = ['dipole'])
--------------------------------------------------------------------------

  Memory set to  29.802 GiB by Python driver.
    SCF Algorithm Type (re)set to DF.

*** tstart() called on node93.bme.utexas.edu
*** at Wed Nov  4 00:31:17 2020

   => Loading Basis Set <=

    Name: AUG-CC-PVTZ
    Role: ORBITAL
    Keyword: BASIS
    atoms 1-2  entry O          line   327 file /home/xy3866/psi4conda/share/psi4/basis/aug-cc-pvtz.gbs 
    atoms 3    entry N          line   281 file /home/xy3866/psi4conda/share/psi4/basis/aug-cc-pvtz.gbs 
    atoms 4-6  entry C          line   235 file /home/xy3866/psi4conda/share/psi4/basis/aug-cc-pvtz.gbs 
    atoms 7-12 entry H          line    36 file /home/xy3866/psi4conda/share/psi4/basis/aug-cc-pvtz.gbs 


         ---------------------------------------------------------
                                   SCF
               by Justin Turney, Rob Parrish, Andy Simmonett
                          and Daniel G. A. Smith
                              RHF Reference
                        8 Threads,  30517 MiB Core
         ---------------------------------------------------------

  ==> Geometry <==

    Molecular point group: c1
    Full point group: C1

    Geometry (in Angstrom), charge = -1, multiplicity = 1:

       Center              X                  Y                   Z               Mass       
    ------------   -----------------  -----------------  -----------------  -----------------
         O           -1.355057243225    -1.197827067063     0.052278897971    15.994914619570
         O           -1.366037243225     1.058332932937    -0.215578102029    15.994914619570
         N            1.345185756775     1.283161932937     0.065827897971    14.003074004430
         C            0.699561756775    -0.001563067063     0.388410897971    12.000000000000
         C            1.488445756775    -1.145804067063    -0.229735102029    12.000000000000
         C           -0.806246243225    -0.055912067063     0.023958897971    12.000000000000
         H            0.740159756775    -0.111552067063     1.484640897971     1.007825032230
         H            2.536028756775    -1.113512067063     0.085125897971     1.007825032230
         H            1.051592756775    -2.102760067063     0.053533897971     1.007825032230
         H            1.458019756775    -1.073561067063    -1.323668102029     1.007825032230
         H            0.741670556775     1.835843432937     0.146747497971     1.007825032230
         H            1.515395756775     1.277952932937    -0.943939102029     1.007825032230

  Running in c1 symmetry.

  Rotational constants: A =      0.16936  B =      0.11509  C =      0.07341 [cm^-1]
  Rotational constants: A =   5077.24513  B =   3450.27074  C =   2200.77596 [MHz]
  Nuclear repulsion =  239.009372767456227

  Charge       = -1
  Multiplicity = 1
  Electrons    = 48
  Nalpha       = 24
  Nbeta        = 24

  ==> Algorithm <==

  SCF Algorithm Type is DF.
  DIIS enabled.
  MOM disabled.
  Fractional occupation disabled.
  Guess Type is SAD.
  Energy threshold   = 1.00e-10
  Density threshold  = 1.00e-10
  Integral threshold = 0.00e+00

  ==> Primary Basis <==

  Basis Set: AUG-CC-PVTZ
    Blend: AUG-CC-PVTZ
    Number of shells: 138
    Number of basis function: 414
    Number of Cartesian functions: 480
    Spherical Harmonics?: true
    Max angular momentum: 3

   => Loading Basis Set <=

    Name: (AUG-CC-PVTZ AUX)
    Role: JKFIT
    Keyword: DF_BASIS_SCF
    atoms 1-2  entry O          line   286 file /home/xy3866/psi4conda/share/psi4/basis/aug-cc-pvtz-jkfit.gbs 
    atoms 3    entry N          line   224 file /home/xy3866/psi4conda/share/psi4/basis/aug-cc-pvtz-jkfit.gbs 
    atoms 4-6  entry C          line   162 file /home/xy3866/psi4conda/share/psi4/basis/aug-cc-pvtz-jkfit.gbs 
    atoms 7-12 entry H          line    70 file /home/xy3866/psi4conda/share/psi4/basis/aug-cc-pvtz-jkfit.gbs 

  ==> Pre-Iterations <==

   -------------------------------------------------------
    Irrep   Nso     Nmo     Nalpha   Nbeta   Ndocc  Nsocc
   -------------------------------------------------------
     A        414     414       0       0       0       0
   -------------------------------------------------------
    Total     414     414      24      24      24       0
   -------------------------------------------------------

  ==> Integral Setup <==

  DFHelper Memory: AOs need 1.185 GiB; user supplied 22.352 GiB. Using in-core AOs.

  ==> MemDFJK: Density-Fitted J/K Matrices <==

    J tasked:                   Yes
    K tasked:                   Yes
    wK tasked:                   No
    OpenMP threads:               8
    Memory [MiB]:             22888
    Algorithm:                 Core
    Schwarz Cutoff:           1E-12
    Mask sparsity (%):       1.3186
    Fitting Condition:        1E-10

   => Auxiliary Basis Set <=

  Basis Set: (AUG-CC-PVTZ AUX)
    Blend: AUG-CC-PVTZ-JKFIT
    Number of shells: 264
    Number of basis function: 900
    Number of Cartesian functions: 1116
    Spherical Harmonics?: true
    Max angular momentum: 4

  Minimum eigenvalue in the overlap matrix is 9.3154174381E-06.
  Using Symmetric Orthogonalization.

  SCF Guess: Superposition of Atomic Densities via on-the-fly atomic UHF.

  ==> Iterations <==

                           Total Energy        Delta E     RMS |[F,P]|

   @DF-RHF iter SAD:  -320.29618664974049   -3.20296e+02   0.00000e+00 
   @DF-RHF iter   1:  -321.08344280533498   -7.87256e-01   1.96058e-03 DIIS
   @DF-RHF iter   2:  -321.30280586885505   -2.19363e-01   1.18577e-03 DIIS
   @DF-RHF iter   3:  -321.38283267537832   -8.00268e-02   1.55893e-04 DIIS
   @DF-RHF iter   4:  -321.38551098703874   -2.67831e-03   6.78364e-05 DIIS
   @DF-RHF iter   5:  -321.38598916066326   -4.78174e-04   1.27078e-05 DIIS
   @DF-RHF iter   6:  -321.38601285138270   -2.36907e-05   3.54161e-06 DIIS
   @DF-RHF iter   7:  -321.38601479985056   -1.94847e-06   1.07928e-06 DIIS
   @DF-RHF iter   8:  -321.38601499649775   -1.96647e-07   3.18306e-07 DIIS
   @DF-RHF iter   9:  -321.38601501534777   -1.88500e-08   1.21717e-07 DIIS
   @DF-RHF iter  10:  -321.38601501787957   -2.53181e-09   5.06779e-08 DIIS
   @DF-RHF iter  11:  -321.38601501834734   -4.67764e-10   1.98316e-08 DIIS
   @DF-RHF iter  12:  -321.38601501842811   -8.07745e-11   7.06160e-09 DIIS
   @DF-RHF iter  13:  -321.38601501844261   -1.44951e-11   2.62062e-09 DIIS
   @DF-RHF iter  14:  -321.38601501844516   -2.55795e-12   8.59994e-10 DIIS
   @DF-RHF iter  15:  -321.38601501844488    2.84217e-13   2.82196e-10 DIIS
   @DF-RHF iter  16:  -321.38601501844533   -4.54747e-13   1.07159e-10 DIIS
   @DF-RHF iter  17:  -321.38601501844494    3.97904e-13   3.82094e-11 DIIS
  Energy and wave function converged.


  ==> Post-Iterations <==

    Orbital Energies [Eh]
    ---------------------

    Doubly Occupied:                                                      

       1A    -20.301520     2A    -20.298289     3A    -15.365213  
       4A    -11.141511     5A    -11.094051     6A    -11.071594  
       7A     -1.170215     8A     -1.072521     9A     -1.055435  
      10A     -0.855140    11A     -0.698454    12A     -0.550968  
      13A     -0.530256    14A     -0.460346    15A     -0.443721  
      16A     -0.403059    17A     -0.387556    18A     -0.374043  
      19A     -0.357244    20A     -0.320449    21A     -0.283171  
      22A     -0.215487    23A     -0.199810    24A     -0.194966  

    Virtual:                                                              

      25A      0.120532    26A      0.131832    27A      0.134952  
      28A      0.143003    29A      0.154549    30A      0.159735  
      31A      0.191870    32A      0.204801    33A      0.211151  
      34A      0.224081    35A      0.240149    36A      0.242556  
      37A      0.246539    38A      0.248349    39A      0.254908  
      40A      0.267743    41A      0.270212    42A      0.279353  
      43A      0.301676    44A      0.310148    45A      0.320959  
      46A      0.338684    47A      0.360630    48A      0.367865  
      49A      0.376595    50A      0.381486    51A      0.391215  
      52A      0.392156    53A      0.403902    54A      0.413354  
      55A      0.422136    56A      0.427154    57A      0.442958  
      58A      0.450249    59A      0.462260    60A      0.470138  
      61A      0.473136    62A      0.479389    63A      0.487137  
      64A      0.492456    65A      0.501895    66A      0.510591  
      67A      0.512253    68A      0.529412    69A      0.539796  
      70A      0.540147    71A      0.557903    72A      0.564312  
      73A      0.570840    74A      0.574800    75A      0.583262  
      76A      0.592009    77A      0.593546    78A      0.602427  
      79A      0.621660    80A      0.622516    81A      0.633907  
      82A      0.646379    83A      0.654548    84A      0.661321  
      85A      0.662211    86A      0.678114    87A      0.684542  
      88A      0.701388    89A      0.708229    90A      0.721392  
      91A      0.734298    92A      0.736227    93A      0.750513  
      94A      0.762458    95A      0.773601    96A      0.794772  
      97A      0.811223    98A      0.818803    99A      0.840009  
     100A      0.863852   101A      0.869993   102A      0.894552  
     103A      0.903507   104A      0.909675   105A      0.917741  
     106A      0.934010   107A      0.944442   108A      0.964718  
     109A      0.965634   110A      0.973953   111A      0.983557  
     112A      0.985814   113A      1.003255   114A      1.013372  
     115A      1.027773   116A      1.030254   117A      1.045204  
     118A      1.052712   119A      1.056914   120A      1.066757  
     121A      1.073742   122A      1.080360   123A      1.104036  
     124A      1.109503   125A      1.128999   126A      1.135353  
     127A      1.143188   128A      1.147670   129A      1.163069  
     130A      1.171374   131A      1.184040   132A      1.198274  
     133A      1.204212   134A      1.215982   135A      1.226457  
     136A      1.236299   137A      1.248455   138A      1.258267  
     139A      1.260939   140A      1.278419   141A      1.289031  
     142A      1.297279   143A      1.299355   144A      1.318583  
     145A      1.321695   146A      1.336241   147A      1.348586  
     148A      1.364609   149A      1.375120   150A      1.389481  
     151A      1.396121   152A      1.411312   153A      1.431368  
     154A      1.440440   155A      1.448774   156A      1.453369  
     157A      1.464929   158A      1.492751   159A      1.500401  
     160A      1.513385   161A      1.522334   162A      1.527782  
     163A      1.553615   164A      1.559945   165A      1.581683  
     166A      1.611533   167A      1.612269   168A      1.631151  
     169A      1.638926   170A      1.656779   171A      1.662814  
     172A      1.680345   173A      1.684396   174A      1.698286  
     175A      1.712068   176A      1.730173   177A      1.747025  
     178A      1.751692   179A      1.783526   180A      1.806359  
     181A      1.816794   182A      1.818848   183A      1.828114  
     184A      1.836330   185A      1.844831   186A      1.853720  
     187A      1.868495   188A      1.892673   189A      1.923640  
     190A      1.928031   191A      1.946102   192A      1.955438  
     193A      1.973395   194A      1.978276   195A      2.020457  
     196A      2.026248   197A      2.035527   198A      2.049026  
     199A      2.051730   200A      2.075714   201A      2.106837  
     202A      2.123839   203A      2.133948   204A      2.138217  
     205A      2.171666   206A      2.189932   207A      2.194886  
     208A      2.210142   209A      2.241678   210A      2.273065  
     211A      2.296010   212A      2.306626   213A      2.323742  
     214A      2.350711   215A      2.369475   216A      2.375824  
     217A      2.382554   218A      2.392719   219A      2.410289  
     220A      2.428395   221A      2.446360   222A      2.455554  
     223A      2.464887   224A      2.510503   225A      2.529373  
     226A      2.562525   227A      2.574909   228A      2.611010  
     229A      2.623491   230A      2.637378   231A      2.671118  
     232A      2.679114   233A      2.692091   234A      2.713286  
     235A      2.731038   236A      2.748061   237A      2.772737  
     238A      2.785110   239A      2.813110   240A      2.821601  
     241A      2.823574   242A      2.831026   243A      2.845114  
     244A      2.867230   245A      2.890571   246A      2.900681  
     247A      2.968757   248A      3.008293   249A      3.022595  
     250A      3.042834   251A      3.078448   252A      3.087853  
     253A      3.121774   254A      3.158224   255A      3.199919  
     256A      3.225640   257A      3.268611   258A      3.286953  
     259A      3.332429   260A      3.360777   261A      3.391658  
     262A      3.475329   263A      3.507283   264A      3.520284  
     265A      3.565000   266A      3.622439   267A      3.645086  
     268A      3.673146   269A      3.689793   270A      3.714532  
     271A      3.752539   272A      3.773986   273A      3.788898  
     274A      3.826186   275A      3.838472   276A      3.855101  
     277A      3.871812   278A      3.879341   279A      3.910021  
     280A      3.937269   281A      3.969809   282A      3.971305  
     283A      3.993796   284A      4.021252   285A      4.032529  
     286A      4.074711   287A      4.083059   288A      4.110739  
     289A      4.128943   290A      4.146381   291A      4.179980  
     292A      4.210805   293A      4.225101   294A      4.236096  
     295A      4.256896   296A      4.273592   297A      4.320070  
     298A      4.334133   299A      4.343044   300A      4.367235  
     301A      4.388372   302A      4.411716   303A      4.427593  
     304A      4.442500   305A      4.463703   306A      4.499014  
     307A      4.528427   308A      4.555081   309A      4.584095  
     310A      4.596916   311A      4.625053   312A      4.635072  
     313A      4.690788   314A      4.708866   315A      4.730508  
     316A      4.747690   317A      4.764934   318A      4.779726  
     319A      4.795936   320A      4.832476   321A      4.835757  
     322A      4.850989   323A      4.922515   324A      4.938558  
     325A      4.949077   326A      4.987038   327A      5.003896  
     328A      5.020931   329A      5.056734   330A      5.085362  
     331A      5.099401   332A      5.127371   333A      5.172038  
     334A      5.193535   335A      5.218011   336A      5.219214  
     337A      5.266241   338A      5.283904   339A      5.311083  
     340A      5.320985   341A      5.376004   342A      5.380818  
     343A      5.407112   344A      5.432841   345A      5.464637  
     346A      5.471841   347A      5.489347   348A      5.538118  
     349A      5.569305   350A      5.587319   351A      5.599905  
     352A      5.656936   353A      5.669089   354A      5.733311  
     355A      5.766151   356A      5.798367   357A      5.846285  
     358A      5.864386   359A      5.908636   360A      5.977369  
     361A      6.004536   362A      6.047420   363A      6.073243  
     364A      6.130797   365A      6.246019   366A      6.262293  
     367A      6.309047   368A      6.320217   369A      6.356373  
     370A      6.424719   371A      6.439786   372A      6.509944  
     373A      6.629017   374A      6.645717   375A      6.718935  
     376A      6.840948   377A      6.933281   378A      6.937295  
     379A      6.959800   380A      6.976295   381A      7.007106  
     382A      7.021813   383A      7.064596   384A      7.151594  
     385A      7.180898   386A      7.194336   387A      7.250007  
     388A      7.299496   389A      7.316171   390A      7.320678  
     391A      7.400805   392A      7.428929   393A      7.541213  
     394A      7.571204   395A      7.610655   396A      7.619633  
     397A      7.648607   398A      7.778897   399A      7.846274  
     400A      7.903809   401A      7.935302   402A      7.954338  
     403A      8.075480   404A      8.116028   405A      8.127013  
     406A      8.195633   407A      8.302194   408A      8.503166  
     409A     14.814818   410A     15.535846   411A     16.998407  
     412A     18.561814   413A     19.325207   414A     20.918970  

    Final Occupation by Irrep:
              A 
    DOCC [    24 ]

  @DF-RHF Final Energy:  -321.38601501844494

   => Energetics <=

    Nuclear Repulsion Energy =            239.0093727674562274
    One-Electron Energy =                -923.1007382193253079
    Two-Electron Energy =                 362.7053504334240870
    Total Energy =                       -321.3860150184449367

Computation Completed

*** tstop() called on node93.bme.utexas.edu at Wed Nov  4 00:31:26 2020
Module time:
	user time   =      56.63 seconds =       0.94 minutes
	system time =       1.53 seconds =       0.03 minutes
	total time  =          9 seconds =       0.15 minutes
Total time:
	user time   =      56.63 seconds =       0.94 minutes
	system time =       1.53 seconds =       0.03 minutes
	total time  =          9 seconds =       0.15 minutes
   => Loading Basis Set <=

    Name: (AUG-CC-PVTZ AUX)
    Role: RIFIT
    Keyword: DF_BASIS_MP2
    atoms 1-2  entry O          line   264 file /home/xy3866/psi4conda/share/psi4/basis/aug-cc-pvtz-ri.gbs 
    atoms 3    entry N          line   206 file /home/xy3866/psi4conda/share/psi4/basis/aug-cc-pvtz-ri.gbs 
    atoms 4-6  entry C          line   148 file /home/xy3866/psi4conda/share/psi4/basis/aug-cc-pvtz-ri.gbs 
    atoms 7-12 entry H          line    30 file /home/xy3866/psi4conda/share/psi4/basis/aug-cc-pvtz-ri.gbs 


*** tstart() called on node93.bme.utexas.edu
*** at Wed Nov  4 00:31:26 2020


  //>>>>>>>>>>>>>>>>>>>>>>>>>>>>>>>>>>>//
  //               DFMP2               //
  //<<<<<<<<<<<<<<<<<<<<<<<<<<<<<<<<<<<//

	 --------------------------------------------------------
	                          DF-MP2                         
	      2nd-Order Density-Fitted Moller-Plesset Theory     
	              RMP2 Wavefunction,   8 Threads             
	                                                         
	        Rob Parrish, Justin Turney, Andy Simmonett,      
	           Ed Hohenstein, and C. David Sherrill          
	 --------------------------------------------------------

   => Auxiliary Basis Set <=

  Basis Set: (AUG-CC-PVTZ AUX)
    Blend: AUG-CC-PVTZ-RI
    Number of shells: 252
    Number of basis function: 912
    Number of Cartesian functions: 1146
    Spherical Harmonics?: true
    Max angular momentum: 4

	 --------------------------------------------------------
	                 NBF =   414, NAUX =   912
	 --------------------------------------------------------
	   CLASS    FOCC     OCC    AOCC    AVIR     VIR    FVIR
	   PAIRS       0      24      24     390     390       0
	 --------------------------------------------------------

  DFHelper Memory: AOs need 1.185 GiB; user supplied 22.352 GiB. Using in-core AOs.


         ------------------------------------------------------------
                                     CPHF                           
                                  Rob Parrish                       
         ------------------------------------------------------------

  ==> Geometry <==

    Molecular point group: c1
    Full point group: C1

    Geometry (in Angstrom), charge = -1, multiplicity = 1:

       Center              X                  Y                   Z               Mass       
    ------------   -----------------  -----------------  -----------------  -----------------
         O           -1.355057243225    -1.197827067063     0.052278897971    15.994914619570
         O           -1.366037243225     1.058332932937    -0.215578102029    15.994914619570
         N            1.345185756775     1.283161932937     0.065827897971    14.003074004430
         C            0.699561756775    -0.001563067063     0.388410897971    12.000000000000
         C            1.488445756775    -1.145804067063    -0.229735102029    12.000000000000
         C           -0.806246243225    -0.055912067063     0.023958897971    12.000000000000
         H            0.740159756775    -0.111552067063     1.484640897971     1.007825032230
         H            2.536028756775    -1.113512067063     0.085125897971     1.007825032230
         H            1.051592756775    -2.102760067063     0.053533897971     1.007825032230
         H            1.458019756775    -1.073561067063    -1.323668102029     1.007825032230
         H            0.741670556775     1.835843432937     0.146747497971     1.007825032230
         H            1.515395756775     1.277952932937    -0.943939102029     1.007825032230

  Nuclear repulsion =  239.009372767456227
  Reference energy  = -321.386015018444937

  ==> Basis Set <==

  Basis Set: AUG-CC-PVTZ
    Blend: AUG-CC-PVTZ
    Number of shells: 138
    Number of basis function: 414
    Number of Cartesian functions: 480
    Spherical Harmonics?: true
    Max angular momentum: 3

  ==> CGRSolver (by Rob Parrish) <==

   Number of roots    =         1
   Preconditioning    =    JACOBI
   Convergence cutoff =     1E-06
   Maximum iterations =       100

  ==> CPHFRHamiltonian (by Rob Parrish) <== 

  ==> MemDFJK: Density-Fitted J/K Matrices <==

    J tasked:                   Yes
    K tasked:                   Yes
    wK tasked:                   No
    OpenMP threads:               8
    Memory [MiB]:             22888
    Algorithm:                 Core
    Schwarz Cutoff:           1E-12
    Mask sparsity (%):       1.3186
    Fitting Condition:        1E-10

   => Auxiliary Basis Set <=

  Basis Set: (AUG-CC-PVTZ AUX)
    Blend: AUG-CC-PVTZ-JKFIT
    Number of shells: 264
    Number of basis function: 900
    Number of Cartesian functions: 1116
    Spherical Harmonics?: true
    Max angular momentum: 4

  ==> CPHF Iterations <==

  => Iterations <=

             Iter  Converged  Remaining    Residual
  CGR           1          0          1   1.141E-01
  CGR           2          0          1   2.980E-02
  CGR           3          0          1   1.221E-02
  CGR           4          0          1   3.079E-03
  CGR           5          0          1   8.120E-04
  CGR           6          0          1   3.266E-04
  CGR           7          0          1   9.757E-05
  CGR           8          0          1   3.762E-05
  CGR           9          0          1   9.549E-06
  CGR          10          0          1   3.319E-06
  CGR          11          0          1   1.323E-06
  CGR          12          1          0   4.206E-07

    CGRSolver converged.

	-----------------------------------------------------------
	 ==================> DF-MP2 Energies <==================== 
	-----------------------------------------------------------
	 Reference Energy          =    -321.3860150184449367 [Eh]
	 Singles Energy            =      -0.0000000000000000 [Eh]
	 Same-Spin Energy          =      -0.3242594280521074 [Eh]
	 Opposite-Spin Energy      =      -1.0036504673767048 [Eh]
	 Correlation Energy        =      -1.3279098954288122 [Eh]
	 Total Energy              =    -322.7139249138737682 [Eh]
	-----------------------------------------------------------
	 ================> DF-SCS-MP2 Energies <================== 
	-----------------------------------------------------------
	 SCS Same-Spin Scale       =       0.3333333333333333 [-]
	 SCS Opposite-Spin Scale   =       1.2000000000000000 [-]
	 SCS Same-Spin Energy      =      -0.1080864760173691 [Eh]
	 SCS Opposite-Spin Energy  =      -1.2043805608520457 [Eh]
	 SCS Correlation Energy    =      -1.3124670368694149 [Eh]
	 SCS Total Energy          =    -322.6984820553143436 [Eh]
	-----------------------------------------------------------



Properties will be evaluated at   0.000000,  -0.000000,   0.000000 [a0]

Properties computed using the MP2 density matrix

  Nuclear Dipole Moment: [e a0]
     X:     7.5230      Y:    -1.2115      Z:    -0.4674

  Electronic Dipole Moment: [e a0]
     X:    -5.7173      Y:     1.1453      Z:     0.3753

  Dipole Moment: [e a0]
     X:     1.8057      Y:    -0.0662      Z:    -0.0922     Total:     1.8092

  Dipole Moment: [D]
     X:     4.5896      Y:    -0.1683      Z:    -0.2342     Total:     4.5986


*** tstop() called on node93.bme.utexas.edu at Wed Nov  4 00:31:51 2020
Module time:
	user time   =     168.66 seconds =       2.81 minutes
	system time =       3.80 seconds =       0.06 minutes
	total time  =         25 seconds =       0.42 minutes
Total time:
	user time   =     226.21 seconds =       3.77 minutes
	system time =       5.36 seconds =       0.09 minutes
	total time  =         34 seconds =       0.57 minutes

    Psi4 stopped on: Wednesday, 04 November 2020 12:31AM
    Psi4 wall time for execution: 0:00:34.12

*** Psi4 exiting successfully. Buy a developer a beer!
