11829371                                                                
Freq      RMP2-FC                                                     6-31G(d)            
Number of atoms                            I               11
Info1-9                                    I   N=           9
          23          21        1002           0           0         100
           6           2           1
Charge                                     I                0
Multiplicity                               I                1
Number of electrons                        I               50
Number of alpha electrons                  I               25
Number of beta electrons                   I               25
Number of basis functions                  I               91
Number of independent functions            I               91
Number of point charges in /Mol/           I                0
Number of translation vectors              I                0
Atomic numbers                             I   N=          11
          17           9           6           6           6           1
           1           1           1           1           1
Nuclear charges                            R   N=          11
  1.70000000E+01  9.00000000E+00  6.00000000E+00  6.00000000E+00  6.00000000E+00
  1.00000000E+00  1.00000000E+00  1.00000000E+00  1.00000000E+00  1.00000000E+00
  1.00000000E+00
Current cartesian coordinates              R   N=          33
 -3.31969701E+00 -7.85064893E-01 -2.46626623E-01  3.73523765E+00 -1.28689835E+00
  1.06894869E+00  1.09163811E+00  1.91891473E+00 -5.89484931E-01 -1.06109829E+00
  1.27999783E+00  1.19731462E+00  2.74201052E+00 -3.35073811E-01 -1.19633459E+00
  3.49701624E-01  2.72600532E+00 -2.34524419E+00  2.26221427E+00  3.36534975E+00
  3.21357069E-01 -3.41587451E-01  3.22983156E-01  2.87270099E+00 -2.08159053E+00
  2.97719275E+00  1.76710243E+00  1.66721144E+00 -1.84800490E+00 -2.10203078E+00
  4.32645901E+00  2.01629759E-01 -2.41074168E+00
Force Field                                I                0
Int Atom Types                             I   N=          11
           0           0           0           0           0           0
           0           0           0           0           0
MM charges                                 R   N=          11
  0.00000000E+00  0.00000000E+00  0.00000000E+00  0.00000000E+00  0.00000000E+00
  0.00000000E+00  0.00000000E+00  0.00000000E+00  0.00000000E+00  0.00000000E+00
  0.00000000E+00
Integer atomic weights                     I   N=          11
          35          19          12          12          12           1
           1           1           1           1           1
Real atomic weights                        R   N=          11
  3.49688527E+01  1.89984032E+01  1.20000000E+01  1.20000000E+01  1.20000000E+01
  1.00782504E+00  1.00782504E+00  1.00782504E+00  1.00782504E+00  1.00782504E+00
  1.00782504E+00
Atom fragment info                         I   N=          11
           0           0           0           0           0           0
           0           0           0           0           0
Atom residue num                           I   N=          11
           0           0           0           0           0           0
           0           0           0           0           0
Nuclear spins                              I   N=          11
           3           1           0           0           0           1
           1           1           1           1           1
Nuclear ZEff                               R   N=          11
 -1.42400000E+01 -6.75000000E+00 -3.60000000E+00 -3.60000000E+00 -3.60000000E+00
 -1.00000000E+00 -1.00000000E+00 -1.00000000E+00 -1.00000000E+00 -1.00000000E+00
 -1.00000000E+00
Nuclear QMom                               R   N=          11
 -8.16500000E+00  0.00000000E+00  0.00000000E+00  0.00000000E+00  0.00000000E+00
  0.00000000E+00  0.00000000E+00  0.00000000E+00  0.00000000E+00  0.00000000E+00
  0.00000000E+00
Nuclear GFac                               R   N=          11
  8.21874000E-01  2.62886700E+00  0.00000000E+00  0.00000000E+00  0.00000000E+00
  2.79284600E+00  2.79284600E+00  2.79284600E+00  2.79284600E+00  2.79284600E+00
  2.79284600E+00
MicOpt                                     I   N=          11
          -1          -1          -1          -1          -1          -1
          -1          -1          -1          -1          -1
Number of contracted shells                I               33
Number of primitive shells                 I               85
Pure/Cartesian d shells                    I                1
Pure/Cartesian f shells                    I                0
Highest angular momentum                   I                2
Largest degree of contraction              I                6
Shell types                                I   N=          33
           0          -1          -1          -1           2           0
          -1          -1           2           0          -1          -1
           2           0          -1          -1           2           0
          -1          -1           2           0           0           0
           0           0           0           0           0           0
           0           0           0
Number of primitives per shell             I   N=          33
           6           6           3           1           1           6
           3           1           1           6           3           1
           1           6           3           1           1           6
           3           1           1           3           1           3
           1           3           1           3           1           3
           1           3           1
Shell to atom map                          I   N=          33
           1           1           1           1           1           2
           2           2           2           3           3           3
           3           4           4           4           4           5
           5           5           5           6           6           7
           7           8           8           9           9          10
          10          11          11
Primitive exponents                        R   N=          85
  2.51801000E+04  3.78035000E+03  8.60474000E+02  2.42145000E+02  7.73349000E+01
  2.62470000E+01  4.91765000E+02  1.16984000E+02  3.74153000E+01  1.37834000E+01
  5.45215000E+00  2.22588000E+00  3.18649000E+00  1.14427000E+00  4.20377000E-01
  1.42657000E-01  7.50000000E-01  7.00171309E+03  1.05136609E+03  2.39285690E+02
  6.73974453E+01  2.15199573E+01  7.40310130E+00  2.08479528E+01  4.80830834E+00
  1.34406986E+00  3.58151393E-01  8.00000000E-01  3.04752488E+03  4.57369518E+02
  1.03948685E+02  2.92101553E+01  9.28666296E+00  3.16392696E+00  7.86827235E+00
  1.88128854E+00  5.44249258E-01  1.68714478E-01  8.00000000E-01  3.04752488E+03
  4.57369518E+02  1.03948685E+02  2.92101553E+01  9.28666296E+00  3.16392696E+00
  7.86827235E+00  1.88128854E+00  5.44249258E-01  1.68714478E-01  8.00000000E-01
  3.04752488E+03  4.57369518E+02  1.03948685E+02  2.92101553E+01  9.28666296E+00
  3.16392696E+00  7.86827235E+00  1.88128854E+00  5.44249258E-01  1.68714478E-01
  8.00000000E-01  1.87311370E+01  2.82539436E+00  6.40121692E-01  1.61277759E-01
  1.87311370E+01  2.82539436E+00  6.40121692E-01  1.61277759E-01  1.87311370E+01
  2.82539436E+00  6.40121692E-01  1.61277759E-01  1.87311370E+01  2.82539436E+00
  6.40121692E-01  1.61277759E-01  1.87311370E+01  2.82539436E+00  6.40121692E-01
  1.61277759E-01  1.87311370E+01  2.82539436E+00  6.40121692E-01  1.61277759E-01
Contraction coefficients                   R   N=          85
  1.83295985E-03  1.40341988E-02  6.90973943E-02  2.37451980E-01  4.83033960E-01
  3.39855972E-01 -2.29739142E-03 -3.07137189E-02 -1.12528069E-01  4.50163278E-02
  5.89353363E-01  4.65206287E-01 -2.51828028E-01  6.15892514E-02  1.06018433E+00
  1.00000000E+00  1.00000000E+00  1.81961690E-03  1.39160796E-02  6.84053245E-02
  2.33185760E-01  4.71267439E-01  3.56618546E-01 -1.08506975E-01 -1.46451658E-01
  1.12868858E+00  1.00000000E+00  1.00000000E+00  1.83473713E-03  1.40373228E-02
  6.88426223E-02  2.32184443E-01  4.67941348E-01  3.62311985E-01 -1.19332420E-01
 -1.60854152E-01  1.14345644E+00  1.00000000E+00  1.00000000E+00  1.83473713E-03
  1.40373228E-02  6.88426223E-02  2.32184443E-01  4.67941348E-01  3.62311985E-01
 -1.19332420E-01 -1.60854152E-01  1.14345644E+00  1.00000000E+00  1.00000000E+00
  1.83473713E-03  1.40373228E-02  6.88426223E-02  2.32184443E-01  4.67941348E-01
  3.62311985E-01 -1.19332420E-01 -1.60854152E-01  1.14345644E+00  1.00000000E+00
  1.00000000E+00  3.34946043E-02  2.34726953E-01  8.13757326E-01  1.00000000E+00
  3.34946043E-02  2.34726953E-01  8.13757326E-01  1.00000000E+00  3.34946043E-02
  2.34726953E-01  8.13757326E-01  1.00000000E+00  3.34946043E-02  2.34726953E-01
  8.13757326E-01  1.00000000E+00  3.34946043E-02  2.34726953E-01  8.13757326E-01
  1.00000000E+00  3.34946043E-02  2.34726953E-01  8.13757326E-01  1.00000000E+00
P(S=P) Contraction coefficients            R   N=          85
  0.00000000E+00  0.00000000E+00  0.00000000E+00  0.00000000E+00  0.00000000E+00
  0.00000000E+00  3.98940088E-03  3.03177067E-02  1.29880029E-01  3.27951072E-01
  4.53527100E-01  2.52154056E-01 -1.42993147E-02  3.23572333E-01  7.43507765E-01
  1.00000000E+00  0.00000000E+00  0.00000000E+00  0.00000000E+00  0.00000000E+00
  0.00000000E+00  0.00000000E+00  0.00000000E+00  7.16287242E-02  3.45912103E-01
  7.22469956E-01  1.00000000E+00  0.00000000E+00  0.00000000E+00  0.00000000E+00
  0.00000000E+00  0.00000000E+00  0.00000000E+00  0.00000000E+00  6.89990666E-02
  3.16423961E-01  7.44308291E-01  1.00000000E+00  0.00000000E+00  0.00000000E+00
  0.00000000E+00  0.00000000E+00  0.00000000E+00  0.00000000E+00  0.00000000E+00
  6.89990666E-02  3.16423961E-01  7.44308291E-01  1.00000000E+00  0.00000000E+00
  0.00000000E+00  0.00000000E+00  0.00000000E+00  0.00000000E+00  0.00000000E+00
  0.00000000E+00  6.89990666E-02  3.16423961E-01  7.44308291E-01  1.00000000E+00
  0.00000000E+00  0.00000000E+00  0.00000000E+00  0.00000000E+00  0.00000000E+00
  0.00000000E+00  0.00000000E+00  0.00000000E+00  0.00000000E+00  0.00000000E+00
  0.00000000E+00  0.00000000E+00  0.00000000E+00  0.00000000E+00  0.00000000E+00
  0.00000000E+00  0.00000000E+00  0.00000000E+00  0.00000000E+00  0.00000000E+00
  0.00000000E+00  0.00000000E+00  0.00000000E+00  0.00000000E+00  0.00000000E+00
Coordinates of each shell                  R   N=          99
 -3.31969701E+00 -7.85064893E-01 -2.46626623E-01 -3.31969701E+00 -7.85064893E-01
 -2.46626623E-01 -3.31969701E+00 -7.85064893E-01 -2.46626623E-01 -3.31969701E+00
 -7.85064893E-01 -2.46626623E-01 -3.31969701E+00 -7.85064893E-01 -2.46626623E-01
  3.73523765E+00 -1.28689835E+00  1.06894869E+00  3.73523765E+00 -1.28689835E+00
  1.06894869E+00  3.73523765E+00 -1.28689835E+00  1.06894869E+00  3.73523765E+00
 -1.28689835E+00  1.06894869E+00  1.09163811E+00  1.91891473E+00 -5.89484931E-01
  1.09163811E+00  1.91891473E+00 -5.89484931E-01  1.09163811E+00  1.91891473E+00
 -5.89484931E-01  1.09163811E+00  1.91891473E+00 -5.89484931E-01 -1.06109829E+00
  1.27999783E+00  1.19731462E+00 -1.06109829E+00  1.27999783E+00  1.19731462E+00
 -1.06109829E+00  1.27999783E+00  1.19731462E+00 -1.06109829E+00  1.27999783E+00
  1.19731462E+00  2.74201052E+00 -3.35073811E-01 -1.19633459E+00  2.74201052E+00
 -3.35073811E-01 -1.19633459E+00  2.74201052E+00 -3.35073811E-01 -1.19633459E+00
  2.74201052E+00 -3.35073811E-01 -1.19633459E+00  3.49701624E-01  2.72600532E+00
 -2.34524419E+00  3.49701624E-01  2.72600532E+00 -2.34524419E+00  2.26221427E+00
  3.36534975E+00  3.21357069E-01  2.26221427E+00  3.36534975E+00  3.21357069E-01
 -3.41587451E-01  3.22983156E-01  2.87270099E+00 -3.41587451E-01  3.22983156E-01
  2.87270099E+00 -2.08159053E+00  2.97719275E+00  1.76710243E+00 -2.08159053E+00
  2.97719275E+00  1.76710243E+00  1.66721144E+00 -1.84800490E+00 -2.10203078E+00
  1.66721144E+00 -1.84800490E+00 -2.10203078E+00  4.32645901E+00  2.01629759E-01
 -2.41074168E+00  4.32645901E+00  2.01629759E-01 -2.41074168E+00
Constraint Structure                       R   N=          33
 -3.31969701E+00 -7.85064893E-01 -2.46626623E-01  3.73523765E+00 -1.28689835E+00
  1.06894869E+00  1.09163811E+00  1.91891473E+00 -5.89484931E-01 -1.06109829E+00
  1.27999783E+00  1.19731462E+00  2.74201052E+00 -3.35073811E-01 -1.19633459E+00
  3.49701624E-01  2.72600532E+00 -2.34524419E+00  2.26221427E+00  3.36534975E+00
  3.21357069E-01 -3.41587451E-01  3.22983156E-01  2.87270099E+00 -2.08159053E+00
  2.97719275E+00  1.76710243E+00  1.66721144E+00 -1.84800490E+00 -2.10203078E+00
  4.32645901E+00  2.01629759E-01 -2.41074168E+00
Num ILSW                                   I              100
ILSW                                       I   N=         100
           0           1           0           0           2           0
           0           0           0           0           0          -1
           0           0           0           0           0           0
           0           0           0           0           1           0
           1           0           0           0           0           0
           0           0      100000           0          -1           0
           0           0           0           0           0           0
           0           0           0           1           1           0
           0           0           1           0           0           0
           0           0           4          40           0           0
           0           0           0           0           0           0
           0           0           0           0           0           0
           0           0           0           0           0           0
           0           0           0           0           0           0
           0           0           0           0           0           0
           0           0           0           0           0           0
           0           0           0           0
Num RLSW                                   I               40
RLSW                                       R   N=          40
  1.00000000E+00  1.00000000E+00  1.00000000E+00  1.00000000E+00  1.00000000E+00
  0.00000000E+00  0.00000000E+00  1.00000000E+00  0.00000000E+00  0.00000000E+00
  0.00000000E+00  0.00000000E+00  1.00000000E+00  0.00000000E+00  0.00000000E+00
  0.00000000E+00  0.00000000E+00  1.00000000E+00  0.00000000E+00  0.00000000E+00
  0.00000000E+00  0.00000000E+00  1.00000000E+00  0.00000000E+00  0.00000000E+00
  0.00000000E+00  0.00000000E+00  1.00000000E+00  0.00000000E+00  0.00000000E+00
  0.00000000E+00  0.00000000E+00  0.00000000E+00  0.00000000E+00  0.00000000E+00
  0.00000000E+00  0.00000000E+00  0.00000000E+00  1.00000000E+00  1.00000000E+00
MxBond                                     I                4
NBond                                      I   N=          11
           1           1           4           4           4           1
           1           1           1           1           1
IBond                                      I   N=          44
           4           0           0           0           5           0
           0           0           4           5           6           7
           1           3           8           9           2           3
          10          11           3           0           0           0
           3           0           0           0           4           0
           0           0           4           0           0           0
           5           0           0           0           5           0
           0           0
RBond                                      R   N=          44
  1.00000000E+00  0.00000000E+00  0.00000000E+00  0.00000000E+00  1.00000000E+00
  0.00000000E+00  0.00000000E+00  0.00000000E+00  1.00000000E+00  1.00000000E+00
  1.00000000E+00  1.00000000E+00  1.00000000E+00  1.00000000E+00  1.00000000E+00
  1.00000000E+00  1.00000000E+00  1.00000000E+00  1.00000000E+00  1.00000000E+00
  1.00000000E+00  0.00000000E+00  0.00000000E+00  0.00000000E+00  1.00000000E+00
  0.00000000E+00  0.00000000E+00  0.00000000E+00  1.00000000E+00  0.00000000E+00
  0.00000000E+00  0.00000000E+00  1.00000000E+00  0.00000000E+00  0.00000000E+00
  0.00000000E+00  1.00000000E+00  0.00000000E+00  0.00000000E+00  0.00000000E+00
  1.00000000E+00  0.00000000E+00  0.00000000E+00  0.00000000E+00
Virial Ratio                               R      2.000784050550839E+00
SCF Energy                                 R     -6.760132859843981E+02
MP2 Energy                                 R     -6.767044108808786E+02
Total Energy                               R     -6.767044108808786E+02
Post-SCF wavefunction norm                 R      1.558294535928746E+00
RMS Force                                  R      3.032180044325845E-07
RMS Density                                R      2.818217135655608E-09
External E-field                           R   N=          35
  0.00000000E+00  0.00000000E+00  0.00000000E+00  0.00000000E+00  0.00000000E+00
  0.00000000E+00  0.00000000E+00  0.00000000E+00  0.00000000E+00  0.00000000E+00
  0.00000000E+00  0.00000000E+00  0.00000000E+00  0.00000000E+00  0.00000000E+00
  0.00000000E+00  0.00000000E+00  0.00000000E+00  0.00000000E+00  0.00000000E+00
  0.00000000E+00  0.00000000E+00  0.00000000E+00  0.00000000E+00  0.00000000E+00
  0.00000000E+00  0.00000000E+00  0.00000000E+00  0.00000000E+00  0.00000000E+00
  0.00000000E+00  0.00000000E+00  0.00000000E+00  0.00000000E+00  0.00000000E+00
IOpCl                                      I                0
IROHF                                      I                0
Alpha Orbital Energies                     R   N=          91
 -1.04811560E+02 -2.62759348E+01 -1.13151878E+01 -1.12981817E+01 -1.12520170E+01
 -1.05457049E+01 -8.01502017E+00 -8.01183778E+00 -8.01175370E+00 -1.57663757E+00
 -1.14904077E+00 -1.05003584E+00 -9.29433192E-01 -8.21670396E-01 -7.06329716E-01
 -7.01351233E-01 -6.59913084E-01 -6.18275776E-01 -6.11488447E-01 -5.62082005E-01
 -5.27482955E-01 -5.12470825E-01 -4.98599746E-01 -4.35811722E-01 -4.33685043E-01
  1.99001572E-01  2.32269592E-01  2.67433930E-01  2.78017384E-01  2.91266109E-01
  3.01798317E-01  3.23991781E-01  3.46055889E-01  3.71425373E-01  4.07767295E-01
  5.91452313E-01  6.23275496E-01  6.55013086E-01  6.65206231E-01  7.02053936E-01
  7.54204275E-01  7.66404892E-01  7.92286852E-01  8.08018924E-01  8.87708036E-01
  9.39509754E-01  9.50004608E-01  9.94802390E-01  1.08949561E+00  1.10624340E+00
  1.12783911E+00  1.13182282E+00  1.15607284E+00  1.16334206E+00  1.19467895E+00
  1.20342250E+00  1.22012334E+00  1.26327605E+00  1.31309573E+00  1.38956606E+00
  1.45034107E+00  1.59013916E+00  1.63646330E+00  1.69290814E+00  1.72448599E+00
  1.75487165E+00  1.78445841E+00  1.93924234E+00  2.03014175E+00  2.12078514E+00
  2.14446986E+00  2.19707232E+00  2.22792827E+00  2.25603017E+00  2.30021972E+00
  2.38463491E+00  2.43607509E+00  2.52777845E+00  2.57063490E+00  2.63316295E+00
  2.68649761E+00  2.75489947E+00  2.80812594E+00  2.97767108E+00  3.01235586E+00
  3.37853211E+00  4.50039060E+00  4.52458637E+00  4.72383568E+00  4.77502555E+00
  4.88510528E+00
Alpha MO coefficients                      R   N=        8281
  9.96116273E-01  1.46450416E-02  4.01359114E-05  3.29851162E-05  2.10980597E-05
 -1.77398295E-02 -4.88150274E-05 -2.92430241E-05 -1.42460052E-05  1.51527542E-03
  7.29008907E-05  4.60009832E-05  2.41891190E-05  6.25966169E-03  6.26048224E-03
  6.26064956E-03  1.61810763E-06  6.27749142E-07  3.41114544E-06 -4.85867932E-06
 -2.86658888E-05  2.15704689E-06 -2.46433287E-06  6.13953295E-07  1.04087951E-04
 -1.98572168E-05  1.56458779E-05 -9.03789355E-06 -1.65187130E-05 -1.65166738E-05
 -2.09744826E-05 -1.08079550E-06  3.37015512E-06 -1.01004799E-06 -2.30144838E-06
  1.26558991E-05  1.62370553E-05  2.05015281E-06 -2.67669588E-06  1.36033191E-05
  8.98874550E-05 -2.08969075E-06 -5.39415683E-05 -2.40939767E-05 -7.64805580E-06
 -1.30661956E-05 -1.15527484E-05  5.44957711E-06  2.75761696E-06 -9.77890291E-06
  1.97796744E-05 -4.71506291E-05 -3.40212501E-05 -2.43875962E-05  1.72061819E-04
  9.69678947E-05  3.06182029E-05 -9.75624325E-07 -2.09949965E-05 -2.78330423E-05
 -1.51483440E-05 -7.66838576E-06 -1.41765860E-05 -7.08310125E-06  4.40952420E-06
  2.27334427E-05 -1.05671086E-05  3.24862365E-06  6.64209816E-06 -8.21827084E-05
  5.91541302E-05 -4.98179224E-05 -8.28845005E-05  2.17473190E-06  6.16829443E-06
  3.62092177E-06  3.75575173E-06  8.11214076E-08  9.39812818E-07  1.11602138E-05
 -6.01616239E-05 -4.95481059E-06 -7.62285418E-06 -1.74488247E-05 -9.28589791E-05
 -1.46005593E-05 -6.24452281E-05  1.56676757E-05 -7.58834389E-05 -3.57769936E-06
 -3.37956603E-05  1.93495097E-08 -3.25603629E-06 -1.68518488E-06 -6.46588873E-08
  3.48979479E-07 -3.05465295E-06  6.29427908E-06  1.09063174E-06 -1.49364814E-06
  5.59674688E-05  3.50591729E-05  1.07385699E-05 -1.06440587E-06  4.13526836E-06
 -7.89771084E-06 -1.11403924E-05  4.06415390E-06  1.29917578E-06 -4.42000738E-06
  9.94429006E-01  1.77550524E-02 -3.20025621E-04  3.09327080E-04 -7.27334548E-04
  8.12749482E-03  2.18171580E-04 -2.15013240E-04  5.21630808E-04 -4.61177649E-03
 -4.60669576E-03 -4.90696979E-03  7.30850282E-05 -1.89913455E-04  1.80098364E-04
  4.14815173E-06  7.98197408E-05 -1.81626440E-05  1.10176093E-05 -1.59771118E-06
 -1.42290390E-04 -1.57820322E-04  1.40373816E-04  1.10660201E-06 -2.16879044E-05
 -4.44505407E-05 -1.38583039E-05  4.03283970E-05 -1.98841860E-05  1.26160972E-05
  3.62898521E-06  1.09074522E-05  2.00677241E-05 -1.62225639E-05 -2.23624153E-05
  3.12841533E-05 -5.99364143E-05  3.69737383E-05  1.62513512E-04  4.21439554E-06
  1.25704405E-05  1.16747536E-06 -4.64620110E-06  7.40340364E-06  8.19382134E-06
 -2.90138219E-05  7.67079162E-05  2.03497497E-04 -1.84625044E-04  4.49291119E-04
  2.86824762E-04 -1.35699076E-04  1.22717857E-04  1.64479104E-05  6.85602069E-06
  1.43163257E-05  2.76785498E-04 -9.06934637E-05  1.57728236E-04 -1.44231145E-04
  6.32346700E-06 -3.70433672E-05  2.64784975E-05 -3.37745721E-05  4.74144507E-05
 -2.01922545E-04 -1.33221584E-05 -7.33844017E-05 -1.22092281E-05 -8.87701528E-05
 -1.02550471E-05 -3.82832161E-05  8.73686705E-07  4.22007664E-06  1.89400760E-05
  3.75323075E-06  5.78625369E-06  3.78996177E-05 -9.77203652E-05 -2.81217316E-05
 -3.84471504E-05 -2.88510905E-04 -1.51529392E-04 -1.82351672E-05  5.83761775E-05
 -6.53025508E-05  1.41424808E-05  9.96972846E-06 -2.34633331E-05 -5.16683218E-06
  1.46044788E-05 -1.74470178E-04 -1.75901018E-04 -1.10745946E-04  1.03311439E-04
 -2.54674638E-04  2.00315429E-03  2.06046363E-04 -2.04168009E-04  6.28730371E-04
 -2.29909344E-04 -2.25880395E-04 -9.61368402E-04  2.05118700E-04 -4.12185873E-04
  4.04268381E-04  4.98689029E-03  2.34732109E-04  5.10887495E-05  3.85546955E-06
 -3.99005426E-05  3.09340281E-03  1.31172568E-03 -1.44475489E-03 -6.18201293E-04
 -2.59121817E-04 -3.27854838E-04 -1.28054577E-04  1.31256334E-04  6.78919051E-05
 -1.21801498E-05 -4.24324088E-04 -3.19048257E-04 -1.14923671E-04  1.15244167E-04
  8.84327264E-05  9.07490775E-04  5.96414588E-04 -5.11455646E-04 -4.44008394E-04
 -5.12454727E-05 -8.07186506E-05 -8.70210497E-05 -2.70439682E-05 -5.41674766E-05
 -1.86132247E-05  9.95913435E-01  2.71997668E-02  3.59103325E-04 -3.30168269E-04
  1.13587767E-03 -1.36294997E-02  9.54108654E-04 -8.02503616E-04 -6.07964434E-05
 -1.40612101E-03 -1.43822499E-03 -1.23810379E-03 -3.64612848E-07  1.23213656E-04
 -1.24915841E-04 -1.22359665E-04  1.23431279E-04 -1.30299435E-04  1.80905855E-04
 -1.23947834E-04 -6.65217557E-05  1.86103731E-05  4.80791297E-04  1.51281506E-04
  2.61681331E-03  1.07969625E-04  2.26531079E-03 -3.22177671E-05  7.10147912E-05
 -4.24657472E-05 -2.99722928E-05 -1.96016960E-05  2.74229862E-04  3.42894795E-04
  2.68123373E-04  1.76978832E-04  2.75921246E-03  1.15938234E-03  1.01359329E-03
  6.37383000E-04 -1.02882507E-04 -1.44675621E-04 -1.73452761E-04  1.24080213E-05
  5.10884759E-07 -2.78879647E-05  4.50531674E-05  2.56940153E-04  3.47665843E-06
  1.77752102E-06 -7.93673061E-06 -1.01670545E-03  1.53372634E-04 -8.23695351E-05
  1.04662643E-04  1.59909895E-04  1.42788166E-04  1.74353348E-04 -4.48917949E-06
 -2.24351379E-05 -9.50664841E-06  6.63425585E-03  2.89117118E-04 -8.57457551E-05
  1.47458915E-06  2.98182654E-05  3.17478538E-03 -1.56081738E-03 -7.04084852E-05
  9.67324523E-04 -2.91285432E-04 -1.90435166E-04 -2.47826761E-04 -2.71072311E-05
  1.91309673E-04  4.89962495E-05  9.95885676E-01  2.80743091E-02 -4.18565862E-04
 -5.10098030E-04 -4.83197270E-04 -1.55908925E-02 -6.04902381E-05  7.33517443E-04
  1.11683587E-03 -1.65218410E-03 -1.59570585E-03 -1.56935900E-03 -2.27117571E-04
 -1.12793194E-04 -1.42490088E-04  2.60625773E-04 -3.55100133E-04  1.40668508E-04
 -1.55506898E-05 -6.31895219E-05  1.33839529E-03 -6.77291776E-04 -6.89196505E-05
  6.00560809E-04 -8.62273134E-05 -8.39184457E-05 -5.91819418E-05 -2.87181888E-05
 -5.07396482E-05 -2.71989081E-06 -1.40150323E-04 -4.38914560E-05 -8.99419702E-05
 -7.73729688E-05  2.32405056E-04  2.45384867E-03  1.74612032E-04  2.19622679E-03
 -8.42921408E-05 -4.42797364E-04 -1.08083842E-05  4.34456932E-04  6.19442154E-07
 -5.27909164E-05  1.67609119E-05  1.41836846E-05  2.07294095E-06 -7.19909349E-05
 -1.24697628E-04 -9.80261654E-05 -1.36681850E-05  3.83015252E-04  2.09101384E-04
  1.82005768E-04  4.35087297E-05 -7.56187488E-05 -1.30356567E-04 -8.88391504E-05
  3.52007250E-05 -5.19458161E-05  4.04068700E-06 -4.47027999E-05 -3.03574868E-04
  5.35022193E-05 -8.19205928E-05  2.31182383E-05  6.57081149E-04 -1.24893326E-04
  1.95706168E-04 -3.89015929E-05 -2.17104530E-04 -1.40482433E-04 -2.12673828E-04
 -1.59635910E-04  2.69358949E-05 -1.24663724E-05  9.95792250E-01  2.87574447E-02
 -5.61210850E-05 -1.77340764E-04  1.26991258E-04 -1.73556001E-02  1.74118289E-04
  1.03319405E-03 -6.80069208E-04 -1.63456240E-03 -1.66357978E-03 -1.62912379E-03
 -2.42204856E-05  4.47036749E-05  7.56267588E-06 -6.92903666E-03 -1.02651788E-04
  7.35195586E-05 -1.68606803E-05 -5.68506408E-05  4.35052632E-03  1.64797177E-03
  4.73412506E-04 -1.05860408E-03 -3.12300508E-04 -1.59052851E-04 -2.54841747E-04
 -1.23285584E-04  2.04523197E-04  7.43557033E-05 -5.29339710E-03 -5.74814178E-05
 -1.05694948E-04  7.35178687E-05 -1.26129606E-05  4.24827157E-03 -1.08132582E-03
  1.37757322E-03  3.00836964E-04 -1.97332891E-04 -3.64562169E-04 -2.03943262E-04
  2.04599869E-04  3.07437623E-05 -4.52763535E-05  2.12232551E-04  2.47784068E-03
  2.56426533E-04  2.67025454E-03 -1.43453148E-04 -1.36802246E-04 -1.33152102E-04
 -1.55462281E-04 -1.49961681E-04 -8.73964809E-05 -1.36722736E-04 -1.62812565E-04
 -2.86730767E-01  1.03060018E+00  2.86134275E-03  2.58465992E-03  1.74259838E-03
  2.63177441E-02  9.33900550E-04  7.00767426E-04  3.98237223E-04 -7.00189365E-03
 -1.12623926E-03 -8.00631026E-04 -4.29889508E-04 -1.49372562E-03 -1.52307792E-03
 -1.61183164E-03  1.92210053E-04  1.50530681E-04  1.13236087E-04  5.62314253E-05
  3.10204584E-04 -3.89104228E-05  2.24421944E-05 -8.74373568E-06 -1.06625599E-03
  2.08295349E-04 -1.31060858E-04  7.83845936E-05  1.94129056E-04  2.13149005E-04
  2.43456433E-04  2.26176539E-05 -3.32293201E-05  1.23331789E-05 -4.07622141E-05
 -2.69868190E-04  5.75450333E-05  1.24299806E-04  4.11119242E-05  1.01100424E-03
 -1.06968447E-03 -5.32295019E-04  8.66319923E-05 -2.12247451E-05 -1.09556851E-04
 -3.94256592E-05  6.38335031E-05 -5.22640785E-05 -1.52308981E-05 -1.74194200E-04
  6.31040671E-04  9.53057302E-05  5.06922491E-05  5.72737676E-05 -7.71431991E-04
 -9.39579572E-04 -3.05616662E-04  1.89803704E-04 -2.41955471E-04 -1.31783748E-04
 -1.16661866E-04 -2.91181037E-04 -1.30222319E-04 -1.89464345E-04 -8.24146543E-06
 -6.18109265E-05  1.61867341E-04 -4.60871750E-05 -7.14656868E-05 -2.55017869E-04
 -2.65802595E-04  2.88976098E-04  8.01793304E-04 -7.42013978E-05  1.96385649E-05
  1.45708107E-05 -2.07510772E-05  1.29114484E-05  1.45563703E-05 -2.01816132E-04
  1.77685418E-04  6.33799233E-05  3.10194153E-04 -7.69649187E-05  6.47289774E-04
 -8.70351581E-05  4.29671188E-04 -1.77879968E-04  8.64034115E-04  6.93295847E-05
  4.13929940E-04  1.41248980E-03 -5.25614254E-03  6.62878567E-01  6.02790455E-01
  4.27653758E-01  2.54283093E-03  1.54100716E-02  1.39067231E-02  9.79669417E-03
  1.39740190E-04 -3.53059664E-03 -3.12102095E-03 -2.13002813E-03 -2.95186061E-04
 -4.23123976E-04 -6.92434403E-04  6.13854615E-04  4.34182274E-04  3.65297025E-04
  8.22531151E-05  4.71341574E-04 -3.12630792E-05  1.93262528E-05 -2.72447315E-05
 -1.73074780E-03  2.65972321E-04 -1.47537587E-04  2.43607312E-04  2.86087132E-04
  3.11170671E-04  3.17923175E-04  2.62569069E-05 -3.97606755E-05  5.55341059E-06
 -5.55456870E-05 -3.62656275E-04 -9.16654925E-05  2.36625416E-05  7.01219630E-05
  1.63262287E-03 -1.29662178E-03 -3.59882293E-04 -3.18936351E-05  9.18245058E-05
 -7.23715737E-05 -6.40752359E-05  1.17827009E-04 -3.07456490E-05 -3.05984788E-05
  5.64238793E-05  1.50338292E-03  3.43672360E-04  2.17974167E-04  1.59264467E-04
 -3.26575380E-03 -1.47634089E-04  7.00168375E-04  1.03263482E-03 -3.93078062E-04
 -2.30180315E-04 -9.07036865E-05 -6.96031730E-04 -3.99505238E-04 -4.56810241E-04
 -6.93714552E-05 -3.17663425E-04  1.86380285E-04 -1.39127365E-05 -5.27770144E-05
  1.27428042E-03 -5.70729500E-04 -1.59949839E-04  9.37236467E-04 -1.40861321E-04
 -9.07636018E-05 -4.22654708E-05 -2.08518861E-05  1.58498135E-05 -5.08012121E-06
 -1.92421878E-04 -5.86981159E-05  6.61995635E-05  2.46276344E-05  1.30775853E-04
  8.45278375E-04  9.14666920E-05  5.30318386E-04 -6.52695491E-05 -2.53013228E-04
  1.73306362E-05  4.53446088E-04 -4.26877662E-05  1.20418457E-04 -5.81350719E-01
  6.99359944E-02  8.02649902E-01 -1.76974307E-04 -1.21181936E-02  1.40957712E-03
  1.64962223E-02  1.96784620E-04  2.97735677E-03 -3.43047276E-04 -3.88170960E-03
 -2.72469479E-04 -2.54718195E-05  1.35736554E-04 -1.00503380E-04  8.38130261E-05