
    -----------------------------------------------------------------------
          Psi4: An Open-Source Ab Initio Electronic Structure Package
                               Psi4 1.4a3.dev225 

                         Git: Rev {master} 7105e37 


    D. G. A. Smith, L. A. Burns, A. C. Simmonett, R. M. Parrish,
    M. C. Schieber, R. Galvelis, P. Kraus, H. Kruse, R. Di Remigio,
    A. Alenaizan, A. M. James, S. Lehtola, J. P. Misiewicz, M. Scheurer,
    R. A. Shaw, J. B. Schriber, Y. Xie, Z. L. Glick, D. A. Sirianni,
    J. S. O'Brien, J. M. Waldrop, A. Kumar, E. G. Hohenstein,
    B. P. Pritchard, B. R. Brooks, H. F. Schaefer III, A. Yu. Sokolov,
    K. Patkowski, A. E. DePrince III, U. Bozkaya, R. A. King,
    F. A. Evangelista, J. M. Turney, T. D. Crawford, C. D. Sherrill,
    J. Chem. Phys. 152(18) 184108 (2020). https://doi.org/10.1063/5.0006002

                            Additional Code Authors
    E. T. Seidl, C. L. Janssen, E. F. Valeev, M. L. Leininger,
    J. F. Gonthier, R. M. Richard, H. R. McAlexander, M. Saitow, X. Wang,
    P. Verma, and M. H. Lechner

             Previous Authors, Complete List of Code Contributors,
                       and Citations for Specific Modules
    https://github.com/psi4/psi4/blob/master/codemeta.json
    https://github.com/psi4/psi4/graphs/contributors
    http://psicode.org/psi4manual/master/introduction.html#citing-psifour

    -----------------------------------------------------------------------


    Psi4 started on: Saturday, 27 February 2021 04:47PM

    Process ID: 122183
    Host:       c405-024.stampede2.tacc.utexas.edu
    PSIDATADIR: /home1/07844/xy3866/miniconda3/envs/p4env/share/psi4
    Memory:     500.0 MiB
    Threads:    32
    
  ==> Input File <==

--------------------------------------------------------------------------
#psi4
#
memory 32 gb

molecule  {
-1 1
  O        1.8724200    -0.7415990     0.3394840
  O        2.1027790     1.3758310    -0.4300950
  O       -3.3987686    -0.3459237    -0.8411601
  O       -2.5979240    -0.0254400     1.2183870
  C       -0.0530340     0.6334400     0.4456770
  C       -0.9697120    -0.0967620    -0.5425230
  C        1.3896910     0.5173160     0.0754460
  C       -2.4534200    -0.1528480    -0.0313600
  C        3.2289120    -0.9370400    -0.0704660
  H       -0.2424870     0.2042160     1.4320630
  H       -0.3042490     1.6964080     0.4822290
  H       -0.9505240     0.3810480    -1.5282220
  H       -0.6173950    -1.1275390    -0.6764200
  H        3.4625260    -1.9695390     0.1897820
  H        3.8993660    -0.2498350     0.4514950
  H        3.3382080    -0.7798600    -1.1461020
units angstrom
no_reorient  #important for SAPT in psi4, default
symmetry c1  #important for SAPT in psi4, default
}

set PROPERTIES_ORIGIN ["COM"]
properties('MP2/aug-cc-pvtz', properties = ['dipole'])
--------------------------------------------------------------------------

  Memory set to  29.802 GiB by Python driver.
    SCF Algorithm Type (re)set to DF.

*** tstart() called on c405-024.stampede2.tacc.utexas.edu
*** at Sat Feb 27 16:47:33 2021

   => Loading Basis Set <=

    Name: AUG-CC-PVTZ
    Role: ORBITAL
    Keyword: BASIS
    atoms 1-4   entry O          line   331 file /home1/07844/xy3866/miniconda3/envs/p4env/share/psi4/basis/aug-cc-pvtz.gbs 
    atoms 5-9   entry C          line   239 file /home1/07844/xy3866/miniconda3/envs/p4env/share/psi4/basis/aug-cc-pvtz.gbs 
    atoms 10-16 entry H          line    40 file /home1/07844/xy3866/miniconda3/envs/p4env/share/psi4/basis/aug-cc-pvtz.gbs 


         ---------------------------------------------------------
                                   SCF
               by Justin Turney, Rob Parrish, Andy Simmonett
                          and Daniel G. A. Smith
                              RHF Reference
                       32 Threads,  30517 MiB Core
         ---------------------------------------------------------

  ==> Geometry <==

    Molecular point group: c1
    Full point group: C1

    Geometry (in Angstrom), charge = -1, multiplicity = 1:

       Center              X                  Y                   Z               Mass       
    ------------   -----------------  -----------------  -----------------  -----------------
         O            1.948520204124    -0.756208053405     0.321898640839    15.994914619570
         O            2.178879204124     1.361221946595    -0.447680359161    15.994914619570
         O           -3.322668395876    -0.360532753405    -0.858745459161    15.994914619570
         O           -2.521823795876    -0.040049053405     1.200801640839    15.994914619570
         C            0.023066204124     0.618830946595     0.428091640839    12.000000000000
         C           -0.893611795876    -0.111371053405    -0.560108359161    12.000000000000
         C            1.465791204124     0.502706946595     0.057860640839    12.000000000000
         C           -2.377319795876    -0.167457053405    -0.048945359161    12.000000000000
         C            3.305012204124    -0.951649053405    -0.088051359161    12.000000000000
         H           -0.166386795876     0.189606946595     1.414477640839     1.007825032230
         H           -0.228148795876     1.681798946595     0.464643640839     1.007825032230
         H           -0.874423795876     0.366438946595    -1.545807359161     1.007825032230
         H           -0.541294795876    -1.142148053405    -0.694005359161     1.007825032230
         H            3.538626204124    -1.984148053405     0.172196640839     1.007825032230
         H            3.975466204124    -0.264444053405     0.433909640839     1.007825032230
         H            3.414308204124    -0.794469053405    -1.163687359161     1.007825032230

  Running in c1 symmetry.

  Rotational constants: A =      0.13906  B =      0.02268  C =      0.02218 [cm^-1]
  Rotational constants: A =   4168.79883  B =    680.07343  C =    665.06551 [MHz]
  Nuclear repulsion =  434.668904771139353

  Charge       = -1
  Multiplicity = 1
  Electrons    = 70
  Nalpha       = 35
  Nbeta        = 35

  ==> Algorithm <==

  SCF Algorithm Type is DF.
  DIIS enabled.
  MOM disabled.
  Fractional occupation disabled.
  Guess Type is SAD.
  Energy threshold   = 1.00e-10
  Density threshold  = 1.00e-10
  Integral threshold = 1.00e-12

  ==> Primary Basis <==

  Basis Set: AUG-CC-PVTZ
    Blend: AUG-CC-PVTZ
    Number of shells: 189
    Number of basis functions: 575
    Number of Cartesian functions: 670
    Spherical Harmonics?: true
    Max angular momentum: 3

   => Loading Basis Set <=

    Name: (AUG-CC-PVTZ AUX)
    Role: JKFIT
    Keyword: DF_BASIS_SCF
    atoms 1-4   entry O          line   286 file /home1/07844/xy3866/miniconda3/envs/p4env/share/psi4/basis/aug-cc-pvtz-jkfit.gbs 
    atoms 5-9   entry C          line   162 file /home1/07844/xy3866/miniconda3/envs/p4env/share/psi4/basis/aug-cc-pvtz-jkfit.gbs 
    atoms 10-16 entry H          line    70 file /home1/07844/xy3866/miniconda3/envs/p4env/share/psi4/basis/aug-cc-pvtz-jkfit.gbs 

  ==> Integral Setup <==

  DFHelper Memory: AOs need 2.883 GiB; user supplied 22.352 GiB. Using in-core AOs.

  ==> MemDFJK: Density-Fitted J/K Matrices <==

    J tasked:                   Yes
    K tasked:                   Yes
    wK tasked:                   No
    OpenMP threads:              32
    Memory [MiB]:             22888
    Algorithm:                 Core
    Schwarz Cutoff:           1E-12
    Mask sparsity (%):      12.0433
    Fitting Condition:        1E-10

   => Auxiliary Basis Set <=

  Basis Set: (AUG-CC-PVTZ AUX)
    Blend: AUG-CC-PVTZ-JKFIT
    Number of shells: 368
    Number of basis functions: 1258
    Number of Cartesian functions: 1564
    Spherical Harmonics?: true
    Max angular momentum: 4

  Minimum eigenvalue in the overlap matrix is 6.2201180319E-06.
  Reciprocal condition number of the overlap matrix is 3.6066132322E-07.
    Using symmetric orthogonalization.

  ==> Pre-Iterations <==

  SCF Guess: Superposition of Atomic Densities via on-the-fly atomic UHF (no occupation information).

   -------------------------
    Irrep   Nso     Nmo    
   -------------------------
     A        575     575 
   -------------------------
    Total     575     575
   -------------------------

  ==> Iterations <==

                           Total Energy        Delta E     RMS |[F,P]|

   @DF-RHF iter SAD:  -491.42058237257970   -4.91421e+02   0.00000e+00 
   @DF-RHF iter   1:  -492.76652448604955   -1.34594e+00   1.50947e-03 DIIS
   @DF-RHF iter   2:  -493.00271382531253   -2.36189e-01   9.63357e-04 DIIS
   @DF-RHF iter   3:  -493.10129860960240   -9.85848e-02   1.38184e-04 DIIS
   @DF-RHF iter   4:  -493.10545439013572   -4.15578e-03   6.02206e-05 DIIS
   @DF-RHF iter   5:  -493.10622194394261   -7.67554e-04   1.44208e-05 DIIS
   @DF-RHF iter   6:  -493.10628113510825   -5.91912e-05   6.91906e-06 DIIS
   @DF-RHF iter   7:  -493.10629270628311   -1.15712e-05   2.07171e-06 DIIS
   @DF-RHF iter   8:  -493.10629472712776   -2.02084e-06   9.40976e-07 DIIS
   @DF-RHF iter   9:  -493.10629509103649   -3.63909e-07   3.19269e-07 DIIS
   @DF-RHF iter  10:  -493.10629514283988   -5.18034e-08   1.22313e-07 DIIS
   @DF-RHF iter  11:  -493.10629514705283   -4.21295e-09   3.77244e-08 DIIS
   @DF-RHF iter  12:  -493.10629514748797   -4.35136e-10   1.23847e-08 DIIS
   @DF-RHF iter  13:  -493.10629514753435   -4.63842e-11   4.85030e-09 DIIS
   @DF-RHF iter  14:  -493.10629514753919   -4.83169e-12   1.83138e-09 DIIS
   @DF-RHF iter  15:  -493.10629514754078   -1.59162e-12   7.07188e-10 DIIS
   @DF-RHF iter  16:  -493.10629514754078    0.00000e+00   2.86439e-10 DIIS
   @DF-RHF iter  17:  -493.10629514754055    2.27374e-13   1.07034e-10 DIIS
   @DF-RHF iter  18:  -493.10629514754004    5.11591e-13   5.26124e-11 DIIS
  Energy and wave function converged.


  ==> Post-Iterations <==

    Orbital Energies [Eh]
    ---------------------

    Doubly Occupied:                                                      

       1A    -20.498296     2A    -20.437256     3A    -20.302256  
       4A    -20.300646     5A    -11.269028     6A    -11.192554  
       7A    -11.151432     8A    -11.104280     9A    -11.087033  
      10A     -1.344515    11A     -1.242052    12A     -1.176478  
      13A     -1.069791    14A     -0.938759    15A     -0.859879  
      16A     -0.761291    17A     -0.664414    18A     -0.579160  
      19A     -0.571012    20A     -0.562869    21A     -0.530184  
      22A     -0.490030    23A     -0.468219    24A     -0.453146  
      25A     -0.432874    26A     -0.419996    27A     -0.407645  
      28A     -0.387581    29A     -0.361763    30A     -0.354551  
      31A     -0.339755    32A     -0.328956    33A     -0.216201  
      34A     -0.213507    35A     -0.200475  

    Virtual:                                                              

      36A      0.095593    37A      0.112135    38A      0.115104  
      39A      0.131909    40A      0.141205    41A      0.144938  
      42A      0.150531    43A      0.166991    44A      0.185778  
      45A      0.195189    46A      0.196670    47A      0.202267  
      48A      0.207782    49A      0.218942    50A      0.226257  
      51A      0.233805    52A      0.236471    53A      0.244784  
      54A      0.247499    55A      0.255033    56A      0.256430  
      57A      0.269669    58A      0.276387    59A      0.281463  
      60A      0.282886    61A      0.290099    62A      0.298515  
      63A      0.313128    64A      0.324637    65A      0.329247  
      66A      0.337561    67A      0.341654    68A      0.347084  
      69A      0.354166    70A      0.362488    71A      0.364112  
      72A      0.377456    73A      0.389205    74A      0.390025  
      75A      0.394959    76A      0.397583    77A      0.402042  
      78A      0.415017    79A      0.422019    80A      0.428091  
      81A      0.429732    82A      0.432518    83A      0.435216  
      84A      0.441783    85A      0.449237    86A      0.455769  
      87A      0.466678    88A      0.470849    89A      0.472475  
      90A      0.484531    91A      0.487669    92A      0.493091  
      93A      0.497677    94A      0.501137    95A      0.508285  
      96A      0.516841    97A      0.522616    98A      0.525368  
      99A      0.535037   100A      0.537825   101A      0.548368  
     102A      0.549477   103A      0.555081   104A      0.566567  
     105A      0.567909   106A      0.579127   107A      0.579446  
     108A      0.591769   109A      0.596936   110A      0.604040  
     111A      0.609586   112A      0.611671   113A      0.622570  
     114A      0.631091   115A      0.636206   116A      0.641208  
     117A      0.643506   118A      0.649927   119A      0.659658  
     120A      0.665901   121A      0.667338   122A      0.676464  
     123A      0.689587   124A      0.704025   125A      0.713945  
     126A      0.720041   127A      0.735355   128A      0.738110  
     129A      0.746045   130A      0.751967   131A      0.761751  
     132A      0.763220   133A      0.770457   134A      0.790337  
     135A      0.807360   136A      0.815738   137A      0.819903  
     138A      0.833547   139A      0.857375   140A      0.859534  
     141A      0.866170   142A      0.872644   143A      0.894336  
     144A      0.897950   145A      0.902557   146A      0.914660  
     147A      0.915360   148A      0.924800   149A      0.944224  
     150A      0.946997   151A      0.951477   152A      0.958709  
     153A      0.965373   154A      0.968601   155A      0.972124  
     156A      0.975432   157A      0.982452   158A      0.996166  
     159A      0.998139   160A      1.010026   161A      1.017060  
     162A      1.020436   163A      1.027828   164A      1.033412  
     165A      1.041857   166A      1.045345   167A      1.058884  
     168A      1.063439   169A      1.073371   170A      1.077813  
     171A      1.081387   172A      1.092438   173A      1.097303  
     174A      1.110120   175A      1.111941   176A      1.121054  
     177A      1.125164   178A      1.136023   179A      1.141385  
     180A      1.154648   181A      1.159569   182A      1.165170  
     183A      1.169792   184A      1.179042   185A      1.181133  
     186A      1.188839   187A      1.194174   188A      1.206882  
     189A      1.211130   190A      1.220462   191A      1.223245  
     192A      1.231016   193A      1.234750   194A      1.242157  
     195A      1.253054   196A      1.267545   197A      1.278202  
     198A      1.288411   199A      1.292564   200A      1.297603  
     201A      1.307150   202A      1.317098   203A      1.318695  
     204A      1.325291   205A      1.333725   206A      1.339909  
     207A      1.345110   208A      1.354564   209A      1.369965  
     210A      1.373065   211A      1.396776   212A      1.403710  
     213A      1.413711   214A      1.424501   215A      1.441970  
     216A      1.444011   217A      1.460028   218A      1.466675  
     219A      1.480470   220A      1.488985   221A      1.499821  
     222A      1.503178   223A      1.512474   224A      1.528345  
     225A      1.541243   226A      1.573196   227A      1.579577  
     228A      1.588866   229A      1.600621   230A      1.606467  
     231A      1.618026   232A      1.621186   233A      1.630886  
     234A      1.643274   235A      1.656916   236A      1.670318  
     237A      1.675466   238A      1.688229   239A      1.689252  
     240A      1.699390   241A      1.708635   242A      1.715410  
     243A      1.727029   244A      1.734756   245A      1.735970  
     246A      1.747299   247A      1.755365   248A      1.769338  
     249A      1.770749   250A      1.776338   251A      1.785991  
     252A      1.793619   253A      1.807905   254A      1.813706  
     255A      1.818344   256A      1.838776   257A      1.844167  
     258A      1.850653   259A      1.855991   260A      1.874031  
     261A      1.879875   262A      1.888571   263A      1.903838  
     264A      1.915557   265A      1.923303   266A      1.934136  
     267A      1.937465   268A      1.961787   269A      1.968738  
     270A      1.972730   271A      1.990288   272A      2.000756  
     273A      2.014447   274A      2.039396   275A      2.045158  
     276A      2.065584   277A      2.070265   278A      2.075453  
     279A      2.097021   280A      2.101410   281A      2.118953  
     282A      2.132338   283A      2.144223   284A      2.152204  
     285A      2.166944   286A      2.172653   287A      2.184097  
     288A      2.190427   289A      2.208984   290A      2.218680  
     291A      2.240884   292A      2.248852   293A      2.271817  
     294A      2.284289   295A      2.294579   296A      2.308698  
     297A      2.317051   298A      2.327748   299A      2.357718  
     300A      2.381634   301A      2.387933   302A      2.397310  
     303A      2.416484   304A      2.432003   305A      2.437686  
     306A      2.450755   307A      2.467874   308A      2.507704  
     309A      2.528645   310A      2.541865   311A      2.552338  
     312A      2.578143   313A      2.590955   314A      2.601788  
     315A      2.626077   316A      2.629699   317A      2.649075  
     318A      2.663324   319A      2.678704   320A      2.704414  
     321A      2.707097   322A      2.718009   323A      2.739131  
     324A      2.762077   325A      2.774048   326A      2.778997  
     327A      2.782187   328A      2.792801   329A      2.809664  
     330A      2.822608   331A      2.834292   332A      2.839996  
     333A      2.868285   334A      2.871021   335A      2.886073  
     336A      2.915892   337A      2.921757   338A      2.959427  
     339A      2.979467   340A      2.982599   341A      2.999363  
     342A      3.008342   343A      3.026563   344A      3.041871  
     345A      3.051234   346A      3.064607   347A      3.073858  
     348A      3.086347   349A      3.105233   350A      3.122243  
     351A      3.130397   352A      3.145016   353A      3.179558  
     354A      3.205536   355A      3.226324   356A      3.250000  
     357A      3.256420   358A      3.280355   359A      3.297805  
     360A      3.320063   361A      3.378652   362A      3.384083  
     363A      3.390682   364A      3.415990   365A      3.454339  
     366A      3.477702   367A      3.508668   368A      3.515477  
     369A      3.522221   370A      3.539528   371A      3.577539  
     372A      3.589196   373A      3.617268   374A      3.647318  
     375A      3.661408   376A      3.668358   377A      3.685173  
     378A      3.701294   379A      3.713029   380A      3.738661  
     381A      3.746622   382A      3.754737   383A      3.769801  
     384A      3.781693   385A      3.784129   386A      3.815857  
     387A      3.832469   388A      3.843910   389A      3.853722  
     390A      3.863100   391A      3.881365   392A      3.904848  
     393A      3.924608   394A      3.936944   395A      3.962042  
     396A      3.968131   397A      3.976171   398A      3.978407  
     399A      4.019630   400A      4.024894   401A      4.046466  
     402A      4.057653   403A      4.067304   404A      4.080171  
     405A      4.100148   406A      4.119595   407A      4.122168  
     408A      4.138835   409A      4.149784   410A      4.169321  
     411A      4.183288   412A      4.201159   413A      4.207619  
     414A      4.219013   415A      4.251584   416A      4.264400  
     417A      4.270606   418A      4.300138   419A      4.317777  
     420A      4.332648   421A      4.341666   422A      4.351732  
     423A      4.368233   424A      4.387431   425A      4.393509  
     426A      4.424368   427A      4.425145   428A      4.436861  
     429A      4.450860   430A      4.475695   431A      4.492681  
     432A      4.509668   433A      4.516294   434A      4.537221  
     435A      4.550355   436A      4.587614   437A      4.596139  
     438A      4.627950   439A      4.631390   440A      4.673684  
     441A      4.688508   442A      4.707930   443A      4.731525  
     444A      4.734246   445A      4.779409   446A      4.791789  
     447A      4.814974   448A      4.826374   449A      4.863362  
     450A      4.865620   451A      4.876007   452A      4.893168  
     453A      4.908349   454A      4.916599   455A      4.929007  
     456A      4.979380   457A      4.994362   458A      5.007781  
     459A      5.037065   460A      5.066536   461A      5.084698  
     462A      5.091289   463A      5.105059   464A      5.132569  
     465A      5.144924   466A      5.153644   467A      5.171373  
     468A      5.190833   469A      5.204914   470A      5.238387  
     471A      5.277992   472A      5.298627   473A      5.313468  
     474A      5.322182   475A      5.358709   476A      5.384820  
     477A      5.400584   478A      5.425483   479A      5.441312  
     480A      5.478011   481A      5.485313   482A      5.497446  
     483A      5.523106   484A      5.564431   485A      5.593122  
     486A      5.637751   487A      5.658186   488A      5.667424  
     489A      5.686363   490A      5.702861   491A      5.758099  
     492A      5.764721   493A      5.772125   494A      5.802036  
     495A      5.826978   496A      5.869740   497A      5.954309  
     498A      5.984398   499A      6.013591   500A      6.085531  
     501A      6.147817   502A      6.158922   503A      6.178257  
     504A      6.210041   505A      6.211073   506A      6.256348  
     507A      6.310710   508A      6.319090   509A      6.353922  
     510A      6.506296   511A      6.584973   512A      6.639474  
     513A      6.657568   514A      6.738553   515A      6.783270  
     516A      6.800900   517A      6.873487   518A      6.879950  
     519A      6.913344   520A      6.936388   521A      6.950148  
     522A      6.994099   523A      7.041722   524A      7.042838  
     525A      7.051257   526A      7.090574   527A      7.137781  
     528A      7.148556   529A      7.166469   530A      7.186035  
     531A      7.213975   532A      7.245475   533A      7.262993  
     534A      7.295829   535A      7.317432   536A      7.347541  
     537A      7.366702   538A      7.376663   539A      7.439630  
     540A      7.484396   541A      7.543935   542A      7.555753  
     543A      7.575548   544A      7.593254   545A      7.598433  
     546A      7.628326   547A      7.678172   548A      7.689831  
     549A      7.711006   550A      7.760782   551A      7.795889  
     552A      7.845137   553A      7.884821   554A      7.912073  
     555A      7.917498   556A      7.927594   557A      7.954894  
     558A      8.009105   559A      8.040063   560A      8.059601  
     561A      8.131305   562A      8.135461   563A      8.156372  
     564A      8.303841   565A      8.424465   566A      8.602145  
     567A     14.586329   568A     15.078956   569A     15.428999  
     570A     15.973589   571A     17.049544   572A     17.750589  
     573A     18.246951   574A     19.286653   575A     20.102471  

    Final Occupation by Irrep:
              A 
    DOCC [    35 ]

  @DF-RHF Final Energy:  -493.10629514754004

   => Energetics <=

    Nuclear Repulsion Energy =            434.6689047711393528
    One-Electron Energy =               -1550.1146370306928475
    Two-Electron Energy =                 622.3394371120135702
    Total Energy =                       -493.1062951475399814

Computation Completed

*** tstop() called on c405-024.stampede2.tacc.utexas.edu at Sat Feb 27 16:48:00 2021
Module time:
	user time   =     473.41 seconds =       7.89 minutes
	system time =      38.98 seconds =       0.65 minutes
	total time  =         27 seconds =       0.45 minutes
Total time:
	user time   =     473.41 seconds =       7.89 minutes
	system time =      38.98 seconds =       0.65 minutes
	total time  =         27 seconds =       0.45 minutes
   => Loading Basis Set <=

    Name: (AUG-CC-PVTZ AUX)
    Role: RIFIT
    Keyword: DF_BASIS_MP2
    atoms 1-4   entry O          line   264 file /home1/07844/xy3866/miniconda3/envs/p4env/share/psi4/basis/aug-cc-pvtz-ri.gbs 
    atoms 5-9   entry C          line   148 file /home1/07844/xy3866/miniconda3/envs/p4env/share/psi4/basis/aug-cc-pvtz-ri.gbs 
    atoms 10-16 entry H          line    30 file /home1/07844/xy3866/miniconda3/envs/p4env/share/psi4/basis/aug-cc-pvtz-ri.gbs 


*** tstart() called on c405-024.stampede2.tacc.utexas.edu
*** at Sat Feb 27 16:48:01 2021


  //>>>>>>>>>>>>>>>>>>>>>>>>>>>>>>>>>>>//
  //               DFMP2               //
  //<<<<<<<<<<<<<<<<<<<<<<<<<<<<<<<<<<<//

	 --------------------------------------------------------
	                          DF-MP2                         
	      2nd-Order Density-Fitted Moller-Plesset Theory     
	              RMP2 Wavefunction,  32 Threads             
	                                                         
	        Rob Parrish, Justin Turney, Andy Simmonett,      
	           Ed Hohenstein, and C. David Sherrill          
	 --------------------------------------------------------

   => Auxiliary Basis Set <=

  Basis Set: (AUG-CC-PVTZ AUX)
    Blend: AUG-CC-PVTZ-RI
    Number of shells: 350
    Number of basis functions: 1276
    Number of Cartesian functions: 1609
    Spherical Harmonics?: true
    Max angular momentum: 4

	 --------------------------------------------------------
	                 NBF =   575, NAUX =  1276
	 --------------------------------------------------------
	   CLASS    FOCC     OCC    AOCC    AVIR     VIR    FVIR
	   PAIRS       0      35      35     540     540       0
	 --------------------------------------------------------

  DFHelper Memory: AOs need 3.005 GiB; user supplied 22.352 GiB. Using in-core AOs.


         ------------------------------------------------------------
                                     CPHF                           
                                  Rob Parrish                       
         ------------------------------------------------------------

  ==> Geometry <==

    Molecular point group: c1
    Full point group: C1

    Geometry (in Angstrom), charge = -1, multiplicity = 1:

       Center              X                  Y                   Z               Mass       
    ------------   -----------------  -----------------  -----------------  -----------------
         O            1.948520204124    -0.756208053405     0.321898640839    15.994914619570
         O            2.178879204124     1.361221946595    -0.447680359161    15.994914619570
         O           -3.322668395876    -0.360532753405    -0.858745459161    15.994914619570
         O           -2.521823795876    -0.040049053405     1.200801640839    15.994914619570
         C            0.023066204124     0.618830946595     0.428091640839    12.000000000000
         C           -0.893611795876    -0.111371053405    -0.560108359161    12.000000000000
         C            1.465791204124     0.502706946595     0.057860640839    12.000000000000
         C           -2.377319795876    -0.167457053405    -0.048945359161    12.000000000000
         C            3.305012204124    -0.951649053405    -0.088051359161    12.000000000000
         H           -0.166386795876     0.189606946595     1.414477640839     1.007825032230
         H           -0.228148795876     1.681798946595     0.464643640839     1.007825032230
         H           -0.874423795876     0.366438946595    -1.545807359161     1.007825032230
         H           -0.541294795876    -1.142148053405    -0.694005359161     1.007825032230
         H            3.538626204124    -1.984148053405     0.172196640839     1.007825032230
         H            3.975466204124    -0.264444053405     0.433909640839     1.007825032230
         H            3.414308204124    -0.794469053405    -1.163687359161     1.007825032230

  Nuclear repulsion =  434.668904771139353
  Reference energy  = -493.106295147540038

  ==> Basis Set <==

  Basis Set: AUG-CC-PVTZ
    Blend: AUG-CC-PVTZ
    Number of shells: 189
    Number of basis functions: 575
    Number of Cartesian functions: 670
    Spherical Harmonics?: true
    Max angular momentum: 3

  ==> CGRSolver (by Rob Parrish) <==

   Number of roots    =         1
   Preconditioning    =    JACOBI
   Convergence cutoff =     1E-06
   Maximum iterations =       100

  ==> CPHFRHamiltonian (by Rob Parrish) <== 

  ==> MemDFJK: Density-Fitted J/K Matrices <==

    J tasked:                   Yes
    K tasked:                   Yes
    wK tasked:                   No
    OpenMP threads:              32
    Memory [MiB]:             22888
    Algorithm:                 Core
    Schwarz Cutoff:           1E-12
    Mask sparsity (%):       8.0889
    Fitting Condition:        1E-10

   => Auxiliary Basis Set <=

  Basis Set: (AUG-CC-PVTZ AUX)
    Blend: AUG-CC-PVTZ-JKFIT
    Number of shells: 368
    Number of basis functions: 1258
    Number of Cartesian functions: 1564
    Spherical Harmonics?: true
    Max angular momentum: 4

  ==> CPHF Iterations <==

  => Iterations <=

             Iter  Converged  Remaining    Residual
  CGR           1          0          1   1.170E-01
  CGR           2          0          1   3.271E-02
  CGR           3          0          1   1.250E-02
  CGR           4          0          1   4.091E-03
  CGR           5          0          1   1.586E-03
  CGR           6          0          1   4.763E-04
  CGR           7          0          1   1.756E-04
  CGR           8          0          1   6.146E-05
  CGR           9          0          1   2.485E-05
  CGR          10          0          1   1.206E-05
  CGR          11          0          1   5.218E-06
  CGR          12          0          1   1.643E-06
  CGR          13          1          0   5.858E-07

    CGRSolver converged.

	-----------------------------------------------------------
	 ==================> DF-MP2 Energies <==================== 
	-----------------------------------------------------------
	 Reference Energy          =    -493.1062951475400382 [Eh]
	 Singles Energy            =      -0.0000000000000000 [Eh]
	 Same-Spin Energy          =      -0.4835940121729341 [Eh]
	 Opposite-Spin Energy      =      -1.4758471877326249 [Eh]
	 Correlation Energy        =      -1.9594411999055590 [Eh]
	 Total Energy              =    -495.0657363474455792 [Eh]
	-----------------------------------------------------------
	 ================> DF-SCS-MP2 Energies <================== 
	-----------------------------------------------------------
	 SCS Same-Spin Scale       =       0.3333333333333333 [-]
	 SCS Opposite-Spin Scale   =       1.2000000000000000 [-]
	 SCS Same-Spin Energy      =      -0.1611980040576447 [Eh]
	 SCS Opposite-Spin Energy  =      -1.7710166252791499 [Eh]
	 SCS Correlation Energy    =      -1.9322146293367946 [Eh]
	 SCS Total Energy          =    -495.0385097768768219 [Eh]
	-----------------------------------------------------------



Properties will be evaluated at   0.000000,  -0.000000,   0.000000 [a0]

Properties computed using the MP2 density matrix

  Nuclear Dipole Moment: [e a0]
     X:     8.5397      Y:    -1.8246      Z:    -0.8598

  Electronic Dipole Moment: [e a0]
     X:    -3.9322      Y:     1.5420      Z:     0.7488

  Dipole Moment: [e a0]
     X:     4.6076      Y:    -0.2826      Z:    -0.1110     Total:     4.6176

  Dipole Moment: [D]
     X:    11.7113      Y:    -0.7183      Z:    -0.2822     Total:    11.7367


*** tstop() called on c405-024.stampede2.tacc.utexas.edu at Sat Feb 27 16:50:41 2021
Module time:
	user time   =    1285.28 seconds =      21.42 minutes
	system time =      48.26 seconds =       0.80 minutes
	total time  =        160 seconds =       2.67 minutes
Total time:
	user time   =    1759.51 seconds =      29.33 minutes
	system time =      87.25 seconds =       1.45 minutes
	total time  =        188 seconds =       3.13 minutes

    Psi4 stopped on: Saturday, 27 February 2021 04:50PM
    Psi4 wall time for execution: 0:03:09.27

*** Psi4 exiting successfully. Buy a developer a beer!
