
    -----------------------------------------------------------------------
          Psi4: An Open-Source Ab Initio Electronic Structure Package
                               Psi4 1.4a3.dev225 

                         Git: Rev {master} 7105e37 


    D. G. A. Smith, L. A. Burns, A. C. Simmonett, R. M. Parrish,
    M. C. Schieber, R. Galvelis, P. Kraus, H. Kruse, R. Di Remigio,
    A. Alenaizan, A. M. James, S. Lehtola, J. P. Misiewicz, M. Scheurer,
    R. A. Shaw, J. B. Schriber, Y. Xie, Z. L. Glick, D. A. Sirianni,
    J. S. O'Brien, J. M. Waldrop, A. Kumar, E. G. Hohenstein,
    B. P. Pritchard, B. R. Brooks, H. F. Schaefer III, A. Yu. Sokolov,
    K. Patkowski, A. E. DePrince III, U. Bozkaya, R. A. King,
    F. A. Evangelista, J. M. Turney, T. D. Crawford, C. D. Sherrill,
    J. Chem. Phys. 152(18) 184108 (2020). https://doi.org/10.1063/5.0006002

                            Additional Code Authors
    E. T. Seidl, C. L. Janssen, E. F. Valeev, M. L. Leininger,
    J. F. Gonthier, R. M. Richard, H. R. McAlexander, M. Saitow, X. Wang,
    P. Verma, and M. H. Lechner

             Previous Authors, Complete List of Code Contributors,
                       and Citations for Specific Modules
    https://github.com/psi4/psi4/blob/master/codemeta.json
    https://github.com/psi4/psi4/graphs/contributors
    http://psicode.org/psi4manual/master/introduction.html#citing-psifour

    -----------------------------------------------------------------------


    Psi4 started on: Saturday, 27 February 2021 03:01PM

    Process ID: 98332
    Host:       c405-024.stampede2.tacc.utexas.edu
    PSIDATADIR: /home1/07844/xy3866/miniconda3/envs/p4env/share/psi4
    Memory:     500.0 MiB
    Threads:    32
    
  ==> Input File <==

--------------------------------------------------------------------------
#psi4
#
memory 32 gb

molecule  {
-1 1
  O        1.8724200    -0.7415990     0.3394840
  O        2.1027790     1.3758310    -0.4300950
  O       -3.3072830    -0.3512340    -0.9359590
  O       -2.5979240    -0.0254400     1.2183870
  C       -0.0530340     0.6334400     0.4456770
  C       -0.9697120    -0.0967620    -0.5425230
  C        1.3896910     0.5173160     0.0754460
  C       -2.4534200    -0.1528480    -0.0313600
  C        3.2289120    -0.9370400    -0.0704660
  H       -0.2755811     0.3087184     1.4645547
  H       -0.3042490     1.6964080     0.4822290
  H       -0.9505240     0.3810480    -1.5282220
  H       -0.6173950    -1.1275390    -0.6764200
  H        3.4625260    -1.9695390     0.1897820
  H        3.8993660    -0.2498350     0.4514950
  H        3.3382080    -0.7798600    -1.1461020
units angstrom
no_reorient  #important for SAPT in psi4, default
symmetry c1  #important for SAPT in psi4, default
}

set PROPERTIES_ORIGIN ["COM"]
properties('MP2/aug-cc-pvtz', properties = ['dipole'])
--------------------------------------------------------------------------

  Memory set to  29.802 GiB by Python driver.
    SCF Algorithm Type (re)set to DF.

*** tstart() called on c405-024.stampede2.tacc.utexas.edu
*** at Sat Feb 27 15:01:35 2021

   => Loading Basis Set <=

    Name: AUG-CC-PVTZ
    Role: ORBITAL
    Keyword: BASIS
    atoms 1-4   entry O          line   331 file /home1/07844/xy3866/miniconda3/envs/p4env/share/psi4/basis/aug-cc-pvtz.gbs 
    atoms 5-9   entry C          line   239 file /home1/07844/xy3866/miniconda3/envs/p4env/share/psi4/basis/aug-cc-pvtz.gbs 
    atoms 10-16 entry H          line    40 file /home1/07844/xy3866/miniconda3/envs/p4env/share/psi4/basis/aug-cc-pvtz.gbs 


         ---------------------------------------------------------
                                   SCF
               by Justin Turney, Rob Parrish, Andy Simmonett
                          and Daniel G. A. Smith
                              RHF Reference
                       32 Threads,  30517 MiB Core
         ---------------------------------------------------------

  ==> Geometry <==

    Molecular point group: c1
    Full point group: C1

    Geometry (in Angstrom), charge = -1, multiplicity = 1:

       Center              X                  Y                   Z               Mass       
    ------------   -----------------  -----------------  -----------------  -----------------
         O            1.937607413813    -0.756363602897     0.333220507321    15.994914619570
         O            2.167966413813     1.361066397103    -0.436358492679    15.994914619570
         O           -3.242095586187    -0.365998602897    -0.942222492679    15.994914619570
         O           -2.532736586187    -0.040204602897     1.212123507321    15.994914619570
         C            0.012153413813     0.618675397103     0.439413507321    12.000000000000
         C           -0.904524586187    -0.111526602897    -0.548786492679    12.000000000000
         C            1.454878413813     0.502551397103     0.069182507321    12.000000000000
         C           -2.388232586187    -0.167612602897    -0.037623492679    12.000000000000
         C            3.294099413813    -0.951804602897    -0.076729492679    12.000000000000
         H           -0.210393686187     0.293953797103     1.458291207321     1.007825032230
         H           -0.239061586187     1.681643397103     0.475965507321     1.007825032230
         H           -0.885336586187     0.366283397103    -1.534485492679     1.007825032230
         H           -0.552207586187    -1.142303602897    -0.682683492679     1.007825032230
         H            3.527713413813    -1.984303602897     0.183518507321     1.007825032230
         H            3.964553413813    -0.264599602897     0.445231507321     1.007825032230
         H            3.403395413813    -0.794624602897    -1.152365492679     1.007825032230

  Running in c1 symmetry.

  Rotational constants: A =      0.13574  B =      0.02289  C =      0.02247 [cm^-1]
  Rotational constants: A =   4069.27872  B =    686.20408  C =    673.60910 [MHz]
  Nuclear repulsion =  435.008346334191060

  Charge       = -1
  Multiplicity = 1
  Electrons    = 70
  Nalpha       = 35
  Nbeta        = 35

  ==> Algorithm <==

  SCF Algorithm Type is DF.
  DIIS enabled.
  MOM disabled.
  Fractional occupation disabled.
  Guess Type is SAD.
  Energy threshold   = 1.00e-10
  Density threshold  = 1.00e-10
  Integral threshold = 1.00e-12

  ==> Primary Basis <==

  Basis Set: AUG-CC-PVTZ
    Blend: AUG-CC-PVTZ
    Number of shells: 189
    Number of basis functions: 575
    Number of Cartesian functions: 670
    Spherical Harmonics?: true
    Max angular momentum: 3

   => Loading Basis Set <=

    Name: (AUG-CC-PVTZ AUX)
    Role: JKFIT
    Keyword: DF_BASIS_SCF
    atoms 1-4   entry O          line   286 file /home1/07844/xy3866/miniconda3/envs/p4env/share/psi4/basis/aug-cc-pvtz-jkfit.gbs 
    atoms 5-9   entry C          line   162 file /home1/07844/xy3866/miniconda3/envs/p4env/share/psi4/basis/aug-cc-pvtz-jkfit.gbs 
    atoms 10-16 entry H          line    70 file /home1/07844/xy3866/miniconda3/envs/p4env/share/psi4/basis/aug-cc-pvtz-jkfit.gbs 

  ==> Integral Setup <==

  DFHelper Memory: AOs need 2.884 GiB; user supplied 22.352 GiB. Using in-core AOs.

  ==> MemDFJK: Density-Fitted J/K Matrices <==

    J tasked:                   Yes
    K tasked:                   Yes
    wK tasked:                   No
    OpenMP threads:              32
    Memory [MiB]:             22888
    Algorithm:                 Core
    Schwarz Cutoff:           1E-12
    Mask sparsity (%):      12.0209
    Fitting Condition:        1E-10

   => Auxiliary Basis Set <=

  Basis Set: (AUG-CC-PVTZ AUX)
    Blend: AUG-CC-PVTZ-JKFIT
    Number of shells: 368
    Number of basis functions: 1258
    Number of Cartesian functions: 1564
    Spherical Harmonics?: true
    Max angular momentum: 4

  Minimum eigenvalue in the overlap matrix is 6.4288190430E-06.
  Reciprocal condition number of the overlap matrix is 3.7302429254E-07.
    Using symmetric orthogonalization.

  ==> Pre-Iterations <==

  SCF Guess: Superposition of Atomic Densities via on-the-fly atomic UHF (no occupation information).

   -------------------------
    Irrep   Nso     Nmo    
   -------------------------
     A        575     575 
   -------------------------
    Total     575     575
   -------------------------

  ==> Iterations <==

                           Total Energy        Delta E     RMS |[F,P]|

   @DF-RHF iter SAD:  -491.42222045116131   -4.91422e+02   0.00000e+00 
   @DF-RHF iter   1:  -492.77090881044973   -1.34869e+00   1.50029e-03 DIIS
   @DF-RHF iter   2:  -493.00724206223720   -2.36333e-01   9.44455e-04 DIIS
   @DF-RHF iter   3:  -493.10205287462907   -9.48108e-02   1.37266e-04 DIIS
   @DF-RHF iter   4:  -493.10614624607882   -4.09337e-03   6.04689e-05 DIIS
   @DF-RHF iter   5:  -493.10691550878261   -7.69263e-04   1.44793e-05 DIIS
   @DF-RHF iter   6:  -493.10697545623270   -5.99475e-05   6.92736e-06 DIIS
   @DF-RHF iter   7:  -493.10698714455407   -1.16883e-05   2.07650e-06 DIIS
   @DF-RHF iter   8:  -493.10698916274981   -2.01820e-06   9.33384e-07 DIIS
   @DF-RHF iter   9:  -493.10698952298623   -3.60236e-07   3.18120e-07 DIIS
   @DF-RHF iter  10:  -493.10698957441582   -5.14296e-08   1.21647e-07 DIIS
   @DF-RHF iter  11:  -493.10698957851832   -4.10250e-09   3.94666e-08 DIIS
   @DF-RHF iter  12:  -493.10698957896739   -4.49063e-10   1.31092e-08 DIIS
   @DF-RHF iter  13:  -493.10698957901650   -4.91127e-11   5.16263e-09 DIIS
   @DF-RHF iter  14:  -493.10698957902270   -6.19593e-12   1.73065e-09 DIIS
   @DF-RHF iter  15:  -493.10698957902355   -8.52651e-13   6.80990e-10 DIIS
   @DF-RHF iter  16:  -493.10698957902417   -6.25278e-13   2.70802e-10 DIIS
   @DF-RHF iter  17:  -493.10698957902343    7.38964e-13   9.10403e-11 DIIS
  Energy and wave function converged.


  ==> Post-Iterations <==

    Orbital Energies [Eh]
    ---------------------

    Doubly Occupied:                                                      

       1A    -20.496241     2A    -20.435370     3A    -20.309029  
       4A    -20.306439     5A    -11.267409     6A    -11.190929  
       7A    -11.154705     8A    -11.100049     9A    -11.079633  
      10A     -1.342435    11A     -1.240075    12A     -1.177427  
      13A     -1.081284    14A     -0.934382    15A     -0.857287  
      16A     -0.757042    17A     -0.663204    18A     -0.578687  
      19A     -0.568519    20A     -0.561470    21A     -0.530638  
      22A     -0.485641    23A     -0.464076    24A     -0.452429  
      25A     -0.431215    26A     -0.419136    27A     -0.412337  
      28A     -0.383157    29A     -0.361406    30A     -0.354573  
      31A     -0.339087    32A     -0.326225    33A     -0.225815  
      34A     -0.209301    35A     -0.208177  

    Virtual:                                                              

      36A      0.096304    37A      0.112708    38A      0.115901  
      39A      0.132066    40A      0.142055    41A      0.145035  
      42A      0.151428    43A      0.167085    44A      0.185864  
      45A      0.195813    46A      0.197897    47A      0.202519  
      48A      0.208661    49A      0.219712    50A      0.226827  
      51A      0.234562    52A      0.236265    53A      0.245112  
      54A      0.248791    55A      0.254893    56A      0.257309  
      57A      0.270314    58A      0.277352    59A      0.281942  
      60A      0.284236    61A      0.291001    62A      0.298812  
      63A      0.313566    64A      0.325963    65A      0.330627  
      66A      0.337628    67A      0.342039    68A      0.346166  
      69A      0.353969    70A      0.361991    71A      0.364618  
      72A      0.377170    73A      0.389194    74A      0.392092  
      75A      0.396422    76A      0.399061    77A      0.403509  
      78A      0.415537    79A      0.421600    80A      0.428190  
      81A      0.431546    82A      0.434008    83A      0.437522  
      84A      0.444429    85A      0.450208    86A      0.456495  
      87A      0.467396    88A      0.472054    89A      0.473117  
      90A      0.485467    91A      0.489974    92A      0.494670  
      93A      0.498342    94A      0.503120    95A      0.509743  
      96A      0.518659    97A      0.525287    98A      0.526502  
      99A      0.536606   100A      0.539672   101A      0.549381  
     102A      0.551361   103A      0.553884   104A      0.564512  
     105A      0.566675   106A      0.580654   107A      0.581583  
     108A      0.591029   109A      0.598125   110A      0.605695  
     111A      0.609030   112A      0.612893   113A      0.622556  
     114A      0.634790   115A      0.638133   116A      0.643106  
     117A      0.647261   118A      0.651905   119A      0.660959  
     120A      0.665961   121A      0.669440   122A      0.678308  
     123A      0.691191   124A      0.706475   125A      0.718107  
     126A      0.719767   127A      0.734209   128A      0.739863  
     129A      0.746878   130A      0.752258   131A      0.757981  
     132A      0.763587   133A      0.772851   134A      0.793191  
     135A      0.809804   136A      0.818203   137A      0.824284  
     138A      0.835137   139A      0.847716   140A      0.858416  
     141A      0.862667   142A      0.871303   143A      0.884007  
     144A      0.897036   145A      0.899103   146A      0.914828  
     147A      0.920636   148A      0.926025   149A      0.943619  
     150A      0.945105   151A      0.953233   152A      0.959124  
     153A      0.965254   154A      0.970404   155A      0.971485  
     156A      0.977184   157A      0.985581   158A      0.997210  
     159A      1.001456   160A      1.011022   161A      1.018326  
     162A      1.025266   163A      1.026374   164A      1.033620  
     165A      1.042079   166A      1.043988   167A      1.059514  
     168A      1.062304   169A      1.070944   170A      1.076428  
     171A      1.085512   172A      1.094336   173A      1.100002  
     174A      1.108973   175A      1.113149   176A      1.123964  
     177A      1.128944   178A      1.134512   179A      1.144467  
     180A      1.156959   181A      1.163597   182A      1.171892  
     183A      1.176550   184A      1.177084   185A      1.182744  
     186A      1.192342   187A      1.195192   188A      1.210219  
     189A      1.213584   190A      1.221340   191A      1.223275  
     192A      1.234996   193A      1.238630   194A      1.243288  
     195A      1.259425   196A      1.269031   197A      1.275485  
     198A      1.289970   199A      1.292295   200A      1.299882  
     201A      1.308945   202A      1.313203   203A      1.318272  
     204A      1.328787   205A      1.333654   206A      1.335666  
     207A      1.349165   208A      1.354868   209A      1.368763  
     210A      1.375063   211A      1.397145   212A      1.404219  
     213A      1.420014   214A      1.424791   215A      1.441701  
     216A      1.453116   217A      1.458855   218A      1.465830  
     219A      1.473429   220A      1.493639   221A      1.500738  
     222A      1.511107   223A      1.526242   224A      1.530837  
     225A      1.545967   226A      1.572361   227A      1.579641  
     228A      1.589460   229A      1.600055   230A      1.611158  
     231A      1.620786   232A      1.626903   233A      1.629457  
     234A      1.647938   235A      1.656575   236A      1.670450  
     237A      1.677712   238A      1.685855   239A      1.689815  
     240A      1.699572   241A      1.705146   242A      1.713847  
     243A      1.727673   244A      1.733561   245A      1.735694  
     246A      1.743007   247A      1.753893   248A      1.768228  
     249A      1.771570   250A      1.778277   251A      1.785710  
     252A      1.793932   253A      1.809000   254A      1.813716  
     255A      1.820274   256A      1.837421   257A      1.847062  
     258A      1.850829   259A      1.855802   260A      1.871058  
     261A      1.883523   262A      1.890368   263A      1.909000  
     264A      1.921609   265A      1.930857   266A      1.943410  
     267A      1.948765   268A      1.964442   269A      1.965296  
     270A      1.974444   271A      1.988189   272A      1.997737  
     273A      2.009672   274A      2.033446   275A      2.049055  
     276A      2.062904   277A      2.071284   278A      2.078419  
     279A      2.100017   280A      2.105051   281A      2.116207  
     282A      2.140037   283A      2.142838   284A      2.158940  
     285A      2.168016   286A      2.176811   287A      2.184688  
     288A      2.188938   289A      2.209591   290A      2.217711  
     291A      2.249457   292A      2.257991   293A      2.262331  
     294A      2.273252   295A      2.295469   296A      2.303721  
     297A      2.321605   298A      2.324367   299A      2.335016  
     300A      2.376951   301A      2.401296   302A      2.409462  
     303A      2.421948   304A      2.430503   305A      2.445017  
     306A      2.466065   307A      2.486656   308A      2.524047  
     309A      2.530590   310A      2.547925   311A      2.554351  
     312A      2.587614   313A      2.600127   314A      2.604491  
     315A      2.620000   316A      2.630734   317A      2.649921  
     318A      2.664404   319A      2.676811   320A      2.706504  
     321A      2.711898   322A      2.721472   323A      2.735234  
     324A      2.752360   325A      2.762462   326A      2.773924  
     327A      2.778615   328A      2.787865   329A      2.794404  
     330A      2.818539   331A      2.828628   332A      2.844172  
     333A      2.852958   334A      2.865814   335A      2.886034  
     336A      2.912787   337A      2.931438   338A      2.952170  
     339A      2.967043   340A      2.969859   341A      2.997450  
     342A      3.004939   343A      3.030041   344A      3.038399  
     345A      3.059431   346A      3.064187   347A      3.076633  
     348A      3.080549   349A      3.101694   350A      3.131936  
     351A      3.141488   352A      3.160617   353A      3.188666  
     354A      3.208076   355A      3.242833   356A      3.248030  
     357A      3.284835   358A      3.292896   359A      3.306850  
     360A      3.329168   361A      3.372335   362A      3.386498  
     363A      3.394611   364A      3.413070   365A      3.460974  
     366A      3.480662   367A      3.503060   368A      3.514144  
     369A      3.521584   370A      3.539745   371A      3.556754  
     372A      3.588598   373A      3.615737   374A      3.648266  
     375A      3.655330   376A      3.669183   377A      3.675929  
     378A      3.705379   379A      3.715636   380A      3.734879  
     381A      3.748162   382A      3.756720   383A      3.769683  
     384A      3.777254   385A      3.791066   386A      3.815534  
     387A      3.832474   388A      3.847182   389A      3.861097  
     390A      3.863720   391A      3.883212   392A      3.918292  
     393A      3.925234   394A      3.934918   395A      3.962182  
     396A      3.972028   397A      3.977537   398A      3.991710  
     399A      4.015194   400A      4.026535   401A      4.049100  
     402A      4.060289   403A      4.065704   404A      4.083144  
     405A      4.099843   406A      4.116377   407A      4.121684  
     408A      4.141720   409A      4.143149   410A      4.167069  
     411A      4.186595   412A      4.197760   413A      4.221382  
     414A      4.226269   415A      4.258110   416A      4.265646  
     417A      4.272335   418A      4.303783   419A      4.315834  
     420A      4.331575   421A      4.333854   422A      4.353834  
     423A      4.365082   424A      4.390375   425A      4.394023  
     426A      4.409544   427A      4.420563   428A      4.434799  
     429A      4.457581   430A      4.472035   431A      4.492473  
     432A      4.514252   433A      4.521269   434A      4.540294  
     435A      4.558869   436A      4.589664   437A      4.598991  
     438A      4.625989   439A      4.642776   440A      4.676778  
     441A      4.682524   442A      4.714295   443A      4.727451  
     444A      4.734426   445A      4.770126   446A      4.782986  
     447A      4.820177   448A      4.828982   449A      4.871083  
     450A      4.875006   451A      4.881476   452A      4.892229  
     453A      4.907029   454A      4.916810   455A      4.923299  
     456A      4.969518   457A      4.994927   458A      5.005044  
     459A      5.050852   460A      5.061668   461A      5.067408  
     462A      5.082999   463A      5.106272   464A      5.131673  
     465A      5.142082   466A      5.159320   467A      5.185669  
     468A      5.188716   469A      5.208153   470A      5.237895  
     471A      5.270370   472A      5.292207   473A      5.305364  
     474A      5.343751   475A      5.354775   476A      5.375540  
     477A      5.402249   478A      5.431646   479A      5.459701  
     480A      5.479397   481A      5.489888   482A      5.499775  
     483A      5.533069   484A      5.558138   485A      5.577699  
     486A      5.617974   487A      5.666981   488A      5.673551  
     489A      5.698156   490A      5.710485   491A      5.745513  
     492A      5.765527   493A      5.778272   494A      5.785861  
     495A      5.840230   496A      5.882619   497A      5.955803  
     498A      6.007557   499A      6.023746   500A      6.063805  
     501A      6.147996   502A      6.151122   503A      6.166950  
     504A      6.198049   505A      6.238708   506A      6.260869  
     507A      6.299992   508A      6.315675   509A      6.357842  
     510A      6.513782   511A      6.587698   512A      6.616609  
     513A      6.673730   514A      6.737573   515A      6.785927  
     516A      6.802298   517A      6.879682   518A      6.886605  
     519A      6.918098   520A      6.933659   521A      6.952208  
     522A      6.989803   523A      7.044384   524A      7.048703  
     525A      7.052464   526A      7.096971   527A      7.131083  
     528A      7.144791   529A      7.168099   530A      7.188137  
     531A      7.215339   532A      7.249389   533A      7.275913  
     534A      7.300381   535A      7.318022   536A      7.351601  
     537A      7.374468   538A      7.384446   539A      7.419964  
     540A      7.484212   541A      7.544137   542A      7.548094  
     543A      7.571691   544A      7.592634   545A      7.598320  
     546A      7.616410   547A      7.670074   548A      7.696816  
     549A      7.715245   550A      7.798592   551A      7.828362  
     552A      7.847630   553A      7.871466   554A      7.904237  
     555A      7.912048   556A      7.926746   557A      7.951256  
     558A      8.010054   559A      8.039319   560A      8.071113  
     561A      8.097903   562A      8.152915   563A      8.207571  
     564A      8.266794   565A      8.425325   566A      8.597533  
     567A     14.936076   568A     15.085700   569A     15.353496  
     570A     15.972475   571A     17.080655   572A     17.686144  
     573A     18.248609   574A     19.109726   575A     20.123651  

    Final Occupation by Irrep:
              A 
    DOCC [    35 ]

  @DF-RHF Final Energy:  -493.10698957902343

   => Energetics <=

    Nuclear Repulsion Energy =            435.0083463341910601
    One-Electron Energy =               -1550.8210131885903138
    Two-Electron Energy =                 622.7056772753757059
    Total Energy =                       -493.1069895790234341

Computation Completed

*** tstop() called on c405-024.stampede2.tacc.utexas.edu at Sat Feb 27 15:02:01 2021
Module time:
	user time   =     452.42 seconds =       7.54 minutes
	system time =      38.18 seconds =       0.64 minutes
	total time  =         26 seconds =       0.43 minutes
Total time:
	user time   =     452.42 seconds =       7.54 minutes
	system time =      38.18 seconds =       0.64 minutes
	total time  =         26 seconds =       0.43 minutes
   => Loading Basis Set <=

    Name: (AUG-CC-PVTZ AUX)
    Role: RIFIT
    Keyword: DF_BASIS_MP2
    atoms 1-4   entry O          line   264 file /home1/07844/xy3866/miniconda3/envs/p4env/share/psi4/basis/aug-cc-pvtz-ri.gbs 
    atoms 5-9   entry C          line   148 file /home1/07844/xy3866/miniconda3/envs/p4env/share/psi4/basis/aug-cc-pvtz-ri.gbs 
    atoms 10-16 entry H          line    30 file /home1/07844/xy3866/miniconda3/envs/p4env/share/psi4/basis/aug-cc-pvtz-ri.gbs 


*** tstart() called on c405-024.stampede2.tacc.utexas.edu
*** at Sat Feb 27 15:02:02 2021


  //>>>>>>>>>>>>>>>>>>>>>>>>>>>>>>>>>>>//
  //               DFMP2               //
  //<<<<<<<<<<<<<<<<<<<<<<<<<<<<<<<<<<<//

	 --------------------------------------------------------
	                          DF-MP2                         
	      2nd-Order Density-Fitted Moller-Plesset Theory     
	              RMP2 Wavefunction,  32 Threads             
	                                                         
	        Rob Parrish, Justin Turney, Andy Simmonett,      
	           Ed Hohenstein, and C. David Sherrill          
	 --------------------------------------------------------

   => Auxiliary Basis Set <=

  Basis Set: (AUG-CC-PVTZ AUX)
    Blend: AUG-CC-PVTZ-RI
    Number of shells: 350
    Number of basis functions: 1276
    Number of Cartesian functions: 1609
    Spherical Harmonics?: true
    Max angular momentum: 4

	 --------------------------------------------------------
	                 NBF =   575, NAUX =  1276
	 --------------------------------------------------------
	   CLASS    FOCC     OCC    AOCC    AVIR     VIR    FVIR
	   PAIRS       0      35      35     540     540       0
	 --------------------------------------------------------

  DFHelper Memory: AOs need 3.007 GiB; user supplied 22.352 GiB. Using in-core AOs.


         ------------------------------------------------------------
                                     CPHF                           
                                  Rob Parrish                       
         ------------------------------------------------------------

  ==> Geometry <==

    Molecular point group: c1
    Full point group: C1

    Geometry (in Angstrom), charge = -1, multiplicity = 1:

       Center              X                  Y                   Z               Mass       
    ------------   -----------------  -----------------  -----------------  -----------------
         O            1.937607413813    -0.756363602897     0.333220507321    15.994914619570
         O            2.167966413813     1.361066397103    -0.436358492679    15.994914619570
         O           -3.242095586187    -0.365998602897    -0.942222492679    15.994914619570
         O           -2.532736586187    -0.040204602897     1.212123507321    15.994914619570
         C            0.012153413813     0.618675397103     0.439413507321    12.000000000000
         C           -0.904524586187    -0.111526602897    -0.548786492679    12.000000000000
         C            1.454878413813     0.502551397103     0.069182507321    12.000000000000
         C           -2.388232586187    -0.167612602897    -0.037623492679    12.000000000000
         C            3.294099413813    -0.951804602897    -0.076729492679    12.000000000000
         H           -0.210393686187     0.293953797103     1.458291207321     1.007825032230
         H           -0.239061586187     1.681643397103     0.475965507321     1.007825032230
         H           -0.885336586187     0.366283397103    -1.534485492679     1.007825032230
         H           -0.552207586187    -1.142303602897    -0.682683492679     1.007825032230
         H            3.527713413813    -1.984303602897     0.183518507321     1.007825032230
         H            3.964553413813    -0.264599602897     0.445231507321     1.007825032230
         H            3.403395413813    -0.794624602897    -1.152365492679     1.007825032230

  Nuclear repulsion =  435.008346334191060
  Reference energy  = -493.106989579023434

  ==> Basis Set <==

  Basis Set: AUG-CC-PVTZ
    Blend: AUG-CC-PVTZ
    Number of shells: 189
    Number of basis functions: 575
    Number of Cartesian functions: 670
    Spherical Harmonics?: true
    Max angular momentum: 3

  ==> CGRSolver (by Rob Parrish) <==

   Number of roots    =         1
   Preconditioning    =    JACOBI
   Convergence cutoff =     1E-06
   Maximum iterations =       100

  ==> CPHFRHamiltonian (by Rob Parrish) <== 

  ==> MemDFJK: Density-Fitted J/K Matrices <==

    J tasked:                   Yes
    K tasked:                   Yes
    wK tasked:                   No
    OpenMP threads:              32
    Memory [MiB]:             22888
    Algorithm:                 Core
    Schwarz Cutoff:           1E-12
    Mask sparsity (%):       8.0296
    Fitting Condition:        1E-10

   => Auxiliary Basis Set <=

  Basis Set: (AUG-CC-PVTZ AUX)
    Blend: AUG-CC-PVTZ-JKFIT
    Number of shells: 368
    Number of basis functions: 1258
    Number of Cartesian functions: 1564
    Spherical Harmonics?: true
    Max angular momentum: 4

  ==> CPHF Iterations <==

  => Iterations <=

             Iter  Converged  Remaining    Residual
  CGR           1          0          1   1.171E-01
  CGR           2          0          1   3.267E-02
  CGR           3          0          1   1.251E-02
  CGR           4          0          1   4.072E-03
  CGR           5          0          1   1.571E-03
  CGR           6          0          1   4.704E-04
  CGR           7          0          1   1.723E-04
  CGR           8          0          1   6.325E-05
  CGR           9          0          1   2.616E-05
  CGR          10          0          1   1.266E-05
  CGR          11          0          1   5.279E-06
  CGR          12          0          1   1.597E-06
  CGR          13          1          0   5.563E-07

    CGRSolver converged.

	-----------------------------------------------------------
	 ==================> DF-MP2 Energies <==================== 
	-----------------------------------------------------------
	 Reference Energy          =    -493.1069895790234341 [Eh]
	 Singles Energy            =      -0.0000000000000000 [Eh]
	 Same-Spin Energy          =      -0.4837951982107537 [Eh]
	 Opposite-Spin Energy      =      -1.4760702082629682 [Eh]
	 Correlation Energy        =      -1.9598654064737220 [Eh]
	 Total Energy              =    -495.0668549854971729 [Eh]
	-----------------------------------------------------------
	 ================> DF-SCS-MP2 Energies <================== 
	-----------------------------------------------------------
	 SCS Same-Spin Scale       =       0.3333333333333333 [-]
	 SCS Opposite-Spin Scale   =       1.2000000000000000 [-]
	 SCS Same-Spin Energy      =      -0.1612650660702512 [Eh]
	 SCS Opposite-Spin Energy  =      -1.7712842499155619 [Eh]
	 SCS Correlation Energy    =      -1.9325493159858131 [Eh]
	 SCS Total Energy          =    -495.0395388950092297 [Eh]
	-----------------------------------------------------------



Properties will be evaluated at   0.000000,   0.000000,   0.000000 [a0]

Properties computed using the MP2 density matrix

  Nuclear Dipole Moment: [e a0]
     X:     8.4373      Y:    -1.7277      Z:    -0.7553

  Electronic Dipole Moment: [e a0]
     X:    -3.9747      Y:     1.4544      Z:     0.7289

  Dipole Moment: [e a0]
     X:     4.4627      Y:    -0.2733      Z:    -0.0264     Total:     4.4711

  Dipole Moment: [D]
     X:    11.3429      Y:    -0.6947      Z:    -0.0672     Total:    11.3644


*** tstop() called on c405-024.stampede2.tacc.utexas.edu at Sat Feb 27 15:04:41 2021
Module time:
	user time   =    1272.47 seconds =      21.21 minutes
	system time =      55.36 seconds =       0.92 minutes
	total time  =        159 seconds =       2.65 minutes
Total time:
	user time   =    1725.71 seconds =      28.76 minutes
	system time =      93.56 seconds =       1.56 minutes
	total time  =        186 seconds =       3.10 minutes

    Psi4 stopped on: Saturday, 27 February 2021 03:04PM
    Psi4 wall time for execution: 0:03:06.60

*** Psi4 exiting successfully. Buy a developer a beer!
