
    -----------------------------------------------------------------------
          Psi4: An Open-Source Ab Initio Electronic Structure Package
                               Psi4 1.3.2 release

                         Git: Rev {HEAD} ecbda83 


    R. M. Parrish, L. A. Burns, D. G. A. Smith, A. C. Simmonett,
    A. E. DePrince III, E. G. Hohenstein, U. Bozkaya, A. Yu. Sokolov,
    R. Di Remigio, R. M. Richard, J. F. Gonthier, A. M. James,
    H. R. McAlexander, A. Kumar, M. Saitow, X. Wang, B. P. Pritchard,
    P. Verma, H. F. Schaefer III, K. Patkowski, R. A. King, E. F. Valeev,
    F. A. Evangelista, J. M. Turney, T. D. Crawford, and C. D. Sherrill,
    J. Chem. Theory Comput. 13(7) pp 3185--3197 (2017).
    (doi: 10.1021/acs.jctc.7b00174)


                         Additional Contributions by
    P. Kraus, H. Kruse, M. H. Lechner, M. C. Schieber, R. A. Shaw,
    A. Alenaizan, R. Galvelis, Z. L. Glick, S. Lehtola, and J. P. Misiewicz

    -----------------------------------------------------------------------


    Psi4 started on: Tuesday, 03 November 2020 09:39PM

    Process ID: 91842
    Host:       node96.bme.utexas.edu
    PSIDATADIR: /home/xy3866/psi4conda/share/psi4
    Memory:     500.0 MiB
    Threads:    8
    
  ==> Input File <==

--------------------------------------------------------------------------
#psi4
#
memory 32 gb

molecule  {
1 1
  N       -2.3156210     0.0000130     0.0092220
  C       -0.8265460     0.0000770    -0.0152130
  C       -0.1716580    -1.2259970    -0.0050100
  C       -0.1715260     1.2260380    -0.0050050
  C        1.2247150    -1.2130070     0.0014150
  C        1.2248800     1.2129210     0.0014120
  C        1.9183010    -0.0000690     0.0065130
  H       -0.7164250    -2.1682170    -0.0085500
  H       -0.7161430     2.1683510    -0.0085270
  H       -2.6983940     0.8319390    -0.4619130
  H       -2.7075842    -0.8289777    -0.4595372
  H       -2.6873600    -0.0071920     0.9705560
  H        1.7664630    -2.1541410     0.0017740
  H        1.7667170     2.1540020     0.0017630
  H        3.0042640    -0.0001380     0.0102050
units angstrom
no_reorient  #important for SAPT in psi4, default
symmetry c1  #important for SAPT in psi4, default
}

set PROPERTIES_ORIGIN ["COM"]
properties('MP2/aug-cc-pvtz', properties = ['dipole'])
--------------------------------------------------------------------------

  Memory set to  29.802 GiB by Python driver.
    SCF Algorithm Type (re)set to DF.

*** tstart() called on node96.bme.utexas.edu
*** at Tue Nov  3 21:39:08 2020

   => Loading Basis Set <=

    Name: AUG-CC-PVTZ
    Role: ORBITAL
    Keyword: BASIS
    atoms 1    entry N          line   281 file /home/xy3866/psi4conda/share/psi4/basis/aug-cc-pvtz.gbs 
    atoms 2-7  entry C          line   235 file /home/xy3866/psi4conda/share/psi4/basis/aug-cc-pvtz.gbs 
    atoms 8-15 entry H          line    36 file /home/xy3866/psi4conda/share/psi4/basis/aug-cc-pvtz.gbs 


         ---------------------------------------------------------
                                   SCF
               by Justin Turney, Rob Parrish, Andy Simmonett
                          and Daniel G. A. Smith
                              RHF Reference
                        8 Threads,  30517 MiB Core
         ---------------------------------------------------------

  ==> Geometry <==

    Molecular point group: c1
    Full point group: C1

    Geometry (in Angstrom), charge = 1, multiplicity = 1:

       Center              X                  Y                   Z               Mass       
    ------------   -----------------  -----------------  -----------------  -----------------
         N           -2.346879296725     0.000062644936     0.009385616470    14.003074004430
         C           -0.857804296725     0.000126644936    -0.015049383530    12.000000000000
         C           -0.202916296725    -1.225947355064    -0.004846383530    12.000000000000
         C           -0.202784296725     1.226087644936    -0.004841383530    12.000000000000
         C            1.193456703275    -1.212957355064     0.001578616470    12.000000000000
         C            1.193621703275     1.212970644936     0.001575616470    12.000000000000
         C            1.887042703275    -0.000019355064     0.006676616470    12.000000000000
         H           -0.747683296725    -2.168167355064    -0.008386383530     1.007825032230
         H           -0.747401296725     2.168400644936    -0.008363383530     1.007825032230
         H           -2.729652296725     0.831988644936    -0.461749383530     1.007825032230
         H           -2.738842496725    -0.828928055064    -0.459373583530     1.007825032230
         H           -2.718618296725    -0.007142355064     0.970719616470     1.007825032230
         H            1.735204703275    -2.154091355064     0.001937616470     1.007825032230
         H            1.735458703275     2.154051644936     0.001926616470     1.007825032230
         H            2.973005703275    -0.000088355064     0.010368616470     1.007825032230

  Running in c1 symmetry.

  Rotational constants: A =      0.18129  B =      0.08269  C =      0.05732 [cm^-1]
  Rotational constants: A =   5434.91172  B =   2478.93981  C =   1718.44223 [MHz]
  Nuclear repulsion =  280.482358979141679

  Charge       = 1
  Multiplicity = 1
  Electrons    = 50
  Nalpha       = 25
  Nbeta        = 25

  ==> Algorithm <==

  SCF Algorithm Type is DF.
  DIIS enabled.
  MOM disabled.
  Fractional occupation disabled.
  Guess Type is SAD.
  Energy threshold   = 1.00e-10
  Density threshold  = 1.00e-10
  Integral threshold = 0.00e+00

  ==> Primary Basis <==

  Basis Set: AUG-CC-PVTZ
    Blend: AUG-CC-PVTZ
    Number of shells: 170
    Number of basis function: 506
    Number of Cartesian functions: 585
    Spherical Harmonics?: true
    Max angular momentum: 3

   => Loading Basis Set <=

    Name: (AUG-CC-PVTZ AUX)
    Role: JKFIT
    Keyword: DF_BASIS_SCF
    atoms 1    entry N          line   224 file /home/xy3866/psi4conda/share/psi4/basis/aug-cc-pvtz-jkfit.gbs 
    atoms 2-7  entry C          line   162 file /home/xy3866/psi4conda/share/psi4/basis/aug-cc-pvtz-jkfit.gbs 
    atoms 8-15 entry H          line    70 file /home/xy3866/psi4conda/share/psi4/basis/aug-cc-pvtz-jkfit.gbs 

  ==> Pre-Iterations <==

   -------------------------------------------------------
    Irrep   Nso     Nmo     Nalpha   Nbeta   Ndocc  Nsocc
   -------------------------------------------------------
     A        506     506       0       0       0       0
   -------------------------------------------------------
    Total     506     506      25      25      25       0
   -------------------------------------------------------

  ==> Integral Setup <==

  DFHelper Memory: AOs need 2.111 GiB; user supplied 22.352 GiB. Using in-core AOs.

  ==> MemDFJK: Density-Fitted J/K Matrices <==

    J tasked:                   Yes
    K tasked:                   Yes
    wK tasked:                   No
    OpenMP threads:               8
    Memory [MiB]:             22888
    Algorithm:                 Disk
    Schwarz Cutoff:           1E-12
    Mask sparsity (%):       2.6613
    Fitting Condition:        1E-10

   => Auxiliary Basis Set <=

  Basis Set: (AUG-CC-PVTZ AUX)
    Blend: AUG-CC-PVTZ-JKFIT
    Number of shells: 322
    Number of basis function: 1096
    Number of Cartesian functions: 1357
    Spherical Harmonics?: true
    Max angular momentum: 4

  Minimum eigenvalue in the overlap matrix is 6.4208068008E-07.
  Using Symmetric Orthogonalization.

  SCF Guess: Superposition of Atomic Densities via on-the-fly atomic UHF.

  ==> Iterations <==

                           Total Energy        Delta E     RMS |[F,P]|

   @DF-RHF iter SAD:  -286.01849257013731   -2.86018e+02   0.00000e+00 
   @DF-RHF iter   1:  -285.97132257815105    4.71700e-02   1.14747e-03 DIIS
   @DF-RHF iter   2:  -286.14965692010412   -1.78334e-01   5.24817e-04 DIIS
   @DF-RHF iter   3:  -286.18543172042746   -3.57748e-02   1.23569e-04 DIIS
   @DF-RHF iter   4:  -286.18825381597566   -2.82210e-03   4.39052e-05 DIIS
   @DF-RHF iter   5:  -286.18854740395039   -2.93588e-04   1.05284e-05 DIIS
   @DF-RHF iter   6:  -286.18857831711898   -3.09132e-05   4.34430e-06 DIIS
   @DF-RHF iter   7:  -286.18858476903932   -6.45192e-06   1.84484e-06 DIIS
   @DF-RHF iter   8:  -286.18858690592748   -2.13689e-06   8.99309e-07 DIIS
   @DF-RHF iter   9:  -286.18858752787708   -6.21950e-07   3.11670e-07 DIIS
   @DF-RHF iter  10:  -286.18858759270813   -6.48311e-08   8.69763e-08 DIIS
   @DF-RHF iter  11:  -286.18858759564006   -2.93193e-09   3.32244e-08 DIIS
   @DF-RHF iter  12:  -286.18858759604024   -4.00178e-10   6.35902e-09 DIIS
   @DF-RHF iter  13:  -286.18858759604950   -9.26548e-12   1.90459e-09 DIIS
   @DF-RHF iter  14:  -286.18858759605160   -2.10321e-12   6.20406e-10 DIIS
   @DF-RHF iter  15:  -286.18858759605178   -1.70530e-13   1.71375e-10 DIIS
   @DF-RHF iter  16:  -286.18858759605206   -2.84217e-13   5.28029e-11 DIIS
  Energy and wave function converged.


  ==> Post-Iterations <==

    Orbital Energies [Eh]
    ---------------------

    Doubly Occupied:                                                      

       1A    -15.897280     2A    -11.469111     3A    -11.413462  
       4A    -11.413355     5A    -11.397230     6A    -11.397080  
       7A    -11.392334     8A     -1.511303     9A     -1.316030  
      10A     -1.187410    11A     -1.179427    12A     -1.017793  
      13A     -1.003719    14A     -0.956184    15A     -0.934905  
      16A     -0.896019    17A     -0.835050    18A     -0.787490  
      19A     -0.768039    20A     -0.756127    21A     -0.673927  
      22A     -0.673083    23A     -0.664401    24A     -0.508065  
      25A     -0.501634  

    Virtual:                                                              

      26A     -0.111881    27A     -0.076825    28A     -0.075389  
      29A     -0.063680    30A     -0.054988    31A     -0.045620  
      32A     -0.043630    33A     -0.043473    34A     -0.034832  
      35A     -0.022070    36A     -0.020939    37A     -0.016423  
      38A     -0.008152    39A     -0.005932    40A      0.003713  
      41A      0.012342    42A      0.021290    43A      0.021896  
      44A      0.023379    45A      0.027487    46A      0.029015  
      47A      0.035722    48A      0.039135    49A      0.040085  
      50A      0.040148    51A      0.043988    52A      0.059405  
      53A      0.063747    54A      0.064629    55A      0.066857  
      56A      0.079666    57A      0.080906    58A      0.088331  
      59A      0.091526    60A      0.126288    61A      0.127167  
      62A      0.137651    63A      0.138655    64A      0.142571  
      65A      0.154554    66A      0.156830    67A      0.168009  
      68A      0.168278    69A      0.176892    70A      0.179641  
      71A      0.183277    72A      0.198426    73A      0.200292  
      74A      0.202513    75A      0.205123    76A      0.214984  
      77A      0.219163    78A      0.222625    79A      0.229031  
      80A      0.231292    81A      0.233966    82A      0.244805  
      83A      0.247499    84A      0.247616    85A      0.251431  
      86A      0.255250    87A      0.256689    88A      0.270339  
      89A      0.289589    90A      0.289942    91A      0.297329  
      92A      0.305146    93A      0.310462    94A      0.311896  
      95A      0.316561    96A      0.329237    97A      0.332161  
      98A      0.337611    99A      0.344669   100A      0.345822  
     101A      0.357415   102A      0.358208   103A      0.365355  
     104A      0.365500   105A      0.377800   106A      0.377968  
     107A      0.385824   108A      0.395555   109A      0.395991  
     110A      0.398137   111A      0.406507   112A      0.413613  
     113A      0.418384   114A      0.428911   115A      0.430826  
     116A      0.434186   117A      0.458934   118A      0.472500  
     119A      0.488554   120A      0.488737   121A      0.494089  
     122A      0.502438   123A      0.509256   124A      0.519611  
     125A      0.523349   126A      0.528941   127A      0.548003  
     128A      0.555234   129A      0.559722   130A      0.569544  
     131A      0.571584   132A      0.580667   133A      0.595235  
     134A      0.596862   135A      0.617263   136A      0.620975  
     137A      0.628009   138A      0.643186   139A      0.654582  
     140A      0.661958   141A      0.665904   142A      0.668668  
     143A      0.689815   144A      0.697432   145A      0.709454  
     146A      0.711566   147A      0.719449   148A      0.722949  
     149A      0.726566   150A      0.734819   151A      0.744534  
     152A      0.753884   153A      0.756457   154A      0.760114  
     155A      0.764948   156A      0.768020   157A      0.774235  
     158A      0.774388   159A      0.789439   160A      0.799891  
     161A      0.801019   162A      0.806425   163A      0.811811  
     164A      0.826854   165A      0.827709   166A      0.833781  
     167A      0.845099   168A      0.866161   169A      0.872272  
     170A      0.879226   171A      0.882713   172A      0.885590  
     173A      0.897063   174A      0.904398   175A      0.909454  
     176A      0.912422   177A      0.926127   178A      0.938035  
     179A      0.938262   180A      0.944210   181A      0.948082  
     182A      0.959394   183A      0.960147   184A      0.969767  
     185A      0.974023   186A      0.975654   187A      0.999891  
     188A      1.007318   189A      1.018121   190A      1.025692  
     191A      1.037095   192A      1.037586   193A      1.051058  
     194A      1.060968   195A      1.061815   196A      1.067508  
     197A      1.069786   198A      1.078951   199A      1.082384  
     200A      1.090000   201A      1.094709   202A      1.101828  
     203A      1.124527   204A      1.130863   205A      1.151180  
     206A      1.160424   207A      1.164442   208A      1.170670  
     209A      1.191507   210A      1.199040   211A      1.202771  
     212A      1.208514   213A      1.218147   214A      1.245942  
     215A      1.246285   216A      1.250421   217A      1.269635  
     218A      1.278996   219A      1.298289   220A      1.301424  
     221A      1.303883   222A      1.326324   223A      1.332862  
     224A      1.335736   225A      1.355572   226A      1.358307  
     227A      1.376553   228A      1.389189   229A      1.395986  
     230A      1.405808   231A      1.418814   232A      1.429056  
     233A      1.475906   234A      1.494392   235A      1.507781  
     236A      1.508299   237A      1.521068   238A      1.536413  
     239A      1.548133   240A      1.549816   241A      1.564955  
     242A      1.579412   243A      1.608041   244A      1.610566  
     245A      1.617610   246A      1.625608   247A      1.630382  
     248A      1.646369   249A      1.660492   250A      1.674139  
     251A      1.674507   252A      1.690043   253A      1.691402  
     254A      1.708054   255A      1.726577   256A      1.735442  
     257A      1.743691   258A      1.743878   259A      1.751013  
     260A      1.768321   261A      1.797370   262A      1.808759  
     263A      1.826604   264A      1.841735   265A      1.846943  
     266A      1.861843   267A      1.871439   268A      1.874936  
     269A      1.877898   270A      1.891371   271A      1.907982  
     272A      1.910208   273A      1.928907   274A      1.938304  
     275A      1.941701   276A      1.954701   277A      1.959515  
     278A      1.971553   279A      1.971909   280A      2.001531  
     281A      2.012941   282A      2.014611   283A      2.032043  
     284A      2.043150   285A      2.084601   286A      2.090854  
     287A      2.114081   288A      2.134728   289A      2.166697  
     290A      2.189240   291A      2.211278   292A      2.211859  
     293A      2.226887   294A      2.239954   295A      2.249511  
     296A      2.260362   297A      2.262834   298A      2.274958  
     299A      2.294983   300A      2.326088   301A      2.329173  
     302A      2.352996   303A      2.380538   304A      2.416305  
     305A      2.422169   306A      2.439369   307A      2.450184  
     308A      2.481695   309A      2.513310   310A      2.570059  
     311A      2.599539   312A      2.602174   313A      2.621008  
     314A      2.636051   315A      2.642557   316A      2.673346  
     317A      2.731491   318A      2.773116   319A      2.882609  
     320A      2.946866   321A      2.970469   322A      2.988941  
     323A      3.001592   324A      3.019318   325A      3.037278  
     326A      3.080817   327A      3.084649   328A      3.098926  
     329A      3.178765   330A      3.189924   331A      3.211862  
     332A      3.216521   333A      3.235557   334A      3.247842  
     335A      3.264627   336A      3.269543   337A      3.288233  
     338A      3.290318   339A      3.307458   340A      3.368344  
     341A      3.372028   342A      3.372874   343A      3.387155  
     344A      3.389205   345A      3.415020   346A      3.420983  
     347A      3.428819   348A      3.453278   349A      3.455602  
     350A      3.470767   351A      3.497814   352A      3.512523  
     353A      3.551488   354A      3.569017   355A      3.577988  
     356A      3.624388   357A      3.657356   358A      3.660441  
     359A      3.673284   360A      3.683796   361A      3.695724  
     362A      3.696810   363A      3.708692   364A      3.710237  
     365A      3.730158   366A      3.744697   367A      3.746164  
     368A      3.785648   369A      3.788239   370A      3.807803  
     371A      3.810803   372A      3.834605   373A      3.840301  
     374A      3.869924   375A      3.874294   376A      3.887063  
     377A      3.889025   378A      3.914126   379A      3.934873  
     380A      3.940333   381A      3.971230   382A      3.978337  
     383A      3.992850   384A      3.997140   385A      4.006352  
     386A      4.014117   387A      4.016008   388A      4.035970  
     389A      4.083560   390A      4.107720   391A      4.109908  
     392A      4.134913   393A      4.145892   394A      4.173698  
     395A      4.174161   396A      4.183814   397A      4.199623  
     398A      4.209107   399A      4.209426   400A      4.219035  
     401A      4.238930   402A      4.242947   403A      4.245687  
     404A      4.260374   405A      4.269995   406A      4.285221  
     407A      4.308609   408A      4.314351   409A      4.333837  
     410A      4.337996   411A      4.363114   412A      4.384974  
     413A      4.407506   414A      4.424179   415A      4.450496  
     416A      4.467759   417A      4.497680   418A      4.511103  
     419A      4.527770   420A      4.550067   421A      4.559068  
     422A      4.583138   423A      4.586718   424A      4.612683  
     425A      4.622679   426A      4.627637   427A      4.647664  
     428A      4.669005   429A      4.708820   430A      4.721980  
     431A      4.744278   432A      4.757967   433A      4.781198  
     434A      4.784191   435A      4.791378   436A      4.826012  
     437A      4.873406   438A      4.877471   439A      4.915484  
     440A      4.922752   441A      4.925890   442A      4.955008  
     443A      4.966548   444A      4.969080   445A      4.994261  
     446A      4.994681   447A      5.008477   448A      5.017345  
     449A      5.026088   450A      5.030797   451A      5.081182  
     452A      5.107268   453A      5.109032   454A      5.140327  
     455A      5.161713   456A      5.169423   457A      5.171687  
     458A      5.214489   459A      5.238895   460A      5.284996  
     461A      5.293772   462A      5.331824   463A      5.336797  
     464A      5.420248   465A      5.507834   466A      5.577343  
     467A      5.577493   468A      5.598446   469A      5.610349  
     470A      5.612517   471A      5.691741   472A      5.703004  
     473A      5.735476   474A      5.758409   475A      5.864899  
     476A      5.895828   477A      5.946585   478A      5.980715  
     479A      6.054464   480A      6.079902   481A      6.084655  
     482A      6.090805   483A      6.127609   484A      6.174758  
     485A      6.224224   486A      6.238903   487A      6.470846  
     488A      6.488554   489A      6.594146   490A      6.625457  
     491A      6.713991   492A      6.809487   493A      6.812379  
     494A      6.899135   495A      6.962691   496A      7.012877  
     497A      7.230623   498A      7.536060   499A      7.594913  
     500A     15.870611   501A     15.943928   502A     17.409011  
     503A     18.580074   504A     19.162110   505A     19.566455  
     506A     20.413223  

    Final Occupation by Irrep:
              A 
    DOCC [    25 ]

  @DF-RHF Final Energy:  -286.18858759605206

   => Energetics <=

    Nuclear Repulsion Energy =            280.4823589791416794
    One-Electron Energy =                -932.2409774390546318
    Two-Electron Energy =                 365.5700308638608362
    Total Energy =                       -286.1885875960520593

Computation Completed

*** tstop() called on node96.bme.utexas.edu at Tue Nov  3 21:39:48 2020
Module time:
	user time   =     134.11 seconds =       2.24 minutes
	system time =      17.41 seconds =       0.29 minutes
	total time  =         40 seconds =       0.67 minutes
Total time:
	user time   =     134.11 seconds =       2.24 minutes
	system time =      17.41 seconds =       0.29 minutes
	total time  =         40 seconds =       0.67 minutes
   => Loading Basis Set <=

    Name: (AUG-CC-PVTZ AUX)
    Role: RIFIT
    Keyword: DF_BASIS_MP2
    atoms 1    entry N          line   206 file /home/xy3866/psi4conda/share/psi4/basis/aug-cc-pvtz-ri.gbs 
    atoms 2-7  entry C          line   148 file /home/xy3866/psi4conda/share/psi4/basis/aug-cc-pvtz-ri.gbs 
    atoms 8-15 entry H          line    30 file /home/xy3866/psi4conda/share/psi4/basis/aug-cc-pvtz-ri.gbs 


*** tstart() called on node96.bme.utexas.edu
*** at Tue Nov  3 21:39:48 2020


  //>>>>>>>>>>>>>>>>>>>>>>>>>>>>>>>>>>>//
  //               DFMP2               //
  //<<<<<<<<<<<<<<<<<<<<<<<<<<<<<<<<<<<//

	 --------------------------------------------------------
	                          DF-MP2                         
	      2nd-Order Density-Fitted Moller-Plesset Theory     
	              RMP2 Wavefunction,   8 Threads             
	                                                         
	        Rob Parrish, Justin Turney, Andy Simmonett,      
	           Ed Hohenstein, and C. David Sherrill          
	 --------------------------------------------------------

   => Auxiliary Basis Set <=

  Basis Set: (AUG-CC-PVTZ AUX)
    Blend: AUG-CC-PVTZ-RI
    Number of shells: 308
    Number of basis function: 1110
    Number of Cartesian functions: 1392
    Spherical Harmonics?: true
    Max angular momentum: 4

	 --------------------------------------------------------
	                 NBF =   506, NAUX =  1110
	 --------------------------------------------------------
	   CLASS    FOCC     OCC    AOCC    AVIR     VIR    FVIR
	   PAIRS       0      25      25     481     481       0
	 --------------------------------------------------------

  DFHelper Memory: AOs need 2.111 GiB; user supplied 22.352 GiB. Using in-core AOs.


         ------------------------------------------------------------
                                     CPHF                           
                                  Rob Parrish                       
         ------------------------------------------------------------

  ==> Geometry <==

    Molecular point group: c1
    Full point group: C1

    Geometry (in Angstrom), charge = 1, multiplicity = 1:

       Center              X                  Y                   Z               Mass       
    ------------   -----------------  -----------------  -----------------  -----------------
         N           -2.346879296725     0.000062644936     0.009385616470    14.003074004430
         C           -0.857804296725     0.000126644936    -0.015049383530    12.000000000000
         C           -0.202916296725    -1.225947355064    -0.004846383530    12.000000000000
         C           -0.202784296725     1.226087644936    -0.004841383530    12.000000000000
         C            1.193456703275    -1.212957355064     0.001578616470    12.000000000000
         C            1.193621703275     1.212970644936     0.001575616470    12.000000000000
         C            1.887042703275    -0.000019355064     0.006676616470    12.000000000000
         H           -0.747683296725    -2.168167355064    -0.008386383530     1.007825032230
         H           -0.747401296725     2.168400644936    -0.008363383530     1.007825032230
         H           -2.729652296725     0.831988644936    -0.461749383530     1.007825032230
         H           -2.738842496725    -0.828928055064    -0.459373583530     1.007825032230
         H           -2.718618296725    -0.007142355064     0.970719616470     1.007825032230
         H            1.735204703275    -2.154091355064     0.001937616470     1.007825032230
         H            1.735458703275     2.154051644936     0.001926616470     1.007825032230
         H            2.973005703275    -0.000088355064     0.010368616470     1.007825032230

  Nuclear repulsion =  280.482358979141623
  Reference energy  = -286.188587596052059

  ==> Basis Set <==

  Basis Set: AUG-CC-PVTZ
    Blend: AUG-CC-PVTZ
    Number of shells: 170
    Number of basis function: 506
    Number of Cartesian functions: 585
    Spherical Harmonics?: true
    Max angular momentum: 3

  ==> CGRSolver (by Rob Parrish) <==

   Number of roots    =         1
   Preconditioning    =    JACOBI
   Convergence cutoff =     1E-06
   Maximum iterations =       100

  ==> CPHFRHamiltonian (by Rob Parrish) <== 

  ==> MemDFJK: Density-Fitted J/K Matrices <==

    J tasked:                   Yes
    K tasked:                   Yes
    wK tasked:                   No
    OpenMP threads:               8
    Memory [MiB]:             22888
    Algorithm:                 Disk
    Schwarz Cutoff:           1E-12
    Mask sparsity (%):       2.6613
    Fitting Condition:        1E-10

   => Auxiliary Basis Set <=

  Basis Set: (AUG-CC-PVTZ AUX)
    Blend: AUG-CC-PVTZ-JKFIT
    Number of shells: 322
    Number of basis function: 1096
    Number of Cartesian functions: 1357
    Spherical Harmonics?: true
    Max angular momentum: 4

  ==> CPHF Iterations <==

  => Iterations <=

             Iter  Converged  Remaining    Residual
  CGR           1          0          1   7.267E-02
  CGR           2          0          1   1.278E-02
  CGR           3          0          1   5.199E-03
  CGR           4          0          1   2.829E-03
  CGR           5          0          1   1.230E-03
  CGR           6          0          1   4.871E-04
  CGR           7          0          1   1.669E-04
  CGR           8          0          1   4.322E-05
  CGR           9          0          1   1.152E-05
  CGR          10          0          1   3.142E-06
  CGR          11          1          0   7.539E-07

    CGRSolver converged.

	-----------------------------------------------------------
	 ==================> DF-MP2 Energies <==================== 
	-----------------------------------------------------------
	 Reference Energy          =    -286.1885875960520593 [Eh]
	 Singles Energy            =      -0.0000000000000000 [Eh]
	 Same-Spin Energy          =      -0.3089565221443917 [Eh]
	 Opposite-Spin Energy      =      -0.9924554850913094 [Eh]
	 Correlation Energy        =      -1.3014120072357012 [Eh]
	 Total Energy              =    -287.4899996032877425 [Eh]
	-----------------------------------------------------------
	 ================> DF-SCS-MP2 Energies <================== 
	-----------------------------------------------------------
	 SCS Same-Spin Scale       =       0.3333333333333333 [-]
	 SCS Opposite-Spin Scale   =       1.2000000000000000 [-]
	 SCS Same-Spin Energy      =      -0.1029855073814639 [Eh]
	 SCS Opposite-Spin Energy  =      -1.1909465821095713 [Eh]
	 SCS Correlation Energy    =      -1.2939320894910351 [Eh]
	 SCS Total Energy          =    -287.4825196855430818 [Eh]
	-----------------------------------------------------------



Properties will be evaluated at   0.000000,  -0.000000,   0.000000 [a0]

Properties computed using the MP2 density matrix

  Nuclear Dipole Moment: [e a0]
     X:    -3.0292      Y:    -0.0037      Z:     0.0441

  Electronic Dipole Moment: [e a0]
     X:     0.1762      Y:     0.0013      Z:    -0.0093

  Dipole Moment: [e a0]
     X:    -2.8530      Y:    -0.0024      Z:     0.0348     Total:     2.8532

  Dipole Moment: [D]
     X:    -7.2515      Y:    -0.0062      Z:     0.0884     Total:     7.2520


*** tstop() called on node96.bme.utexas.edu at Tue Nov  3 21:41:18 2020
Module time:
	user time   =     360.24 seconds =       6.00 minutes
	system time =      19.59 seconds =       0.33 minutes
	total time  =         90 seconds =       1.50 minutes
Total time:
	user time   =     494.49 seconds =       8.24 minutes
	system time =      37.00 seconds =       0.62 minutes
	total time  =        130 seconds =       2.17 minutes

    Psi4 stopped on: Tuesday, 03 November 2020 09:41PM
    Psi4 wall time for execution: 0:02:10.28

*** Psi4 exiting successfully. Buy a developer a beer!
