058_Trimethylamine Gaussian SP Calculation on g2-node38.bme.utexas.edu  
Freq      RMP2-FC                                                     6-31G(d)            
Number of atoms                            I               13
Info1-9                                    I   N=           9
          24          23        1002           0           0         100
           6           2           1
Charge                                     I                0
Multiplicity                               I                1
Number of electrons                        I               34
Number of alpha electrons                  I               17
Number of beta electrons                   I               17
Number of basis functions                  I               78
Number of independent functions            I               78
Number of point charges in /Mol/           I                0
Number of translation vectors              I                0
Atomic numbers                             I   N=          13
           7           6           6           6           1           1
           1           1           1           1           1           1
           1
Nuclear charges                            R   N=          13
  7.00000000E+00  6.00000000E+00  6.00000000E+00  6.00000000E+00  1.00000000E+00
  1.00000000E+00  1.00000000E+00  1.00000000E+00  1.00000000E+00  1.00000000E+00
  1.00000000E+00  1.00000000E+00  1.00000000E+00
Current cartesian coordinates              R   N=          39
 -3.56782282E-07 -3.46944695E-17 -7.48732656E-01  9.93462579E-01  2.41080134E+00
  1.23547550E-01 -2.58454790E+00 -3.45036680E-01  1.23547896E-01  1.59108531E+00
 -2.06576410E+00  1.23547000E-01 -1.86477914E-01  3.94463815E+00 -6.01071267E-01
  2.91148331E+00  2.66800201E+00 -6.01048836E-01  1.05327838E+00  2.55597547E+00
  2.20787975E+00 -3.76629764E+00  1.18741708E+00 -6.01050640E-01 -2.74018100E+00
 -3.65826543E-01  2.20787975E+00 -3.32292389E+00 -2.13381408E+00 -6.01069492E-01
  8.54811786E-01 -3.85541557E+00 -6.01047910E-01  1.68691274E+00 -2.19015248E+00
  2.20787924E+00  3.50939675E+00 -1.81082744E+00 -6.01076684E-01
Force Field                                I                0
Int Atom Types                             I   N=          13
           0           0           0           0           0           0
           0           0           0           0           0           0
           0
MM charges                                 R   N=          13
  0.00000000E+00  0.00000000E+00  0.00000000E+00  0.00000000E+00  0.00000000E+00
  0.00000000E+00  0.00000000E+00  0.00000000E+00  0.00000000E+00  0.00000000E+00
  0.00000000E+00  0.00000000E+00  0.00000000E+00
Integer atomic weights                     I   N=          13
          14          12          12          12           1           1
           1           1           1           1           1           1
           1
Real atomic weights                        R   N=          13
  1.40030740E+01  1.20000000E+01  1.20000000E+01  1.20000000E+01  1.00782504E+00
  1.00782504E+00  1.00782504E+00  1.00782504E+00  1.00782504E+00  1.00782504E+00
  1.00782504E+00  1.00782504E+00  1.00782504E+00
Atom fragment info                         I   N=          13
           0           0           0           0           0           0
           0           0           0           0           0           0
           0
Atom residue num                           I   N=          13
           0           0           0           0           0           0
           0           0           0           0           0           0
           0
Nuclear spins                              I   N=          13
           2           0           0           0           1           1
           1           1           1           1           1           1
           1
Nuclear ZEff                               R   N=          13
 -4.55000000E+00 -3.60000000E+00 -3.60000000E+00 -3.60000000E+00 -1.00000000E+00
 -1.00000000E+00 -1.00000000E+00 -1.00000000E+00 -1.00000000E+00 -1.00000000E+00
 -1.00000000E+00 -1.00000000E+00 -1.00000000E+00
Nuclear QMom                               R   N=          13
  2.04400000E+00  0.00000000E+00  0.00000000E+00  0.00000000E+00  0.00000000E+00
  0.00000000E+00  0.00000000E+00  0.00000000E+00  0.00000000E+00  0.00000000E+00
  0.00000000E+00  0.00000000E+00  0.00000000E+00
Nuclear GFac                               R   N=          13
  4.03761000E-01  0.00000000E+00  0.00000000E+00  0.00000000E+00  2.79284600E+00
  2.79284600E+00  2.79284600E+00  2.79284600E+00  2.79284600E+00  2.79284600E+00
  2.79284600E+00  2.79284600E+00  2.79284600E+00
MicOpt                                     I   N=          13
          -1          -1          -1          -1          -1          -1
          -1          -1          -1          -1          -1          -1
          -1
Number of contracted shells                I               34
Number of primitive shells                 I               80
Pure/Cartesian d shells                    I                1
Pure/Cartesian f shells                    I                0
Highest angular momentum                   I                2
Largest degree of contraction              I                6
Shell types                                I   N=          34
           0          -1          -1           2           0          -1
          -1           2           0          -1          -1           2
           0          -1          -1           2           0           0
           0           0           0           0           0           0
           0           0           0           0           0           0
           0           0           0           0
Number of primitives per shell             I   N=          34
           6           3           1           1           6           3
           1           1           6           3           1           1
           6           3           1           1           3           1
           3           1           3           1           3           1
           3           1           3           1           3           1
           3           1           3           1
Shell to atom map                          I   N=          34
           1           1           1           1           2           2
           2           2           3           3           3           3
           4           4           4           4           5           5
           6           6           7           7           8           8
           9           9          10          10          11          11
          12          12          13          13
Primitive exponents                        R   N=          80
  4.17351146E+03  6.27457911E+02  1.42902093E+02  4.02343293E+01  1.28202129E+01
  4.39043701E+00  1.16263619E+01  2.71627981E+00  7.72218397E-01  2.12031498E-01
  8.00000000E-01  3.04752488E+03  4.57369518E+02  1.03948685E+02  2.92101553E+01
  9.28666296E+00  3.16392696E+00  7.86827235E+00  1.88128854E+00  5.44249258E-01
  1.68714478E-01  8.00000000E-01  3.04752488E+03  4.57369518E+02  1.03948685E+02
  2.92101553E+01  9.28666296E+00  3.16392696E+00  7.86827235E+00  1.88128854E+00
  5.44249258E-01  1.68714478E-01  8.00000000E-01  3.04752488E+03  4.57369518E+02
  1.03948685E+02  2.92101553E+01  9.28666296E+00  3.16392696E+00  7.86827235E+00
  1.88128854E+00  5.44249258E-01  1.68714478E-01  8.00000000E-01  1.87311370E+01
  2.82539436E+00  6.40121692E-01  1.61277759E-01  1.87311370E+01  2.82539436E+00
  6.40121692E-01  1.61277759E-01  1.87311370E+01  2.82539436E+00  6.40121692E-01
  1.61277759E-01  1.87311370E+01  2.82539436E+00  6.40121692E-01  1.61277759E-01
  1.87311370E+01  2.82539436E+00  6.40121692E-01  1.61277759E-01  1.87311370E+01
  2.82539436E+00  6.40121692E-01  1.61277759E-01  1.87311370E+01  2.82539436E+00
  6.40121692E-01  1.61277759E-01  1.87311370E+01  2.82539436E+00  6.40121692E-01
  1.61277759E-01  1.87311370E+01  2.82539436E+00  6.40121692E-01  1.61277759E-01
Contraction coefficients                   R   N=          80
  1.83477216E-03  1.39946270E-02  6.85865518E-02  2.32240873E-01  4.69069948E-01
  3.60455199E-01 -1.14961182E-01 -1.69117479E-01  1.14585195E+00  1.00000000E+00
  1.00000000E+00  1.83473713E-03  1.40373228E-02  6.88426223E-02  2.32184443E-01
  4.67941348E-01  3.62311985E-01 -1.19332420E-01 -1.60854152E-01  1.14345644E+00
  1.00000000E+00  1.00000000E+00  1.83473713E-03  1.40373228E-02  6.88426223E-02
  2.32184443E-01  4.67941348E-01  3.62311985E-01 -1.19332420E-01 -1.60854152E-01
  1.14345644E+00  1.00000000E+00  1.00000000E+00  1.83473713E-03  1.40373228E-02
  6.88426223E-02  2.32184443E-01  4.67941348E-01  3.62311985E-01 -1.19332420E-01
 -1.60854152E-01  1.14345644E+00  1.00000000E+00  1.00000000E+00  3.34946043E-02
  2.34726953E-01  8.13757326E-01  1.00000000E+00  3.34946043E-02  2.34726953E-01
  8.13757326E-01  1.00000000E+00  3.34946043E-02  2.34726953E-01  8.13757326E-01
  1.00000000E+00  3.34946043E-02  2.34726953E-01  8.13757326E-01  1.00000000E+00
  3.34946043E-02  2.34726953E-01  8.13757326E-01  1.00000000E+00  3.34946043E-02
  2.34726953E-01  8.13757326E-01  1.00000000E+00  3.34946043E-02  2.34726953E-01
  8.13757326E-01  1.00000000E+00  3.34946043E-02  2.34726953E-01  8.13757326E-01
  1.00000000E+00  3.34946043E-02  2.34726953E-01  8.13757326E-01  1.00000000E+00
P(S=P) Contraction coefficients            R   N=          80
  0.00000000E+00  0.00000000E+00  0.00000000E+00  0.00000000E+00  0.00000000E+00
  0.00000000E+00  6.75797439E-02  3.23907296E-01  7.40895140E-01  1.00000000E+00
  0.00000000E+00  0.00000000E+00  0.00000000E+00  0.00000000E+00  0.00000000E+00
  0.00000000E+00  0.00000000E+00  6.89990666E-02  3.16423961E-01  7.44308291E-01
  1.00000000E+00  0.00000000E+00  0.00000000E+00  0.00000000E+00  0.00000000E+00
  0.00000000E+00  0.00000000E+00  0.00000000E+00  6.89990666E-02  3.16423961E-01
  7.44308291E-01  1.00000000E+00  0.00000000E+00  0.00000000E+00  0.00000000E+00
  0.00000000E+00  0.00000000E+00  0.00000000E+00  0.00000000E+00  6.89990666E-02
  3.16423961E-01  7.44308291E-01  1.00000000E+00  0.00000000E+00  0.00000000E+00
  0.00000000E+00  0.00000000E+00  0.00000000E+00  0.00000000E+00  0.00000000E+00
  0.00000000E+00  0.00000000E+00  0.00000000E+00  0.00000000E+00  0.00000000E+00
  0.00000000E+00  0.00000000E+00  0.00000000E+00  0.00000000E+00  0.00000000E+00
  0.00000000E+00  0.00000000E+00  0.00000000E+00  0.00000000E+00  0.00000000E+00
  0.00000000E+00  0.00000000E+00  0.00000000E+00  0.00000000E+00  0.00000000E+00
  0.00000000E+00  0.00000000E+00  0.00000000E+00  0.00000000E+00  0.00000000E+00
  0.00000000E+00  0.00000000E+00  0.00000000E+00  0.00000000E+00  0.00000000E+00
Coordinates of each shell                  R   N=         102
 -3.56782282E-07 -2.77555756E-17 -7.48732656E-01 -3.56782282E-07 -2.77555756E-17
 -7.48732656E-01 -3.56782282E-07 -2.77555756E-17 -7.48732656E-01 -3.56782282E-07
 -2.77555756E-17 -7.48732656E-01  9.93462579E-01  2.41080134E+00  1.23547550E-01
  9.93462579E-01  2.41080134E+00  1.23547550E-01  9.93462579E-01  2.41080134E+00
  1.23547550E-01  9.93462579E-01  2.41080134E+00  1.23547550E-01 -2.58454790E+00
 -3.45036680E-01  1.23547896E-01 -2.58454790E+00 -3.45036680E-01  1.23547896E-01
 -2.58454790E+00 -3.45036680E-01  1.23547896E-01 -2.58454790E+00 -3.45036680E-01
  1.23547896E-01  1.59108531E+00 -2.06576410E+00  1.23547000E-01  1.59108531E+00
 -2.06576410E+00  1.23547000E-01  1.59108531E+00 -2.06576410E+00  1.23547000E-01
  1.59108531E+00 -2.06576410E+00  1.23547000E-01 -1.86477914E-01  3.94463815E+00
 -6.01071267E-01 -1.86477914E-01  3.94463815E+00 -6.01071267E-01  2.91148331E+00
  2.66800201E+00 -6.01048836E-01  2.91148331E+00  2.66800201E+00 -6.01048836E-01
  1.05327838E+00  2.55597547E+00  2.20787975E+00  1.05327838E+00  2.55597547E+00
  2.20787975E+00 -3.76629764E+00  1.18741708E+00 -6.01050640E-01 -3.76629764E+00
  1.18741708E+00 -6.01050640E-01 -2.74018100E+00 -3.65826543E-01  2.20787975E+00
 -2.74018100E+00 -3.65826543E-01  2.20787975E+00 -3.32292389E+00 -2.13381408E+00
 -6.01069492E-01 -3.32292389E+00 -2.13381408E+00 -6.01069492E-01  8.54811786E-01
 -3.85541557E+00 -6.01047910E-01  8.54811786E-01 -3.85541557E+00 -6.01047910E-01
  1.68691274E+00 -2.19015248E+00  2.20787924E+00  1.68691274E+00 -2.19015248E+00
  2.20787924E+00  3.50939675E+00 -1.81082744E+00 -6.01076684E-01  3.50939675E+00
 -1.81082744E+00 -6.01076684E-01
Constraint Structure                       R   N=          39
 -3.56782282E-07 -2.77555756E-17 -7.48732656E-01  9.93462579E-01  2.41080134E+00
  1.23547550E-01 -2.58454790E+00 -3.45036680E-01  1.23547896E-01  1.59108531E+00
 -2.06576410E+00  1.23547000E-01 -1.86477914E-01  3.94463815E+00 -6.01071267E-01
  2.91148331E+00  2.66800201E+00 -6.01048836E-01  1.05327838E+00  2.55597547E+00
  2.20787975E+00 -3.76629764E+00  1.18741708E+00 -6.01050640E-01 -2.74018100E+00
 -3.65826543E-01  2.20787975E+00 -3.32292389E+00 -2.13381408E+00 -6.01069492E-01
  8.54811786E-01 -3.85541557E+00 -6.01047910E-01  1.68691274E+00 -2.19015248E+00
  2.20787924E+00  3.50939675E+00 -1.81082744E+00 -6.01076684E-01
Num ILSW                                   I              100
ILSW                                       I   N=         100
           0           1           0           0           2           0
           0           0           0           0           0          -1
           0           0           0           0           0           0
           0           0           0           0           1           0
           1           0           0           0           0           0
           0           0      100000           0          -1           0
           0           0           0           0           0           0
           0           0           0           1           1           0
           0           0           1           0           0           0
           0           0           4          40           0           0
           0           0           0           0           0           0
           0           0           0           0           0           0
           0           0           0           0           0           0
           0           0           0           0           0           0
           0           0           0           0           0           0
           0           0           0           0           0           0
           0           0           0           0
Num RLSW                                   I               40
RLSW                                       R   N=          40
  1.00000000E+00  1.00000000E+00  1.00000000E+00  1.00000000E+00  1.00000000E+00
  0.00000000E+00  0.00000000E+00  1.00000000E+00  0.00000000E+00  0.00000000E+00
  0.00000000E+00  0.00000000E+00  1.00000000E+00  0.00000000E+00  0.00000000E+00
  0.00000000E+00  0.00000000E+00  1.00000000E+00  0.00000000E+00  0.00000000E+00
  0.00000000E+00  0.00000000E+00  1.00000000E+00  0.00000000E+00  0.00000000E+00
  0.00000000E+00  0.00000000E+00  1.00000000E+00  0.00000000E+00  0.00000000E+00
  0.00000000E+00  0.00000000E+00  0.00000000E+00  0.00000000E+00  0.00000000E+00
  0.00000000E+00  0.00000000E+00  0.00000000E+00  1.00000000E+00  1.00000000E+00
MxBond                                     I                4
NBond                                      I   N=          13
           3           4           4           4           1           1
           1           1           1           1           1           1
           1
IBond                                      I   N=          52
           2           3           4           0           1           5
           6           7           1           8           9          10
           1          11          12          13           2           0
           0           0           2           0           0           0
           2           0           0           0           3           0
           0           0           3           0           0           0
           3           0           0           0           4           0
           0           0           4           0           0           0
           4           0           0           0
RBond                                      R   N=          52
  1.00000000E+00  1.00000000E+00  1.00000000E+00  0.00000000E+00  1.00000000E+00
  1.00000000E+00  1.00000000E+00  1.00000000E+00  1.00000000E+00  1.00000000E+00
  1.00000000E+00  1.00000000E+00  1.00000000E+00  1.00000000E+00  1.00000000E+00
  1.00000000E+00  1.00000000E+00  0.00000000E+00  0.00000000E+00  0.00000000E+00
  1.00000000E+00  0.00000000E+00  0.00000000E+00  0.00000000E+00  1.00000000E+00
  0.00000000E+00  0.00000000E+00  0.00000000E+00  1.00000000E+00  0.00000000E+00
  0.00000000E+00  0.00000000E+00  1.00000000E+00  0.00000000E+00  0.00000000E+00
  0.00000000E+00  1.00000000E+00  0.00000000E+00  0.00000000E+00  0.00000000E+00
  1.00000000E+00  0.00000000E+00  0.00000000E+00  0.00000000E+00  1.00000000E+00
  0.00000000E+00  0.00000000E+00  0.00000000E+00  1.00000000E+00  0.00000000E+00
  0.00000000E+00  0.00000000E+00
Virial Ratio                               R      2.001638822605250E+00
SCF Energy                                 R     -1.732682048578083E+02
MP2 Energy                                 R     -1.738285982564002E+02
Total Energy                               R     -1.738285982564002E+02
Post-SCF wavefunction norm                 R      1.536903115404642E+00
RMS Force                                  R      2.323490238324212E-07
RMS Density                                R      2.044772680373289E-10
External E-field                           R   N=          35
  0.00000000E+00  0.00000000E+00  0.00000000E+00  0.00000000E+00  0.00000000E+00
  0.00000000E+00  0.00000000E+00  0.00000000E+00  0.00000000E+00  0.00000000E+00
  0.00000000E+00  0.00000000E+00  0.00000000E+00  0.00000000E+00  0.00000000E+00
  0.00000000E+00  0.00000000E+00  0.00000000E+00  0.00000000E+00  0.00000000E+00
  0.00000000E+00  0.00000000E+00  0.00000000E+00  0.00000000E+00  0.00000000E+00
  0.00000000E+00  0.00000000E+00  0.00000000E+00  0.00000000E+00  0.00000000E+00
  0.00000000E+00  0.00000000E+00  0.00000000E+00  0.00000000E+00  0.00000000E+00
IOpCl                                      I                0
IROHF                                      I                0
Alpha Orbital Energies                     R   N=          78
 -1.55482396E+01 -1.12401976E+01 -1.12401975E+01 -1.12401721E+01 -1.22278028E+00
 -9.46761971E-01 -9.46761898E-01 -8.04490215E-01 -6.39961827E-01 -6.26635104E-01
 -6.26634989E-01 -5.42258451E-01 -5.42258106E-01 -5.15457689E-01 -4.96796699E-01
 -4.96796504E-01 -3.53370407E-01  2.22113286E-01  2.95663228E-01  2.95663325E-01
  3.05090696E-01  3.08040192E-01  3.08040337E-01  3.36837234E-01  3.52356211E-01
  3.52356394E-01  3.90249161E-01  4.34931116E-01  4.34931411E-01  7.32288260E-01
  7.32288434E-01  7.71287143E-01  7.71287298E-01  7.74862217E-01  8.51008734E-01
  9.48426996E-01  9.48427447E-01  1.05940124E+00  1.08525813E+00  1.09916904E+00
  1.11125168E+00  1.11125225E+00  1.16020326E+00  1.16834613E+00  1.16834647E+00
  1.19490162E+00  1.24596891E+00  1.24596907E+00  1.25592936E+00  1.25592987E+00
  1.30339359E+00  1.59561905E+00  1.71403388E+00  1.71403404E+00  1.72347301E+00
  1.72347386E+00  2.06489058E+00  2.20943009E+00  2.20943057E+00  2.24496509E+00
  2.33919745E+00  2.33919782E+00  2.44569583E+00  2.44569697E+00  2.49247171E+00
  2.55175040E+00  2.56783856E+00  2.56783893E+00  2.60650915E+00  2.84431769E+00
  2.95972745E+00  2.95972804E+00  3.14117765E+00  3.14117814E+00  4.45625195E+00
  4.68915675E+00  4.68915699E+00  4.77137016E+00
Alpha MO coefficients                      R   N=        6084
  9.95140770E-01  2.51066575E-02  4.46888068E-10  6.62824516E-10  1.53915696E-03
 -4.38485536E-03 -1.17738629E-09 -5.31614224E-10 -1.79522429E-03 -3.15646919E-03
 -3.15646869E-03 -2.90687965E-03  1.19747303E-11  1.33983595E-10  2.75715777E-10
  1.26255691E-06  2.53481667E-04 -1.21764895E-04 -2.95480875E-04 -7.22571412E-05
  1.63386244E-03 -2.17906367E-04 -5.28797548E-04  1.40343428E-04 -8.88709895E-05
 -1.28764401E-04 -5.98571259E-05 -2.28656616E-05 -3.88054379E-05 -9.41670247E-05
  1.26251483E-06  2.53481492E-04  3.16776651E-04  4.22888783E-05 -7.22572104E-05
  1.63385895E-03  5.66904388E-04  7.56859803E-05  1.40344050E-04 -1.35939388E-04
 -8.16950244E-05 -5.98570145E-05 -8.51381578E-06  1.00953607E-04  1.34766977E-05
  1.26246261E-06  2.53481194E-04 -1.95011591E-04  2.53192303E-04 -7.22569989E-05
  1.63386277E-03 -3.48999959E-04  4.53108902E-04  1.40343674E-04 -1.01641754E-04
 -1.15993259E-04 -5.98571675E-05  3.13793356E-05 -6.21478766E-05  8.06900444E-05
 -6.98970787E-05 -1.25488752E-04 -6.98974245E-05 -1.25495459E-04 -1.35123921E-04
 -2.40996154E-04 -6.98973835E-05 -1.25495106E-04 -1.35123684E-04 -2.40996617E-04
 -6.98969852E-05 -1.25487503E-04 -6.98976724E-05 -1.25497860E-04 -1.35123939E-04
 -2.40996426E-04 -6.98969522E-05 -1.25487416E-04 -5.09728162E-07  1.22672245E-06
 -1.04474860E-04 -2.22661649E-05  2.82228281E-07  2.37049895E-06 -8.44917466E-04
 -1.80085282E-04 -1.40976211E-06 -2.00854390E-04  1.99213844E-04 -3.46464881E-09
 -4.39811366E-05  2.09236722E-04  4.45944332E-05 -4.58593835E-01 -1.31184145E-02
  1.72847414E-04  1.75894080E-04 -7.10276495E-06  7.06460358E-03 -1.08690725E-03
 -1.32164859E-04  3.05924245E-04  8.21381569E-04  7.23983274E-04  7.64929084E-04
  9.68933624E-05  1.68641507E-06 -3.50170217E-06  8.11798387E-01  2.32184466E-02
  3.99800844E-04  6.21348229E-05  1.20796164E-05 -1.24917053E-02 -9.22793248E-04
 -2.13318273E-04 -5.37824335E-04 -1.40678251E-03 -1.32861454E-03 -1.35482935E-03
 -2.27794996E-05 -4.42895760E-06 -3.17281889E-07 -3.49874184E-01 -1.00087198E-02
  1.86761887E-04 -7.61764273E-05 -5.46326293E-06  5.39097535E-03 -1.07704090E-03
 -3.12392257E-04  2.33733208E-04  6.83955521E-04  4.95063809E-04  5.83519058E-04
 -5.12317200E-05  1.29232045E-06  3.51072050E-06 -1.54392819E-04 -1.52570659E-03
  2.57200689E-06 -6.39814477E-04 -1.56797564E-04 -1.41242788E-03  1.41309082E-04
  1.95832394E-03  2.76270521E-04  2.49660072E-03  1.26617243E-04  1.87541920E-03
 -1.43779545E-04 -1.31044637E-03 -1.19733208E-04 -1.07790592E-03  2.78793124E-05
 -3.41652615E-04  1.21443293E-07 -2.91750642E-07  2.22670733E-05 -1.04475702E-04
 -6.73006246E-08 -5.66360400E-07  1.80075006E-04 -8.44914225E-04  3.35570852E-07
 -3.78936693E-05  3.82839671E-05  1.00217815E-09  2.30979894E-04 -4.45947400E-05
  2.09236877E-04 -6.70957702E-01 -1.91910038E-02  6.85712191E-05  3.33335421E-04
 -1.00897607E-05  1.03274649E-02  3.07482209E-04 -9.71096781E-04  4.45316800E-04
  1.05986515E-03  1.20100313E-03  1.11961534E-03 -2.37787344E-05 -3.24470557E-06
 -2.66167438E-06 -6.30328537E-02 -1.80260693E-03 -4.59773092E-05  1.07020722E-04
 -9.08207523E-07  9.69117103E-04  2.24876041E-04 -1.13403887E-03  4.15364049E-05
  1.39132964E-04  7.32469814E-05  1.05241886E-04 -1.25415827E-04 -1.30522017E-07
  3.51229219E-06  7.33198127E-01  2.09718832E-02 -1.84447298E-04  3.19057081E-04
  1.11135630E-05 -1.12879857E-02  1.25511487E-04 -9.81620304E-04 -4.87285309E-04
 -1.17787187E-03 -1.29275686E-03 -1.22333873E-03  2.90354472E-05  3.68261322E-06
 -2.30081750E-06 -5.70137932E-05 -1.28066732E-03 -1.64605480E-04 -1.88786775E-03
 -2.28613707E-04 -2.06424682E-03  8.44884007E-05  3.86553948E-04 -2.13783908E-05
 -1.93630062E-04 -1.05242586E-04 -6.84254312E-04  8.00916379E-05  1.49939736E-03
  2.50052410E-04  2.25638539E-03  1.62233555E-04  1.96300481E-03 -2.64137230E-04
  6.34868579E-04  2.11621518E-07 -4.81952563E-09  1.46004358E-04  1.23063141E-03
  1.71612486E-06 -4.34162859E-08 -7.29113648E-04 -4.24535391E-04 -4.25272410E-04
 -1.81204667E-06  1.91283061E-07 -4.24514789E-07  9.56112351E-09  5.75438474E-01
  1.57784569E-02 -1.12918843E-04 -2.73470662E-04 -8.38201586E-05 -6.24562083E-03
 -2.03073994E-04 -4.98417219E-04  3.15878023E-04 -1.00716419E-03 -8.95811163E-04
 -1.10242415E-03  6.34809493E-05 -1.02693758E-05 -2.49044574E-05  5.73264528E-01
  1.57162745E-02  2.92185434E-04  3.90420559E-05 -8.38530407E-05 -6.21215486E-03
  5.36019263E-04  7.11987424E-05  3.17322162E-04 -8.72200207E-04 -1.02345027E-03
 -1.09879617E-03  2.36966257E-05  2.67137406E-05  3.56635782E-06  5.75873721E-01
  1.57909062E-02 -1.80807034E-04  2.34464482E-04 -8.38132749E-05 -6.25232431E-03
 -3.26683053E-04  4.27070394E-04  3.15592146E-04 -9.72361923E-04 -9.32080644E-04
 -1.10315056E-03 -8.72766749E-05 -1.64401751E-05  2.13372296E-05  1.80845979E-05
  1.39374611E-03  1.77320047E-05  1.39175472E-03 -4.48542127E-05  1.08368844E-03
  1.75782406E-05  1.38778232E-03 -4.55956235E-05  1.07699976E-03  1.75207633E-05
  1.38745008E-03  1.81265858E-05  1.39460704E-03 -4.47057015E-05  1.08502523E-03
  1.78341420E-05  1.39295147E-03 -1.69853169E-01  3.46862660E-01  1.18992519E-07
  1.07824465E-07  6.92609295E-02  3.63926476E-01  1.88936883E-08  4.17589231E-08
  4.56980821E-02  6.92417574E-03  6.92416718E-03 -4.01946955E-03 -2.68465669E-09
  8.75874224E-09  1.02456225E-08 -7.47484094E-02  1.39025406E-01 -3.01268777E-02
 -7.31078444E-02 -1.97576458E-02  6.59749601E-02  1.00771893E-03  2.44551326E-03
 -2.41449326E-06  7.48426667E-04  1.36711532E-02 -1.57888416E-03  7.40695311E-03
  2.33460593E-03  5.66524811E-03 -7.47482900E-02  1.39025186E-01  7.83765391E-02
  1.04633188E-02 -1.97576102E-02  6.59748592E-02 -2.62172894E-03 -3.50057992E-04
 -2.42569442E-06  1.59956737E-02 -1.57610676E-03 -1.57887956E-03  2.75788682E-03
 -6.07354070E-03 -8.10827794E-04 -7.47483389E-02  1.39025282E-01 -4.82498263E-02
  6.26444436E-02 -1.97576509E-02  6.59748789E-02  1.61405994E-03 -2.09542510E-03
 -2.42879652E-06  4.88526932E-03  9.53431546E-03 -1.57889302E-03 -1.01648315E-02
  3.73896874E-03 -4.85443237E-03  3.08071723E-02  4.04341764E-03  3.08071258E-02
  4.04349502E-03  3.20179029E-02  3.52909839E-03  3.08071547E-02  4.04350840E-03
  3.20178544E-02  3.52909645E-03  3.08070392E-02  4.04339984E-03  3.08072047E-02
  4.04354321E-03  3.20178071E-02  3.52909848E-03  3.08071005E-02  4.04338246E-03
 -1.41495382E-08  3.36534404E-08  1.68556325E-01 -8.46637385E-02 -5.55316971E-08
  3.47029794E-08  7.10633823E-02 -3.56943012E-02 -4.17302502E-08 -6.86979282E-03
  6.86979581E-03 -7.36140190E-09 -9.28188995E-03  1.35573955E-02 -6.80970780E-03
  1.17975751E-02 -2.23453971E-02  3.57604433E-02 -1.51985818E-02  8.69737871E-04
 -2.13415114E-02  9.17473058E-03 -4.70729858E-03 -9.04043999E-04 -2.46155902E-03
  1.48672608E-03 -4.92991857E-04 -2.06677686E-03 -2.03641113E-03  8.22716075E-04
  1.30818308E-01 -2.47778707E-01  7.59971179E-03 -2.11216970E-02  9.64390718E-03
 -2.36646822E-01  1.01827226E-02 -4.49523622E-03 -1.00248762E-02 -3.51305035E-03
 -7.29684867E-03 -5.46634065E-03 -1.20435516E-03  3.33350604E-06  1.25173781E-03
 -1.42615799E-01  2.70123940E-01  1.65503753E-02  6.22777763E-03 -1.05137941E-02
  2.57988131E-01  9.86236581E-03 -5.47421823E-03  1.09289187E-02  5.20443450E-03
  6.58029176E-03  5.95933043E-03  2.23048183E-03 -6.44979544E-04 -7.29282567E-04
 -2.21068285E-02 -7.47728380E-03  5.52589253E-03  2.87440358E-03 -7.57070391E-03
 -1.48660965E-03 -9.97324941E-02 -2.84431246E-02 -8.39474335E-02 -1.64841593E-02
 -8.41277314E-02 -2.25973100E-02  9.42065374E-02  2.55686905E-02  9.15180455E-02
  1.79707491E-02  1.06234478E-01  3.00745627E-02  3.64104952E-08 -7.32268995E-08
  8.46636723E-02  1.68556400E-01  2.83450873E-08 -1.40507673E-07  3.56941768E-02
  7.10634143E-02  9.44530676E-10 -8.03836549E-03  8.03835627E-03 -6.32701233E-10
  7.93257920E-03  6.80970789E-03  1.35573937E-02 -1.57867211E-01  2.99011157E-01
  4.86290216E-03  4.17993207E-03 -1.16379879E-02  2.85577579E-01  5.07726413E-03
  1.03050820E-02  1.20976837E-02  7.71157860E-03  5.33343112E-03  6.59660670E-03
 -1.68665220E-03 -7.39990968E-05  2.50994976E-04  8.91506621E-02 -1.68857371E-01
 -1.05999905E-03  3.23406494E-02  6.57215137E-03 -1.61271240E-01  5.28926557E-03
  9.29716942E-03 -6.83175903E-03 -3.24120044E-03 -4.12554219E-03 -3.72526256E-03
  2.77745236E-03  3.54935058E-04 -1.78870352E-03  6.87166985E-02 -1.30154083E-01
  2.62894410E-02  2.33899656E-02  5.06590103E-03 -1.24306605E-01  4.31026683E-03
  9.61754060E-03 -5.26591698E-03 -5.37162769E-03 -3.06664851E-04 -2.87134854E-03
 -2.01512741E-04 -1.62605282E-03 -1.14036764E-03  1.09905777E-01  3.04101658E-02
  1.11970549E-01  3.11836802E-02  1.01305019E-01  1.98925341E-02 -5.11998568E-02
 -1.31025789E-02 -5.72090383E-02 -1.12337465E-02 -7.40978733E-02 -2.16805764E-02
 -6.07710512E-02 -1.80812136E-02 -4.40960395E-02 -8.65878626E-03 -3.58078916E-02
 -8.72959819E-03 -1.07881673E-01  2.25183849E-01 -1.19671782E-07 -3.73494803E-08
 -1.55680024E-02  3.58428707E-01 -3.84609516E-08 -7.28616874E-09  5.49079960E-03
 -2.13328355E-03 -2.13330349E-03 -5.39015879E-03  2.48728541E-09 -9.34168294E-09
 -5.62994344E-09  7.45884588E-02 -1.40890828E-01 -5.47796025E-02 -1.32931413E-01
 -5.78548031E-02 -1.91000314E-01 -1.34175719E-02 -3.25597765E-02 -2.18290001E-02
 -8.51172176E-03  1.02416401E-02 -9.65785471E-03  1.07488840E-02  3.92497663E-03
  9.52469310E-03  7.45883660E-02 -1.40890650E-01  1.42511817E-01  1.90251947E-02
 -5.78548012E-02 -1.91000101E-01  3.49064297E-02  4.66000849E-03 -2.18289928E-02
  1.36149609E-02 -1.18850309E-02 -9.65785185E-03  4.00220125E-03 -1.02111156E-02
 -1.36315329E-03  7.45884365E-02 -1.40890794E-01 -8.77323606E-02  1.13906151E-01
 -5.78546801E-02 -1.91000231E-01 -2.14889564E-02  2.78998103E-02 -2.18289790E-02
 -2.50836486E-03  4.23830491E-03 -9.65787484E-03 -1.47511251E-02  6.28607264E-03
 -8.16146058E-03 -8.43431679E-02 -3.73942979E-02 -8.43433450E-02 -3.73944091E-02
 -9.29471243E-02 -4.10587856E-02 -8.43432514E-02 -3.73943525E-02 -9.29470861E-02
 -4.10587469E-02 -8.43431242E-02 -3.73942779E-02 -8.43432270E-02 -3.73943359E-02
 -9.29471742E-02 -4.10588115E-02 -8.43431784E-02 -3.73942745E-02  1.68798072E-02