054_Formaldehyde Gaussian SP Calculation on g2-node38.bme.utexas.edu    
Freq      RMP2-FC                                                     6-31G(d)            
Number of atoms                            I                4
Info1-9                                    I   N=           9
          15          14        1002           0           0         100
           6           2           1
Charge                                     I                0
Multiplicity                               I                1
Number of electrons                        I               16
Number of alpha electrons                  I                8
Number of beta electrons                   I                8
Number of basis functions                  I               34
Number of independent functions            I               34
Number of point charges in /Mol/           I                0
Number of translation vectors              I                0
Atomic numbers                             I   N=           4
           6           8           1           1
Nuclear charges                            R   N=           4
  6.00000000E+00  8.00000000E+00  1.00000000E+00  1.00000000E+00
Current cartesian coordinates              R   N=          12
 -7.52925785E-08 -1.01485447E+00  9.37325755E-17 -7.52925781E-08  1.29267725E+00
 -1.19392444E-16  5.27048048E-07 -2.12614559E+00  1.76592008E+00  5.27048048E-07
 -2.12614559E+00 -1.76592008E+00
Force Field                                I                0
Int Atom Types                             I   N=           4
           0           0           0           0
MM charges                                 R   N=           4
  0.00000000E+00  0.00000000E+00  0.00000000E+00  0.00000000E+00
Integer atomic weights                     I   N=           4
          12          16           1           1
Real atomic weights                        R   N=           4
  1.20000000E+01  1.59949146E+01  1.00782504E+00  1.00782504E+00
Atom fragment info                         I   N=           4
           0           0           0           0
Atom residue num                           I   N=           4
           0           0           0           0
Nuclear spins                              I   N=           4
           0           0           1           1
Nuclear ZEff                               R   N=           4
 -3.60000000E+00 -5.60000000E+00 -1.00000000E+00 -1.00000000E+00
Nuclear QMom                               R   N=           4
  0.00000000E+00  0.00000000E+00  0.00000000E+00  0.00000000E+00
Nuclear GFac                               R   N=           4
  0.00000000E+00  0.00000000E+00  2.79284600E+00  2.79284600E+00
MicOpt                                     I   N=           4
          -1          -1          -1          -1
Number of contracted shells                I               12
Number of primitive shells                 I               30
Pure/Cartesian d shells                    I                1
Pure/Cartesian f shells                    I                0
Highest angular momentum                   I                2
Largest degree of contraction              I                6
Shell types                                I   N=          12
           0          -1          -1           2           0          -1
          -1           2           0           0           0           0
Number of primitives per shell             I   N=          12
           6           3           1           1           6           3
           1           1           3           1           3           1
Shell to atom map                          I   N=          12
           1           1           1           1           2           2
           2           2           3           3           4           4
Primitive exponents                        R   N=          30
  3.04752488E+03  4.57369518E+02  1.03948685E+02  2.92101553E+01  9.28666296E+00
  3.16392696E+00  7.86827235E+00  1.88128854E+00  5.44249258E-01  1.68714478E-01
  8.00000000E-01  5.48467166E+03  8.25234946E+02  1.88046958E+02  5.29645000E+01
  1.68975704E+01  5.79963534E+00  1.55396162E+01  3.59993359E+00  1.01376175E+00
  2.70005823E-01  8.00000000E-01  1.87311370E+01  2.82539436E+00  6.40121692E-01
  1.61277759E-01  1.87311370E+01  2.82539436E+00  6.40121692E-01  1.61277759E-01
Contraction coefficients                   R   N=          30
  1.83473713E-03  1.40373228E-02  6.88426223E-02  2.32184443E-01  4.67941348E-01
  3.62311985E-01 -1.19332420E-01 -1.60854152E-01  1.14345644E+00  1.00000000E+00
  1.00000000E+00  1.83107443E-03  1.39501722E-02  6.84450781E-02  2.32714336E-01
  4.70192898E-01  3.58520853E-01 -1.10777550E-01 -1.48026263E-01  1.13076702E+00
  1.00000000E+00  1.00000000E+00  3.34946043E-02  2.34726953E-01  8.13757326E-01
  1.00000000E+00  3.34946043E-02  2.34726953E-01  8.13757326E-01  1.00000000E+00
P(S=P) Contraction coefficients            R   N=          30
  0.00000000E+00  0.00000000E+00  0.00000000E+00  0.00000000E+00  0.00000000E+00
  0.00000000E+00  6.89990666E-02  3.16423961E-01  7.44308291E-01  1.00000000E+00
  0.00000000E+00  0.00000000E+00  0.00000000E+00  0.00000000E+00  0.00000000E+00
  0.00000000E+00  0.00000000E+00  7.08742682E-02  3.39752839E-01  7.27158577E-01
  1.00000000E+00  0.00000000E+00  0.00000000E+00  0.00000000E+00  0.00000000E+00
  0.00000000E+00  0.00000000E+00  0.00000000E+00  0.00000000E+00  0.00000000E+00
Coordinates of each shell                  R   N=          36
 -7.52925785E-08 -1.01485447E+00  6.24883836E-17 -7.52925785E-08 -1.01485447E+00
  6.24883836E-17 -7.52925785E-08 -1.01485447E+00  6.24883836E-17 -7.52925785E-08
 -1.01485447E+00  6.24883836E-17 -7.52925781E-08  1.29267725E+00 -7.95949629E-17
 -7.52925781E-08  1.29267725E+00 -7.95949629E-17 -7.52925781E-08  1.29267725E+00
 -7.95949629E-17 -7.52925781E-08  1.29267725E+00 -7.95949629E-17  5.27048048E-07
 -2.12614559E+00  1.76592008E+00  5.27048048E-07 -2.12614559E+00  1.76592008E+00
  5.27048048E-07 -2.12614559E+00 -1.76592008E+00  5.27048048E-07 -2.12614559E+00
 -1.76592008E+00
Constraint Structure                       R   N=          12
 -7.52925785E-08 -1.01485447E+00  6.24883836E-17 -7.52925781E-08  1.29267725E+00
 -7.95949629E-17  5.27048048E-07 -2.12614559E+00  1.76592008E+00  5.27048048E-07
 -2.12614559E+00 -1.76592008E+00
Num ILSW                                   I              100
ILSW                                       I   N=         100
           0           1           0           0           2           0
           0           0           0           0           0          -1
           0           0           0           0           0           0
           0           0           0           0           1           0
           1           0           0           0           0           0
           0           0      100000           0          -1           0
           0           0           0           0           0           0
           0           0           0           1           1           0
           0           0           1           0           0           0
           0           0           4          40           0           0
           0           0           0           0           0           0
           0           0           0           0           0           0
           0           0           0           0           0           0
           0           0           0           0           0           0
           0           0           0           0           0           0
           0           0           0           0           0           0
           0           0           0           0
Num RLSW                                   I               40
RLSW                                       R   N=          40
  1.00000000E+00  1.00000000E+00  1.00000000E+00  1.00000000E+00  1.00000000E+00
  0.00000000E+00  0.00000000E+00  1.00000000E+00  0.00000000E+00  0.00000000E+00
  0.00000000E+00  0.00000000E+00  1.00000000E+00  0.00000000E+00  0.00000000E+00
  0.00000000E+00  0.00000000E+00  1.00000000E+00  0.00000000E+00  0.00000000E+00
  0.00000000E+00  0.00000000E+00  1.00000000E+00  0.00000000E+00  0.00000000E+00
  0.00000000E+00  0.00000000E+00  1.00000000E+00  0.00000000E+00  0.00000000E+00
  0.00000000E+00  0.00000000E+00  0.00000000E+00  0.00000000E+00  0.00000000E+00
  0.00000000E+00  0.00000000E+00  0.00000000E+00  1.00000000E+00  1.00000000E+00
MxBond                                     I                3
NBond                                      I   N=           4
           3           1           1           1
IBond                                      I   N=          12
           2           3           4           1           0           0
           1           0           0           1           0           0
RBond                                      R   N=          12
  2.00000000E+00  1.00000000E+00  1.00000000E+00  2.00000000E+00  0.00000000E+00
  0.00000000E+00  1.00000000E+00  0.00000000E+00  0.00000000E+00  1.00000000E+00
  0.00000000E+00  0.00000000E+00
Virial Ratio                               R      2.003724969406516E+00
SCF Energy                                 R     -1.138635742762257E+02
MP2 Energy                                 R     -1.141677475685820E+02
Total Energy                               R     -1.141677475685820E+02
Post-SCF wavefunction norm                 R      1.480995045985926E+00
RMS Force                                  R      1.865291482525690E-06
RMS Density                                R      2.817227709011940E-10
External E-field                           R   N=          35
  0.00000000E+00  0.00000000E+00  0.00000000E+00  0.00000000E+00  0.00000000E+00
  0.00000000E+00  0.00000000E+00  0.00000000E+00  0.00000000E+00  0.00000000E+00
  0.00000000E+00  0.00000000E+00  0.00000000E+00  0.00000000E+00  0.00000000E+00
  0.00000000E+00  0.00000000E+00  0.00000000E+00  0.00000000E+00  0.00000000E+00
  0.00000000E+00  0.00000000E+00  0.00000000E+00  0.00000000E+00  0.00000000E+00
  0.00000000E+00  0.00000000E+00  0.00000000E+00  0.00000000E+00  0.00000000E+00
  0.00000000E+00  0.00000000E+00  0.00000000E+00  0.00000000E+00  0.00000000E+00
IOpCl                                      I                0
IROHF                                      I                0
Alpha Orbital Energies                     R   N=          34
 -2.05859555E+01 -1.13460344E+01 -1.39341061E+00 -8.70658082E-01 -6.86624746E-01
 -6.43130656E-01 -5.25027179E-01 -4.39544013E-01  1.33953931E-01  2.43459936E-01
  3.31512022E-01  3.72190795E-01  7.34976684E-01  8.25636428E-01  8.32274656E-01
  9.45870924E-01  1.07919729E+00  1.09743684E+00  1.13050237E+00  1.26933392E+00
  1.33239963E+00  1.61991002E+00  1.78412521E+00  1.79117708E+00  1.98015788E+00
  2.16322706E+00  2.23654532E+00  2.43912399E+00  2.61192701E+00  2.86817113E+00
  2.99347640E+00  3.27203911E+00  4.09171314E+00  4.46886640E+00
Alpha MO coefficients                      R   N=        1156
  1.00422871E-06  4.77264642E-04 -2.16013877E-11 -6.90920240E-05  0.00000000E+00
 -2.43203214E-04  4.71218021E-11 -4.90181395E-04  0.00000000E+00 -1.68124992E-05
 -7.50148085E-04 -6.44272187E-05 -6.34659417E-12  0.00000000E+00  0.00000000E+00
  9.94718731E-01  2.09216318E-02 -4.68870173E-11 -1.54043989E-03  0.00000000E+00
  4.36374376E-03  8.62963005E-12  5.62635734E-05  0.00000000E+00 -4.17235194E-03
 -3.55621760E-03 -3.83215430E-03 -3.63109006E-11  0.00000000E+00  0.00000000E+00
 -1.39965248E-05 -1.39097827E-04 -1.39965248E-05 -1.39097827E-04  9.95698920E-01
  2.65380795E-02 -6.26948886E-11  6.67114060E-04  0.00000000E+00 -7.29893606E-03
 -6.32177933E-10  1.53440596E-03  0.00000000E+00 -2.64039395E-03 -1.12498826E-03
 -2.03946187E-03 -2.08253464E-10  0.00000000E+00  0.00000000E+00 -3.69562755E-04
  2.56155734E-04  3.08541623E-11 -2.68902196E-04  0.00000000E+00 -7.54014255E-04
  2.28759010E-10  1.12694006E-03  0.00000000E+00  1.52182186E-04 -2.01597118E-04
 -8.16756507E-05 -1.19059675E-10  0.00000000E+00  0.00000000E+00 -1.71973172E-04
  2.09530027E-03 -1.71973172E-04  2.09530027E-03 -1.09755552E-01  2.08780912E-01
  1.27385082E-09  1.73604579E-01  0.00000000E+00  8.04347827E-02  2.31991473E-09
 -1.23122291E-02  0.00000000E+00 -1.62644466E-02  3.33605624E-02 -1.43175002E-02
 -1.35942650E-09  0.00000000E+00  0.00000000E+00 -1.97112892E-01  4.43169904E-01
  3.51694333E-09 -1.34766145E-01  0.00000000E+00  3.79858395E-01  8.50788550E-10
 -4.68881424E-02  0.00000000E+00 -8.38273591E-05  1.96748324E-02 -6.82479951E-04
 -2.05618351E-10  0.00000000E+00  0.00000000E+00  2.78955199E-02 -5.80049892E-03
  2.78955199E-02 -5.80049892E-03 -1.62250947E-01  3.38854546E-01  6.50908389E-08
 -1.85188580E-01  0.00000000E+00  3.19260093E-01  2.33678461E-08 -8.22813191E-02
  0.00000000E+00 -1.33995096E-02  1.18291099E-03  2.80694754E-02 -9.10763806E-09
  0.00000000E+00  0.00000000E+00  8.71188423E-02 -1.99440564E-01  2.05049732E-08
 -1.42733164E-01  0.00000000E+00 -2.66295316E-01  7.53260851E-09 -6.73064049E-02
  0.00000000E+00 -2.07318160E-04  8.55197437E-03 -3.93925828E-03 -2.56431567E-09
  0.00000000E+00  0.00000000E+00  1.77353127E-01  6.47095549E-02  1.77353127E-01
  6.47095549E-02  0.00000000E+00  0.00000000E+00  0.00000000E+00  0.00000000E+00
  4.13176901E-01  0.00000000E+00  0.00000000E+00  0.00000000E+00  1.60978671E-01
  0.00000000E+00  0.00000000E+00  0.00000000E+00  0.00000000E+00  1.47250223E-08
 -1.32245996E-02  0.00000000E+00  0.00000000E+00  0.00000000E+00  0.00000000E+00
  3.35887463E-01  0.00000000E+00  0.00000000E+00  0.00000000E+00  1.90209532E-01
  0.00000000E+00  0.00000000E+00  0.00000000E+00  0.00000000E+00 -7.92206462E-11
 -2.41371935E-02  1.84776306E-01  1.21150890E-01 -1.84776306E-01 -1.21150890E-01
  2.11703029E-02 -6.54089749E-02  6.87384671E-08 -3.74882476E-01  0.00000000E+00
  3.82995359E-02  2.71573264E-08 -8.79772026E-02  0.00000000E+00  5.46635585E-03
 -1.78158893E-02  2.66419434E-02 -3.17494147E-09  0.00000000E+00  0.00000000E+00
 -7.07233303E-02  1.56460683E-01  2.49326572E-08  5.07785497E-01  0.00000000E+00
  3.26071273E-01  1.53370711E-08  2.85740207E-01  0.00000000E+00  4.94358534E-03
 -3.51649054E-02  7.42404221E-03 -4.40557910E-09  0.00000000E+00  0.00000000E+00
  9.13849993E-02  7.34897234E-02  9.13849993E-02  7.34897234E-02  2.13727164E-08
 -4.51069629E-08  3.23408783E-01  6.66037783E-08  0.00000000E+00 -6.39492079E-08
  2.09383058E-01  2.80553159E-08  0.00000000E+00 -6.37809323E-10  3.02545385E-09
 -2.65741005E-09  3.57172311E-02  0.00000000E+00  0.00000000E+00 -7.57429136E-10
  7.51498776E-09  4.93109362E-01 -5.05843911E-08  0.00000000E+00 -1.47848884E-08
  3.54937260E-01 -2.58771273E-08  0.00000000E+00  5.08508424E-10  3.43543591E-09
  1.17417924E-09 -4.17135699E-02  0.00000000E+00  0.00000000E+00 -2.09517703E-09
 -1.38647969E-08 -2.09517703E-09 -1.38647969E-08  0.00000000E+00  0.00000000E+00
  0.00000000E+00  0.00000000E+00 -2.01268588E-01  0.00000000E+00  0.00000000E+00
  0.00000000E+00 -5.15100171E-02  0.00000000E+00  0.00000000E+00  0.00000000E+00
  0.00000000E+00 -1.31852209E-08  6.15147398E-02  0.00000000E+00  0.00000000E+00
  0.00000000E+00  0.00000000E+00  5.55324899E-01  0.00000000E+00  0.00000000E+00
  0.00000000E+00  4.36130389E-01  0.00000000E+00  0.00000000E+00  0.00000000E+00
  0.00000000E+00 -7.84852431E-10 -1.89920162E-02 -1.85345314E-01 -2.33759844E-01
  1.85345314E-01  2.33759844E-01  6.24106286E-08 -6.70133772E-08  4.04777558E-01
  1.19130237E-07  0.00000000E+00 -6.72558229E-07  7.10672039E-01  3.03736395E-07
  0.00000000E+00  4.55755912E-09  7.94062598E-09  8.28692063E-09 -3.28385049E-02
  0.00000000E+00  0.00000000E+00 -2.69254273E-09  2.77613022E-08 -3.79948812E-01
 -4.96896301E-08  0.00000000E+00 -7.31906045E-08 -5.24714516E-01 -3.43883819E-08
  0.00000000E+00  4.12181210E-09  7.11204873E-09  8.43724251E-09  3.17691607E-03
  0.00000000E+00  0.00000000E+00  7.95833168E-08  3.87279320E-07  7.95833168E-08
  3.87279320E-07 -1.24839627E-01  1.51965899E-01  2.03085891E-07 -2.11712516E-01
  0.00000000E+00  1.96686145E+00  6.82693687E-07 -7.33329271E-01  0.00000000E+00
 -2.30592013E-03 -6.47461074E-03 -1.06698698E-02 -1.31073857E-08  0.00000000E+00
  0.00000000E+00  2.99009089E-03 -1.85312997E-02 -1.29404767E-07  6.50916817E-02
  0.00000000E+00  6.29463653E-02 -2.65103935E-07  7.50755356E-02  0.00000000E+00
  2.19114419E-03 -1.93986772E-03 -8.84539479E-03  8.50813264E-10  0.00000000E+00
  0.00000000E+00 -4.75122589E-02 -1.45079414E+00 -4.75122589E-02 -1.45079414E+00
  0.00000000E+00  0.00000000E+00  0.00000000E+00  0.00000000E+00 -4.43682864E-01
  0.00000000E+00  0.00000000E+00  0.00000000E+00 -1.55049952E+00  0.00000000E+00
  0.00000000E+00  0.00000000E+00  0.00000000E+00  2.44865466E-09  6.29770172E-03
  0.00000000E+00  0.00000000E+00  0.00000000E+00  0.00000000E+00  1.39032964E-01
  0.00000000E+00  0.00000000E+00  0.00000000E+00  3.99724163E-01  0.00000000E+00
  0.00000000E+00  0.00000000E+00  0.00000000E+00  6.37313788E-09  5.33356333E-03
 -2.44357749E-02  1.73354463E+00  2.44357749E-02 -1.73354463E+00  4.89241259E-02
  1.24117282E-02  6.41888351E-09 -6.43112693E-02  0.00000000E+00 -1.69390006E+00
  6.49710461E-08 -2.05092380E+00  0.00000000E+00 -2.83488135E-03 -2.40250998E-03
 -1.52807687E-02 -3.79257607E-09  0.00000000E+00  0.00000000E+00 -1.08746266E-01
  3.09243530E-02 -5.86726597E-09 -1.53283296E-01  0.00000000E+00  2.28521288E+00
 -2.57225934E-08 -9.50019770E-01  0.00000000E+00 -8.36719002E-02  1.87013514E-03
 -8.15897180E-02 -2.24588642E-10  0.00000000E+00  0.00000000E+00 -3.96781838E-03
 -1.59023395E-01 -3.96781838E-03 -1.59023395E-01 -1.48620209E-08  2.10275991E-07
 -1.07285132E+00 -9.40927481E-08  0.00000000E+00 -1.70094938E-07  1.10633319E+00
 -1.09957272E-08  0.00000000E+00  2.86590252E-08  1.88598179E-08  7.69802693E-09
 -1.62875236E-02  0.00000000E+00  0.00000000E+00 -5.59512698E-10  1.40200284E-08
 -9.86244085E-03  2.07172353E-08  0.00000000E+00  3.53309721E-08 -9.10888713E-02
 -2.09629166E-08  0.00000000E+00  4.66466971E-09  9.12519128E-09  9.82282128E-10
  8.76642168E-02  0.00000000E+00  0.00000000E+00 -4.07547640E-08 -5.19892906E-08
 -4.07547640E-08 -5.19892906E-08 -7.48381483E-02 -7.42791864E-01 -1.80979936E-08
  4.46762686E-01  0.00000000E+00  2.06005789E+00  4.63538304E-07 -9.31348585E-01
  0.00000000E+00  6.14132974E-02 -1.11475305E-01 -2.04083504E-01  2.58546322E-08
  0.00000000E+00  0.00000000E+00  1.87863721E-02 -2.82559342E-01 -1.02378142E-07
  5.07724675E-02  0.00000000E+00  3.02077064E-01 -8.66138065E-08  2.13812846E-01
  0.00000000E+00 -5.12889613E-02 -4.55228890E-02 -1.00242827E-01 -1.14539494E-08
  0.00000000E+00  0.00000000E+00 -5.69637291E-01 -3.60667488E-01 -5.69637291E-01
 -3.60667488E-01  0.00000000E+00  0.00000000E+00  0.00000000E+00  0.00000000E+00
 -7.49260371E-01  0.00000000E+00  0.00000000E+00  0.00000000E+00  2.27504182E+00
  0.00000000E+00  0.00000000E+00  0.00000000E+00  0.00000000E+00 -8.85941968E-08
  6.81838832E-02  0.00000000E+00  0.00000000E+00  0.00000000E+00  0.00000000E+00
 -3.19243236E-01  0.00000000E+00  0.00000000E+00  0.00000000E+00 -2.70082556E-01
  0.00000000E+00  0.00000000E+00  0.00000000E+00  0.00000000E+00 -2.07537409E-08
  2.93216673E-02 -3.63649375E-01 -8.61455251E-01  3.63649375E-01  8.61455251E-01
 -3.73769083E-02  9.11755253E-01  1.27191179E-08  8.82502125E-01  0.00000000E+00
 -8.07046137E-01 -8.86424719E-08 -4.86231409E-01  0.00000000E+00  7.78818200E-02
 -1.20621784E-01  1.57197226E-01 -5.97126806E-09  0.00000000E+00  0.00000000E+00
  5.05539566E-02 -1.69476190E-01  2.45501264E-08  3.13677190E-01  0.00000000E+00
  1.54080290E-01  1.45646387E-08  4.27460475E-01  0.00000000E+00 -9.07275269E-02
  1.92621007E-01 -7.78888343E-02  2.77047129E-09  0.00000000E+00  0.00000000E+00
  1.29240184E-01  3.61967743E-02  1.29240184E-01  3.61967743E-02  0.00000000E+00
  0.00000000E+00  0.00000000E+00  0.00000000E+00  7.85642725E-01  0.00000000E+00
  0.00000000E+00  0.00000000E+00 -1.09113044E+00  0.00000000E+00  0.00000000E+00
  0.00000000E+00  0.00000000E+00 -1.14228361E-07  2.09196109E-01  0.00000000E+00
  0.00000000E+00  0.00000000E+00  0.00000000E+00 -1.39362354E-01  0.00000000E+00
  0.00000000E+00  0.00000000E+00  8.01362955E-02  0.00000000E+00  0.00000000E+00
  0.00000000E+00  0.00000000E+00 -3.38559077E-10 -1.39567978E-01 -7.18879171E-01
  1.25690785E+00  7.18879171E-01 -1.25690785E+00  6.88793981E-02 -2.70734484E-01
 -1.08275525E-07  3.04505973E-01  0.00000000E+00  1.07214742E+00  1.59872551E-07
 -2.55166504E-01  0.00000000E+00 -1.49044987E-01  2.61515904E-01 -3.07818275E-02
 -3.16217863E-08  0.00000000E+00  0.00000000E+00 -1.62891866E-02 -5.18510730E-01
  1.80096531E-08 -6.88777046E-01  0.00000000E+00  7.37399809E-01 -1.21856668E-08
  1.05533712E+00  0.00000000E+00 -1.94466976E-01 -3.27315687E-01 -1.93981255E-01
  2.03525987E-08  0.00000000E+00  0.00000000E+00  2.99188303E-01 -5.42165016E-01
  2.99188303E-01 -5.42165016E-01  5.74166105E-03 -1.30886184E+00 -2.15419286E-07
  4.68857034E-01  0.00000000E+00  2.78554540E+00  3.81772895E-07 -5.57075910E-01
  0.00000000E+00 -1.24248572E-01 -2.12055021E-01  6.46465926E-02 -5.31416596E-08
  0.00000000E+00  0.00000000E+00  1.55259433E-02  3.36876400E-01 -3.33211952E-08
  2.29426493E-01  0.00000000E+00 -8.97777446E-01  3.59140941E-08 -2.10010588E-01
  0.00000000E+00  1.44195969E-01  1.62655966E-01  1.23632438E-01  3.87474756E-08
  0.00000000E+00  0.00000000E+00  5.34970760E-01 -1.24006458E+00  5.34970760E-01
 -1.24006458E+00  8.61227118E-09  1.69095382E-07  8.13504131E-02 -4.46748581E-08
  0.00000000E+00 -4.43109905E-07 -4.47922948E-01  1.52948600E-07  0.00000000E+00
 -3.00338247E-08  1.89220043E-08  4.27273033E-08 -5.80550053E-02  0.00000000E+00
  0.00000000E+00 -8.56419606E-10  8.68414783E-09 -9.78229612E-01 -2.28126242E-08
  0.00000000E+00 -1.13674655E-09  1.22029369E+00  1.82002760E-08  0.00000000E+00
 -1.42067809E-08 -7.07931481E-10  1.03542168E-08  4.42850078E-02  0.00000000E+00
  0.00000000E+00  6.73365521E-09  1.92958705E-07  6.73365521E-09  1.92958705E-07
  0.00000000E+00  0.00000000E+00  0.00000000E+00  0.00000000E+00 -2.79345199E-01
  0.00000000E+00  0.00000000E+00  0.00000000E+00  1.52826315E+00  0.00000000E+00
  0.00000000E+00  0.00000000E+00  0.00000000E+00 -1.54919301E-07  1.69018207E-01
  0.00000000E+00  0.00000000E+00  0.00000000E+00  0.00000000E+00  8.73850966E-01
  0.00000000E+00  0.00000000E+00  0.00000000E+00 -1.48385904E+00  0.00000000E+00
  0.00000000E+00  0.00000000E+00  0.00000000E+00 -5.01345655E-08 -1.07813278E-01
 -1.02808765E-01 -6.58336882E-01  1.02808765E-01  6.58336882E-01 -2.99511216E-02
 -3.44514152E-02 -4.15718216E-10 -1.75340088E-01  0.00000000E+00 -2.69101768E+00
 -1.81850384E-08 -1.70612977E+00  0.00000000E+00 -9.98049070E-03 -2.39278742E-01
  2.41609637E-01 -5.07289854E-08  0.00000000E+00  0.00000000E+00 -1.03320938E-01
 -1.69147511E+00  1.18143615E-08  3.49448960E-01  0.00000000E+00  5.16144095E+00
  2.03167221E-08 -1.86022101E+00  0.00000000E+00 -4.25466590E-01 -5.81570321E-01
 -3.53288512E-01  3.43195815E-08  0.00000000E+00  0.00000000E+00  9.67484094E-02
 -4.73581196E-02  9.67484094E-02 -4.73581196E-02  0.00000000E+00  0.00000000E+00
  0.00000000E+00  0.00000000E+00 -2.27224255E-07  0.00000000E+00  0.00000000E+00
  0.00000000E+00  4.46847568E-07  0.00000000E+00  0.00000000E+00  0.00000000E+00
  0.00000000E+00  8.19777523E-01  4.30497212E-07  0.00000000E+00  0.00000000E+00
  0.00000000E+00  0.00000000E+00 -3.99771062E-08  0.00000000E+00  0.00000000E+00
  0.00000000E+00 -1.99606069E-07  0.00000000E+00  0.00000000E+00  0.00000000E+00
  0.00000000E+00  4.83479413E-01 -3.37540278E-07  5.72491051E-08 -2.92799708E-07
 -5.72491051E-08  2.92799708E-07 -9.68200224E-10 -8.47606694E-08 -2.19306360E-01
  1.89726131E-08  0.00000000E+00  1.80081620E-07  1.31377469E-01 -1.04534714E-07
  0.00000000E+00 -2.62128505E-07 -1.01386500E-08  2.79795397E-07  6.80470342E-01
  0.00000000E+00  0.00000000E+00 -2.27541430E-09 -2.02856541E-08 -1.67363706E-01
 -7.79763141E-09  0.00000000E+00  7.45642381E-08 -9.60820262E-02 -1.24361416E-08
  0.00000000E+00 -1.56252623E-07 -1.22409190E-08  1.46718574E-07 -5.29280766E-01
  0.00000000E+00  0.00000000E+00  1.90682092E-08 -1.14565795E-07  1.90682092E-08
 -1.14565795E-07 -2.82540570E-02 -1.66609933E-01  7.79163660E-08  1.50065170E-02
  0.00000000E+00  9.50420882E-01  1.64111191E-07 -3.62275376E-02  0.00000000E+00
 -4.89228731E-01  4.84942106E-02  3.93127658E-01 -2.08526095E-07  0.00000000E+00
  0.00000000E+00  8.92104548E-03  1.82828899E-01  8.86779204E-08 -1.26720149E-02
  0.00000000E+00 -5.74165177E-01 -8.87606740E-08  2.18539585E-01  0.00000000E+00
 -6.90366614E-01  7.23434568E-02  7.14797090E-01  1.99217604E-07  0.00000000E+00
  0.00000000E+00 -2.97298584E-01 -1.48935067E-01 -2.97298584E-01 -1.48935067E-01
  0.00000000E+00  0.00000000E+00  0.00000000E+00  0.00000000E+00  3.04459457E-01
  0.00000000E+00  0.00000000E+00  0.00000000E+00  8.06918723E-01  0.00000000E+00
  0.00000000E+00  0.00000000E+00  0.00000000E+00 -6.73086428E-07 -5.29839801E-01
  0.00000000E+00  0.00000000E+00  0.00000000E+00  0.00000000E+00  2.83869704E-01
  0.00000000E+00  0.00000000E+00  0.00000000E+00 -4.81028852E-01  0.00000000E+00
  0.00000000E+00  0.00000000E+00  0.00000000E+00  2.13114753E-06  6.96847845E-01
 -5.96250512E-01 -1.19791136E-01  5.96250512E-01  1.19791136E-01  0.00000000E+00
  0.00000000E+00  0.00000000E+00  0.00000000E+00 -6.68850822E-07  0.00000000E+00
  0.00000000E+00  0.00000000E+00 -2.00567507E-06  0.00000000E+00  0.00000000E+00
  0.00000000E+00  0.00000000E+00 -5.85058005E-01  9.81457383E-07  0.00000000E+00
  0.00000000E+00  0.00000000E+00  0.00000000E+00 -6.17463529E-07  0.00000000E+00
  0.00000000E+00  0.00000000E+00  1.19582291E-06  0.00000000E+00  0.00000000E+00
  0.00000000E+00  0.00000000E+00  8.83501960E-01 -1.57209337E-06  1.40617163E-06
  3.26091085E-07 -1.40617163E-06 -3.26091085E-07  6.35778525E-02  7.65253912E-02
 -7.35573607E-08  2.84742223E-02  0.00000000E+00 -8.02832130E-01 -1.89285084E-07
 -1.19471655E-02  0.00000000E+00  9.98696195E-01 -2.62913361E-01 -5.11568435E-01
  2.51812621E-08  0.00000000E+00  0.00000000E+00 -7.91172242E-04  1.05766203E-02
 -5.06616593E-08 -1.74102321E-01  0.00000000E+00  2.82121798E-01  1.30526439E-07
 -3.09409617E-02  0.00000000E+00 -4.05703660E-01 -9.32579007E-02  5.89290607E-01
 -1.74771547E-07  0.00000000E+00  0.00000000E+00  4.02669534E-01  4.28683510E-02
  4.02669534E-01  4.28683510E-02 -5.93244614E-02  9.26580239E-03 -6.61867568E-08
  1.25377318E-01  0.00000000E+00  1.14634093E-02 -1.15933275E-07  3.63982215E-01
  0.00000000E+00 -2.98685362E-01  9.40487140E-01 -8.92447469E-01 -5.78258987E-08
  0.00000000E+00  0.00000000E+00 -1.50725634E-03 -5.62060216E-01 -2.58307831E-08
  6.59549914E-01  0.00000000E+00  3.32832120E-01  1.05715209E-07 -3.87063683E-01
  0.00000000E+00 -3.50612604E-01  1.15706160E-02 -7.20909736E-02 -1.73291930E-07
  0.00000000E+00  0.00000000E+00  2.69994483E-01 -2.64935678E-02  2.69994483E-01
 -2.64935678E-02  8.62284593E-09 -5.64162442E-08  2.68154935E-01  6.01363189E-08
  0.00000000E+00  1.74011914E-09  2.67910795E-01  3.05160479E-08  0.00000000E+00
  9.59363419E-08  1.39160224E-07 -1.59962717E-07  9.55795195E-01  0.00000000E+00
  0.00000000E+00  4.00847418E-09 -8.27666744E-08  2.24383049E-03  7.64727264E-08
  0.00000000E+00  3.26885462E-08 -4.63239152E-01 -3.12275772E-08  0.00000000E+00
 -4.31390352E-08 -2.52730020E-08  5.52088759E-08  1.03457118E+00  0.00000000E+00
  0.00000000E+00  1.55256229E-07 -7.85202629E-08  1.55256229E-07 -7.85202629E-08
  0.00000000E+00  0.00000000E+00  0.00000000E+00  0.00000000E+00  1.10516428E-01
  0.00000000E+00  0.00000000E+00  0.00000000E+00  2.67270598E-01  0.00000000E+00
  0.00000000E+00  0.00000000E+00  0.00000000E+00 -1.94174003E-07  1.11809166E+00
  0.00000000E+00  0.00000000E+00  0.00000000E+00  0.00000000E+00 -4.54367124E-02
  0.00000000E+00  0.00000000E+00  0.00000000E+00 -3.86956853E-01  0.00000000E+00
  0.00000000E+00  0.00000000E+00  0.00000000E+00  7.18013520E-08  9.38679299E-01
  3.75546759E-01 -2.88263041E-01 -3.75546759E-01  2.88263041E-01 -4.22550987E-02
 -1.24220076E+00 -2.82633924E-09 -1.33655732E+00  0.00000000E+00 -1.37674360E+00
 -9.97484076E-09 -7.63848530E-01  0.00000000E+00  3.67508188E-01 -7.71684061E-01
  2.82236980E-01  2.48285386E-08  0.00000000E+00  0.00000000E+00 -5.65074305E-02
 -6.63327706E-01 -4.00615668E-09 -3.00793257E-01  0.00000000E+00  2.84633308E+00
  1.43623925E-09 -1.72579929E+00  0.00000000E+00 -7.23620115E-01  1.47429042E+00
 -7.02468730E-01  1.05046134E-08  0.00000000E+00  0.00000000E+00  5.75250944E-02
 -1.30659746E-02  5.75250944E-02 -1.30659746E-02  9.41985674E-03 -1.90573065E-01
 -3.96190878E-09  7.94218547E-02  0.00000000E+00 -1.73386815E+00 -2.17967280E-08
 -9.64576847E-01  0.00000000E+00  1.60139253E-01  1.94003394E-01  7.15502370E-02
  2.28421525E-08  0.00000000E+00  0.00000000E+00 -5.06226969E-01 -5.90134266E-03
 -4.33699881E-09  2.55393554E-01  0.00000000E+00  4.99001625E+00  6.87648726E-09
 -9.88308065E-01  0.00000000E+00 -1.73545911E+00 -1.53672624E+00 -1.72573428E+00
  6.20780323E-09  0.00000000E+00  0.00000000E+00  7.67208372E-02 -1.80696518E-03
  7.67208372E-02 -1.80696518E-03 -4.70081474E-01  2.95869056E+00 -3.57862869E-08
 -2.91080967E-01  0.00000000E+00  1.09281471E+00  1.44575768E-07 -4.21222077E-01
  0.00000000E+00 -1.71422821E+00 -2.15165595E+00 -1.78637688E+00  4.39348851E-08
  0.00000000E+00  0.00000000E+00 -3.56427296E-02  3.87590977E-02  4.11739177E-09
 -2.54730109E-01  0.00000000E+00  6.21217601E-01 -4.40001023E-08 -4.48191994E-01
  0.00000000E+00 -1.87383203E-01  2.61039778E-01 -1.44353446E-01  2.65405065E-08
  0.00000000E+00  0.00000000E+00  1.89439394E-01 -4.47892384E-01  1.89439394E-01
 -4.47892384E-01
Total SCF Density                          R   N=         595
  2.06047235E+00 -1.05710251E-01  3.26789408E-01 -4.79189872E-09  6.47301534E-09
  2.09186482E-01  7.44165058E-03 -3.93664099E-03 -3.21231478E-08  4.09941362E-01