
    -----------------------------------------------------------------------
          Psi4: An Open-Source Ab Initio Electronic Structure Package
                               Psi4 1.3.2 release

                         Git: Rev {HEAD} ecbda83 


    R. M. Parrish, L. A. Burns, D. G. A. Smith, A. C. Simmonett,
    A. E. DePrince III, E. G. Hohenstein, U. Bozkaya, A. Yu. Sokolov,
    R. Di Remigio, R. M. Richard, J. F. Gonthier, A. M. James,
    H. R. McAlexander, A. Kumar, M. Saitow, X. Wang, B. P. Pritchard,
    P. Verma, H. F. Schaefer III, K. Patkowski, R. A. King, E. F. Valeev,
    F. A. Evangelista, J. M. Turney, T. D. Crawford, and C. D. Sherrill,
    J. Chem. Theory Comput. 13(7) pp 3185--3197 (2017).
    (doi: 10.1021/acs.jctc.7b00174)


                         Additional Contributions by
    P. Kraus, H. Kruse, M. H. Lechner, M. C. Schieber, R. A. Shaw,
    A. Alenaizan, R. Galvelis, Z. L. Glick, S. Lehtola, and J. P. Misiewicz

    -----------------------------------------------------------------------


    Psi4 started on: Sunday, 08 November 2020 08:44PM

    Process ID: 108731
    Host:       node59.bme.utexas.edu
    PSIDATADIR: /home/xy3866/psi4conda/share/psi4
    Memory:     500.0 MiB
    Threads:    8
    
  ==> Input File <==

--------------------------------------------------------------------------
#psi4
#
memory 32 gb

molecule  {
0 1
  N       -1.1265450    -1.2362860     0.0000060
  C        0.2308680    -1.4868800    -0.0000290
  C        1.1512880    -0.4934230    -0.0000150
  C        0.6802440     0.8910390    -0.0001390
  N       -0.7159090     1.0273040    -0.0000130
  C       -1.6820960     0.0327770     0.0001490
  C        2.6300190    -0.7237960     0.0000320
  O        1.4079770     1.8828460     0.0000440
  O       -2.8884597     0.2443812     0.1999660
  H       -1.7971660    -1.9955960    -0.0000480
  H       -1.0703780     1.9806020    -0.0000270
  H        0.5071850    -2.5374850    -0.0000570
  H        3.0900470    -0.2640690    -0.8790850
  H        3.0900220    -0.2639380     0.8790930
  H        2.8593700    -1.7927480     0.0001130
units angstrom
no_reorient  #important for SAPT in psi4, default
symmetry c1  #important for SAPT in psi4, default
}

set PROPERTIES_ORIGIN ["COM"]
properties('MP2/aug-cc-pvtz', properties = ['dipole'])
--------------------------------------------------------------------------

  Memory set to  29.802 GiB by Python driver.
    SCF Algorithm Type (re)set to DF.

*** tstart() called on node59.bme.utexas.edu
*** at Sun Nov  8 20:44:10 2020

   => Loading Basis Set <=

    Name: AUG-CC-PVTZ
    Role: ORBITAL
    Keyword: BASIS
    atoms 1, 5     entry N          line   281 file /home/xy3866/psi4conda/share/psi4/basis/aug-cc-pvtz.gbs 
    atoms 2-4, 6-7 entry C          line   235 file /home/xy3866/psi4conda/share/psi4/basis/aug-cc-pvtz.gbs 
    atoms 8-9      entry O          line   327 file /home/xy3866/psi4conda/share/psi4/basis/aug-cc-pvtz.gbs 
    atoms 10-15    entry H          line    36 file /home/xy3866/psi4conda/share/psi4/basis/aug-cc-pvtz.gbs 


         ---------------------------------------------------------
                                   SCF
               by Justin Turney, Rob Parrish, Andy Simmonett
                          and Daniel G. A. Smith
                              RHF Reference
                        8 Threads,  30517 MiB Core
         ---------------------------------------------------------

  ==> Geometry <==

    Molecular point group: c1
    Full point group: C1

    Geometry (in Angstrom), charge = 0, multiplicity = 1:

       Center              X                  Y                   Z               Mass       
    ------------   -----------------  -----------------  -----------------  -----------------
         N           -1.073983589279    -1.274556007795    -0.025374319471    14.003074004430
         C            0.283429410721    -1.525150007795    -0.025409319471    12.000000000000
         C            1.203849410721    -0.531693007795    -0.025395319471    12.000000000000
         C            0.732805410721     0.852768992205    -0.025519319471    12.000000000000
         N           -0.663347589279     0.989033992205    -0.025393319471    14.003074004430
         C           -1.629534589279    -0.005493007795    -0.025231319471    12.000000000000
         C            2.682580410721    -0.762066007795    -0.025348319471    12.000000000000
         O            1.460538410721     1.844575992205    -0.025336319471    15.994914619570
         O           -2.835898289279     0.206111192205     0.174585680529    15.994914619570
         H           -1.744604589279    -2.033866007795    -0.025428319471     1.007825032230
         H           -1.017816589279     1.942331992205    -0.025407319471     1.007825032230
         H            0.559746410721    -2.575755007795    -0.025437319471     1.007825032230
         H            3.142608410721    -0.302339007795    -0.904465319471     1.007825032230
         H            3.142583410721    -0.302208007795     0.853712680529     1.007825032230
         H            2.911931410721    -1.831018007795    -0.025267319471     1.007825032230

  Running in c1 symmetry.

  Rotational constants: A =      0.10640  B =      0.04640  C =      0.03255 [cm^-1]
  Rotational constants: A =   3189.86072  B =   1391.07145  C =    975.69146 [MHz]
  Nuclear repulsion =  437.774528186665918

  Charge       = 0
  Multiplicity = 1
  Electrons    = 66
  Nalpha       = 33
  Nbeta        = 33

  ==> Algorithm <==

  SCF Algorithm Type is DF.
  DIIS enabled.
  MOM disabled.
  Fractional occupation disabled.
  Guess Type is SAD.
  Energy threshold   = 1.00e-10
  Density threshold  = 1.00e-10
  Integral threshold = 0.00e+00

  ==> Primary Basis <==

  Basis Set: AUG-CC-PVTZ
    Blend: AUG-CC-PVTZ
    Number of shells: 180
    Number of basis function: 552
    Number of Cartesian functions: 645
    Spherical Harmonics?: true
    Max angular momentum: 3

   => Loading Basis Set <=

    Name: (AUG-CC-PVTZ AUX)
    Role: JKFIT
    Keyword: DF_BASIS_SCF
    atoms 1, 5     entry N          line   224 file /home/xy3866/psi4conda/share/psi4/basis/aug-cc-pvtz-jkfit.gbs 
    atoms 2-4, 6-7 entry C          line   162 file /home/xy3866/psi4conda/share/psi4/basis/aug-cc-pvtz-jkfit.gbs 
    atoms 8-9      entry O          line   286 file /home/xy3866/psi4conda/share/psi4/basis/aug-cc-pvtz-jkfit.gbs 
    atoms 10-15    entry H          line    70 file /home/xy3866/psi4conda/share/psi4/basis/aug-cc-pvtz-jkfit.gbs 

  ==> Pre-Iterations <==

   -------------------------------------------------------
    Irrep   Nso     Nmo     Nalpha   Nbeta   Ndocc  Nsocc
   -------------------------------------------------------
     A        552     552       0       0       0       0
   -------------------------------------------------------
    Total     552     552      33      33      33       0
   -------------------------------------------------------

  ==> Integral Setup <==

  DFHelper Memory: AOs need 2.727 GiB; user supplied 22.352 GiB. Using in-core AOs.

  ==> MemDFJK: Density-Fitted J/K Matrices <==

    J tasked:                   Yes
    K tasked:                   Yes
    wK tasked:                   No
    OpenMP threads:               8
    Memory [MiB]:             22888
    Algorithm:                 Disk
    Schwarz Cutoff:           1E-12
    Mask sparsity (%):       4.1752
    Fitting Condition:        1E-10

   => Auxiliary Basis Set <=

  Basis Set: (AUG-CC-PVTZ AUX)
    Blend: AUG-CC-PVTZ-JKFIT
    Number of shells: 354
    Number of basis function: 1212
    Number of Cartesian functions: 1509
    Spherical Harmonics?: true
    Max angular momentum: 4

  Minimum eigenvalue in the overlap matrix is 2.0926024469E-06.
  Using Symmetric Orthogonalization.

  SCF Guess: Superposition of Atomic Densities via on-the-fly atomic UHF.

  ==> Iterations <==

                           Total Energy        Delta E     RMS |[F,P]|

   @DF-RHF iter SAD:  -450.90260625298100   -4.50903e+02   0.00000e+00 
   @DF-RHF iter   1:  -451.37019009331249   -4.67584e-01   1.44028e-03 DIIS
   @DF-RHF iter   2:  -451.56694556690883   -1.96755e-01   9.51864e-04 DIIS
   @DF-RHF iter   3:  -451.66054115086456   -9.35956e-02   1.83047e-04 DIIS
   @DF-RHF iter   4:  -451.66600098239985   -5.45983e-03   7.33644e-05 DIIS
   @DF-RHF iter   5:  -451.66710239497581   -1.10141e-03   1.47484e-05 DIIS
   @DF-RHF iter   6:  -451.66721567382734   -1.13279e-04   7.49136e-06 DIIS
   @DF-RHF iter   7:  -451.66723957786041   -2.39040e-05   3.18126e-06 DIIS
   @DF-RHF iter   8:  -451.66724379735763   -4.21950e-06   1.23623e-06 DIIS
   @DF-RHF iter   9:  -451.66724426830592   -4.70948e-07   4.22472e-07 DIIS
   @DF-RHF iter  10:  -451.66724434803433   -7.97284e-08   1.65346e-07 DIIS
   @DF-RHF iter  11:  -451.66724435729731   -9.26298e-09   6.37273e-08 DIIS
   @DF-RHF iter  12:  -451.66724435873164   -1.43433e-09   1.94311e-08 DIIS
   @DF-RHF iter  13:  -451.66724435886147   -1.29830e-10   6.35131e-09 DIIS
   @DF-RHF iter  14:  -451.66724435887687   -1.54046e-11   3.00523e-09 DIIS
   @DF-RHF iter  15:  -451.66724435888079   -3.92220e-12   8.86287e-10 DIIS
   @DF-RHF iter  16:  -451.66724435888108   -2.84217e-13   3.40740e-10 DIIS
   @DF-RHF iter  17:  -451.66724435888187   -7.95808e-13   1.33866e-10 DIIS
   @DF-RHF iter  18:  -451.66724435888267   -7.95808e-13   4.52454e-11 DIIS
  Energy and wave function converged.


  ==> Post-Iterations <==

    Orbital Energies [Eh]
    ---------------------

    Doubly Occupied:                                                      

       1A    -20.543982     2A    -20.543968     3A    -15.642220  
       4A    -15.630158     5A    -11.420926     6A    -11.382007  
       7A    -11.332874     8A    -11.263850     9A    -11.240138  
      10A     -1.421940    11A     -1.390464    12A     -1.302840  
      13A     -1.240918    14A     -1.108876    15A     -0.970991  
      16A     -0.915993    17A     -0.894535    18A     -0.771764  
      19A     -0.765443    20A     -0.708097    21A     -0.674206  
      22A     -0.664320    23A     -0.635946    24A     -0.616546  
      25A     -0.591104    26A     -0.569130    27A     -0.558581  
      28A     -0.552428    29A     -0.509327    30A     -0.477494  
      31A     -0.448869    32A     -0.433878    33A     -0.354986  

    Virtual:                                                              

      34A      0.016012    35A      0.030620    36A      0.039049  
      37A      0.043527    38A      0.049802    39A      0.059946  
      40A      0.068544    41A      0.075961    42A      0.079901  
      43A      0.092905    44A      0.095383    45A      0.101213  
      46A      0.106353    47A      0.111296    48A      0.121481  
      49A      0.121845    50A      0.129924    51A      0.134208  
      52A      0.137363    53A      0.139019    54A      0.143769  
      55A      0.144456    56A      0.155477    57A      0.156439  
      58A      0.170049    59A      0.174031    60A      0.185367  
      61A      0.186809    62A      0.204219    63A      0.207127  
      64A      0.222849    65A      0.228616    66A      0.231036  
      67A      0.234709    68A      0.244534    69A      0.248976  
      70A      0.250765    71A      0.265259    72A      0.267939  
      73A      0.270064    74A      0.273471    75A      0.281947  
      76A      0.284885    77A      0.293919    78A      0.296347  
      79A      0.311037    80A      0.312203    81A      0.324069  
      82A      0.334389    83A      0.336622    84A      0.337978  
      85A      0.346191    86A      0.355062    87A      0.361289  
      88A      0.370286    89A      0.370861    90A      0.379453  
      91A      0.381499    92A      0.388092    93A      0.392126  
      94A      0.395764    95A      0.398298    96A      0.406417  
      97A      0.415000    98A      0.419723    99A      0.422966  
     100A      0.431230   101A      0.434797   102A      0.442167  
     103A      0.443573   104A      0.451764   105A      0.460698  
     106A      0.464889   107A      0.466695   108A      0.471551  
     109A      0.482014   110A      0.488702   111A      0.495403  
     112A      0.507528   113A      0.519162   114A      0.522542  
     115A      0.525345   116A      0.531334   117A      0.536664  
     118A      0.542975   119A      0.548341   120A      0.556658  
     121A      0.561052   122A      0.572119   123A      0.583375  
     124A      0.593725   125A      0.600857   126A      0.604115  
     127A      0.626872   128A      0.631510   129A      0.634489  
     130A      0.637251   131A      0.648176   132A      0.658910  
     133A      0.662936   134A      0.685989   135A      0.686897  
     136A      0.700378   137A      0.714427   138A      0.716246  
     139A      0.719167   140A      0.739604   141A      0.748705  
     142A      0.758879   143A      0.767757   144A      0.772404  
     145A      0.776643   146A      0.778936   147A      0.798923  
     148A      0.813360   149A      0.814206   150A      0.823603  
     151A      0.832687   152A      0.841105   153A      0.849064  
     154A      0.857729   155A      0.869146   156A      0.874872  
     157A      0.881642   158A      0.888085   159A      0.889716  
     160A      0.903626   161A      0.910945   162A      0.914037  
     163A      0.916242   164A      0.927911   165A      0.928351  
     166A      0.934333   167A      0.941752   168A      0.943954  
     169A      0.953375   170A      0.964184   171A      0.965957  
     172A      0.976159   173A      0.982007   174A      0.988449  
     175A      0.992081   176A      1.003952   177A      1.013157  
     178A      1.022215   179A      1.030753   180A      1.037937  
     181A      1.043110   182A      1.050335   183A      1.057366  
     184A      1.066255   185A      1.070708   186A      1.091101  
     187A      1.099417   188A      1.108021   189A      1.127075  
     190A      1.131223   191A      1.136035   192A      1.137842  
     193A      1.141127   194A      1.149735   195A      1.161847  
     196A      1.162576   197A      1.169669   198A      1.183283  
     199A      1.192643   200A      1.202033   201A      1.207150  
     202A      1.210946   203A      1.227940   204A      1.233895  
     205A      1.238258   206A      1.246054   207A      1.257543  
     208A      1.268589   209A      1.273628   210A      1.278553  
     211A      1.289439   212A      1.305308   213A      1.325192  
     214A      1.331370   215A      1.337129   216A      1.346448  
     217A      1.352034   218A      1.368973   219A      1.381512  
     220A      1.384980   221A      1.391293   222A      1.406029  
     223A      1.409535   224A      1.415910   225A      1.428792  
     226A      1.430197   227A      1.432587   228A      1.449988  
     229A      1.461469   230A      1.478903   231A      1.484116  
     232A      1.507729   233A      1.521720   234A      1.525321  
     235A      1.532234   236A      1.533914   237A      1.546454  
     238A      1.575292   239A      1.581620   240A      1.589972  
     241A      1.592403   242A      1.605459   243A      1.613003  
     244A      1.622862   245A      1.630985   246A      1.639905  
     247A      1.645988   248A      1.649170   249A      1.658952  
     250A      1.670782   251A      1.690811   252A      1.693920  
     253A      1.707093   254A      1.710290   255A      1.721720  
     256A      1.736795   257A      1.742274   258A      1.767738  
     259A      1.786547   260A      1.802696   261A      1.806697  
     262A      1.819188   263A      1.833210   264A      1.844696  
     265A      1.854484   266A      1.869293   267A      1.901210  
     268A      1.905408   269A      1.908334   270A      1.917578  
     271A      1.934996   272A      1.968456   273A      1.985235  
     274A      1.992759   275A      2.027351   276A      2.039275  
     277A      2.044410   278A      2.061191   279A      2.075176  
     280A      2.111381   281A      2.116223   282A      2.124646  
     283A      2.134835   284A      2.160861   285A      2.170877  
     286A      2.183197   287A      2.189993   288A      2.198143  
     289A      2.205221   290A      2.217951   291A      2.222917  
     292A      2.246034   293A      2.253965   294A      2.260991  
     295A      2.270407   296A      2.273122   297A      2.299311  
     298A      2.306153   299A      2.317299   300A      2.321968  
     301A      2.349385   302A      2.385365   303A      2.395721  
     304A      2.404728   305A      2.421594   306A      2.432610  
     307A      2.442718   308A      2.478130   309A      2.493155  
     310A      2.496828   311A      2.517697   312A      2.537796  
     313A      2.542258   314A      2.551221   315A      2.565323  
     316A      2.570438   317A      2.575630   318A      2.599392  
     319A      2.602415   320A      2.617315   321A      2.632607  
     322A      2.655543   323A      2.672928   324A      2.696293  
     325A      2.706125   326A      2.708687   327A      2.717716  
     328A      2.741926   329A      2.750636   330A      2.771890  
     331A      2.794002   332A      2.811787   333A      2.841818  
     334A      2.865256   335A      2.903140   336A      2.909333  
     337A      2.936134   338A      2.958265   339A      2.976745  
     340A      2.985764   341A      3.021539   342A      3.047416  
     343A      3.053049   344A      3.072246   345A      3.151638  
     346A      3.166097   347A      3.193944   348A      3.201550  
     349A      3.242796   350A      3.272564   351A      3.278862  
     352A      3.294057   353A      3.307977   354A      3.356508  
     355A      3.365823   356A      3.384745   357A      3.402004  
     358A      3.405661   359A      3.413931   360A      3.425823  
     361A      3.433364   362A      3.473380   363A      3.507970  
     364A      3.542400   365A      3.556222   366A      3.564575  
     367A      3.596137   368A      3.617154   369A      3.623274  
     370A      3.640544   371A      3.649296   372A      3.652201  
     373A      3.670138   374A      3.683116   375A      3.694677  
     376A      3.718640   377A      3.739752   378A      3.746516  
     379A      3.770813   380A      3.773098   381A      3.787220  
     382A      3.795073   383A      3.814116   384A      3.844974  
     385A      3.851362   386A      3.861547   387A      3.867520  
     388A      3.908656   389A      3.923179   390A      3.932470  
     391A      3.959676   392A      3.962032   393A      3.977889  
     394A      3.996278   395A      3.999871   396A      4.024239  
     397A      4.047494   398A      4.084670   399A      4.093638  
     400A      4.103108   401A      4.121546   402A      4.125300  
     403A      4.149291   404A      4.158388   405A      4.191253  
     406A      4.196801   407A      4.205845   408A      4.208300  
     409A      4.233362   410A      4.250729   411A      4.260059  
     412A      4.283127   413A      4.293664   414A      4.304877  
     415A      4.311081   416A      4.334200   417A      4.357740  
     418A      4.377111   419A      4.384751   420A      4.405796  
     421A      4.422645   422A      4.436629   423A      4.439639  
     424A      4.448216   425A      4.475079   426A      4.488368  
     427A      4.502222   428A      4.542703   429A      4.563976  
     430A      4.605004   431A      4.622133   432A      4.639746  
     433A      4.657298   434A      4.671351   435A      4.688591  
     436A      4.704501   437A      4.736059   438A      4.738762  
     439A      4.746702   440A      4.759091   441A      4.771599  
     442A      4.777318   443A      4.795763   444A      4.833984  
     445A      4.888161   446A      4.904184   447A      4.910390  
     448A      4.914256   449A      4.931338   450A      4.967838  
     451A      4.994521   452A      5.020064   453A      5.028292  
     454A      5.055940   455A      5.081215   456A      5.083936  
     457A      5.103027   458A      5.144987   459A      5.161421  
     460A      5.179893   461A      5.188183   462A      5.204532  
     463A      5.282141   464A      5.298103   465A      5.325849  
     466A      5.331265   467A      5.372330   468A      5.424617  
     469A      5.442690   470A      5.459875   471A      5.474912  
     472A      5.484902   473A      5.514496   474A      5.522586  
     475A      5.533104   476A      5.539486   477A      5.584627  
     478A      5.602793   479A      5.618853   480A      5.625239  
     481A      5.666025   482A      5.698678   483A      5.722275  
     484A      5.762335   485A      5.798391   486A      5.837856  
     487A      5.842744   488A      5.889891   489A      5.906356  
     490A      5.921121   491A      5.929772   492A      5.989924  
     493A      6.020843   494A      6.072045   495A      6.091546  
     496A      6.107165   497A      6.123048   498A      6.136310  
     499A      6.161593   500A      6.177149   501A      6.211979  
     502A      6.267059   503A      6.298481   504A      6.374011  
     505A      6.488360   506A      6.561552   507A      6.616341  
     508A      6.664864   509A      6.705949   510A      6.714771  
     511A      6.722080   512A      6.749546   513A      6.767548  
     514A      6.783723   515A      6.793714   516A      6.808996  
     517A      6.852557   518A      6.877890   519A      6.902534  
     520A      6.969409   521A      6.988368   522A      7.027838  
     523A      7.079026   524A      7.154604   525A      7.191363  
     526A      7.231403   527A      7.305758   528A      7.368635  
     529A      7.370523   530A      7.403696   531A      7.424927  
     532A      7.478881   533A      7.615453   534A      7.670640  
     535A      7.704376   536A      7.709715   537A      7.800525  
     538A      7.834566   539A      7.900866   540A      7.953290  
     541A      7.983639   542A      8.004916   543A      8.044770  
     544A     15.555494   545A     16.024850   546A     16.167486  
     547A     16.554245   548A     17.920955   549A     18.993544  
     550A     19.837821   551A     20.065472   552A     20.451687  

    Final Occupation by Irrep:
              A 
    DOCC [    33 ]

  @DF-RHF Final Energy:  -451.66724435888267

   => Energetics <=

    Nuclear Repulsion Energy =            437.7745281866659184
    One-Electron Energy =               -1483.7259537632905904
    Two-Electron Energy =                 594.2841812177418888
    Total Energy =                       -451.6672443588827264

Computation Completed

*** tstop() called on node59.bme.utexas.edu at Sun Nov  8 20:44:53 2020
Module time:
	user time   =     196.09 seconds =       3.27 minutes
	system time =      26.47 seconds =       0.44 minutes
	total time  =         43 seconds =       0.72 minutes
Total time:
	user time   =     196.09 seconds =       3.27 minutes
	system time =      26.47 seconds =       0.44 minutes
	total time  =         43 seconds =       0.72 minutes
   => Loading Basis Set <=

    Name: (AUG-CC-PVTZ AUX)
    Role: RIFIT
    Keyword: DF_BASIS_MP2
    atoms 1, 5     entry N          line   206 file /home/xy3866/psi4conda/share/psi4/basis/aug-cc-pvtz-ri.gbs 
    atoms 2-4, 6-7 entry C          line   148 file /home/xy3866/psi4conda/share/psi4/basis/aug-cc-pvtz-ri.gbs 
    atoms 8-9      entry O          line   264 file /home/xy3866/psi4conda/share/psi4/basis/aug-cc-pvtz-ri.gbs 
    atoms 10-15    entry H          line    30 file /home/xy3866/psi4conda/share/psi4/basis/aug-cc-pvtz-ri.gbs 


*** tstart() called on node59.bme.utexas.edu
*** at Sun Nov  8 20:44:53 2020


  //>>>>>>>>>>>>>>>>>>>>>>>>>>>>>>>>>>>//
  //               DFMP2               //
  //<<<<<<<<<<<<<<<<<<<<<<<<<<<<<<<<<<<//

	 --------------------------------------------------------
	                          DF-MP2                         
	      2nd-Order Density-Fitted Moller-Plesset Theory     
	              RMP2 Wavefunction,   8 Threads             
	                                                         
	        Rob Parrish, Justin Turney, Andy Simmonett,      
	           Ed Hohenstein, and C. David Sherrill          
	 --------------------------------------------------------

   => Auxiliary Basis Set <=

  Basis Set: (AUG-CC-PVTZ AUX)
    Blend: AUG-CC-PVTZ-RI
    Number of shells: 336
    Number of basis function: 1230
    Number of Cartesian functions: 1554
    Spherical Harmonics?: true
    Max angular momentum: 4

	 --------------------------------------------------------
	                 NBF =   552, NAUX =  1230
	 --------------------------------------------------------
	   CLASS    FOCC     OCC    AOCC    AVIR     VIR    FVIR
	   PAIRS       0      33      33     519     519       0
	 --------------------------------------------------------

  DFHelper Memory: AOs need 2.727 GiB; user supplied 22.352 GiB. Using in-core AOs.


         ------------------------------------------------------------
                                     CPHF                           
                                  Rob Parrish                       
         ------------------------------------------------------------

  ==> Geometry <==

    Molecular point group: c1
    Full point group: C1

    Geometry (in Angstrom), charge = 0, multiplicity = 1:

       Center              X                  Y                   Z               Mass       
    ------------   -----------------  -----------------  -----------------  -----------------
         N           -1.073983589279    -1.274556007795    -0.025374319471    14.003074004430
         C            0.283429410721    -1.525150007795    -0.025409319471    12.000000000000
         C            1.203849410721    -0.531693007795    -0.025395319471    12.000000000000
         C            0.732805410721     0.852768992205    -0.025519319471    12.000000000000
         N           -0.663347589279     0.989033992205    -0.025393319471    14.003074004430
         C           -1.629534589279    -0.005493007795    -0.025231319471    12.000000000000
         C            2.682580410721    -0.762066007795    -0.025348319471    12.000000000000
         O            1.460538410721     1.844575992205    -0.025336319471    15.994914619570
         O           -2.835898289279     0.206111192205     0.174585680529    15.994914619570
         H           -1.744604589279    -2.033866007795    -0.025428319471     1.007825032230
         H           -1.017816589279     1.942331992205    -0.025407319471     1.007825032230
         H            0.559746410721    -2.575755007795    -0.025437319471     1.007825032230
         H            3.142608410721    -0.302339007795    -0.904465319471     1.007825032230
         H            3.142583410721    -0.302208007795     0.853712680529     1.007825032230
         H            2.911931410721    -1.831018007795    -0.025267319471     1.007825032230

  Nuclear repulsion =  437.774528186665918
  Reference energy  = -451.667244358882670

  ==> Basis Set <==

  Basis Set: AUG-CC-PVTZ
    Blend: AUG-CC-PVTZ
    Number of shells: 180
    Number of basis function: 552
    Number of Cartesian functions: 645
    Spherical Harmonics?: true
    Max angular momentum: 3

  ==> CGRSolver (by Rob Parrish) <==

   Number of roots    =         1
   Preconditioning    =    JACOBI
   Convergence cutoff =     1E-06
   Maximum iterations =       100

  ==> CPHFRHamiltonian (by Rob Parrish) <== 

  ==> MemDFJK: Density-Fitted J/K Matrices <==

    J tasked:                   Yes
    K tasked:                   Yes
    wK tasked:                   No
    OpenMP threads:               8
    Memory [MiB]:             22888
    Algorithm:                 Disk
    Schwarz Cutoff:           1E-12
    Mask sparsity (%):       4.1752
    Fitting Condition:        1E-10

   => Auxiliary Basis Set <=

  Basis Set: (AUG-CC-PVTZ AUX)
    Blend: AUG-CC-PVTZ-JKFIT
    Number of shells: 354
    Number of basis function: 1212
    Number of Cartesian functions: 1509
    Spherical Harmonics?: true
    Max angular momentum: 4

  ==> CPHF Iterations <==

  => Iterations <=

             Iter  Converged  Remaining    Residual
  CGR           1          0          1   1.405E-01
  CGR           2          0          1   4.374E-02
  CGR           3          0          1   1.653E-02
  CGR           4          0          1   4.031E-03
  CGR           5          0          1   1.352E-03
  CGR           6          0          1   5.349E-04
  CGR           7          0          1   1.878E-04
  CGR           8          0          1   7.963E-05
  CGR           9          0          1   2.794E-05
  CGR          10          0          1   9.514E-06
  CGR          11          0          1   3.577E-06
  CGR          12          0          1   1.166E-06
  CGR          13          1          0   5.693E-07

    CGRSolver converged.

	-----------------------------------------------------------
	 ==================> DF-MP2 Energies <==================== 
	-----------------------------------------------------------
	 Reference Energy          =    -451.6672443588826695 [Eh]
	 Singles Energy            =      -0.0000000000000000 [Eh]
	 Same-Spin Energy          =      -0.4594954713727698 [Eh]
	 Opposite-Spin Energy      =      -1.3859193111465642 [Eh]
	 Correlation Energy        =      -1.8454147825193341 [Eh]
	 Total Energy              =    -453.5126591414020254 [Eh]
	-----------------------------------------------------------
	 ================> DF-SCS-MP2 Energies <================== 
	-----------------------------------------------------------
	 SCS Same-Spin Scale       =       0.3333333333333333 [-]
	 SCS Opposite-Spin Scale   =       1.2000000000000000 [-]
	 SCS Same-Spin Energy      =      -0.1531651571242566 [Eh]
	 SCS Opposite-Spin Energy  =      -1.6631031733758770 [Eh]
	 SCS Correlation Energy    =      -1.8162683305001335 [Eh]
	 SCS Total Energy          =    -453.4835126893827919 [Eh]
	-----------------------------------------------------------



Properties will be evaluated at   0.000000,  -0.000000,  -0.000000 [a0]

Properties computed using the MP2 density matrix

  Nuclear Dipole Moment: [e a0]
     X:     6.5555      Y:    -4.7731      Z:    -0.1419

  Electronic Dipole Moment: [e a0]
     X:    -6.1138      Y:     3.1196      Z:    -0.0031

  Dipole Moment: [e a0]
     X:     0.4418      Y:    -1.6535      Z:    -0.1450     Total:     1.7177

  Dipole Moment: [D]
     X:     1.1228      Y:    -4.2029      Z:    -0.3686     Total:     4.3659


*** tstop() called on node59.bme.utexas.edu at Sun Nov  8 20:46:24 2020
Module time:
	user time   =     544.80 seconds =       9.08 minutes
	system time =      27.73 seconds =       0.46 minutes
	total time  =         91 seconds =       1.52 minutes
Total time:
	user time   =     742.17 seconds =      12.37 minutes
	system time =      54.27 seconds =       0.90 minutes
	total time  =        134 seconds =       2.23 minutes

    Psi4 stopped on: Sunday, 08 November 2020 08:46PM
    Psi4 wall time for execution: 0:02:14.77

*** Psi4 exiting successfully. Buy a developer a beer!
