opt=Tight                                                               
Freq      RMP2-FC                                                     6-31G(d)            
Number of atoms                            I               12
Info1-9                                    I   N=           9
          21          21        1002           0           0         100
           6           2           1
Charge                                     I               -1
Multiplicity                               I                1
Number of electrons                        I               48
Number of alpha electrons                  I               24
Number of beta electrons                   I               24
Number of basis functions                  I              102
Number of independent functions            I              102
Number of point charges in /Mol/           I                0
Number of translation vectors              I                0
Atomic numbers                             I   N=          12
           8           8           7           6           6           6
           1           1           1           1           1           1
Nuclear charges                            R   N=          12
  8.00000000E+00  8.00000000E+00  7.00000000E+00  6.00000000E+00  6.00000000E+00
  6.00000000E+00  1.00000000E+00  1.00000000E+00  1.00000000E+00  1.00000000E+00
  1.00000000E+00  1.00000000E+00
Current cartesian coordinates              R   N=          36
 -3.19999613E+00  1.51748669E+00 -8.69787121E-01 -2.11172692E+00 -2.03126573E+00
  1.30483788E+00  2.71442767E+00 -2.00728895E+00 -6.29657632E-01  1.15778118E+00
  2.98675305E-01 -7.89583376E-01  2.24984702E+00  2.30559505E+00  9.73290128E-01
 -1.65126536E+00 -1.30209835E-01 -8.54087412E-02  1.23367379E+00  1.00715464E+00
 -2.73518337E+00  4.21516467E+00  2.72783442E+00  4.89282131E-01  1.13563877E+00
  4.04223049E+00  8.68642690E-01  2.19769475E+00  1.61653481E+00  2.92569169E+00
  2.19805973E+00 -3.13801925E+00 -2.10901912E+00  1.97438198E+00 -2.93884330E+00
  8.97995252E-01
Force Field                                I                0
Int Atom Types                             I   N=          12
           0           0           0           0           0           0
           0           0           0           0           0           0
MM charges                                 R   N=          12
  0.00000000E+00  0.00000000E+00  0.00000000E+00  0.00000000E+00  0.00000000E+00
  0.00000000E+00  0.00000000E+00  0.00000000E+00  0.00000000E+00  0.00000000E+00
  0.00000000E+00  0.00000000E+00
Integer atomic weights                     I   N=          12
          16          16          14          12          12          12
           1           1           1           1           1           1
Real atomic weights                        R   N=          12
  1.59949146E+01  1.59949146E+01  1.40030740E+01  1.20000000E+01  1.20000000E+01
  1.20000000E+01  1.00782504E+00  1.00782504E+00  1.00782504E+00  1.00782504E+00
  1.00782504E+00  1.00782504E+00
Atom fragment info                         I   N=          12
           0           0           0           0           0           0
           0           0           0           0           0           0
Atom residue num                           I   N=          12
           0           0           0           0           0           0
           0           0           0           0           0           0
Nuclear spins                              I   N=          12
           0           0           2           0           0           0
           1           1           1           1           1           1
Nuclear ZEff                               R   N=          12
 -5.60000000E+00 -5.60000000E+00 -4.55000000E+00 -3.60000000E+00 -3.60000000E+00
 -3.60000000E+00 -1.00000000E+00 -1.00000000E+00 -1.00000000E+00 -1.00000000E+00
 -1.00000000E+00 -1.00000000E+00
Nuclear QMom                               R   N=          12
  0.00000000E+00  0.00000000E+00  2.04400000E+00  0.00000000E+00  0.00000000E+00
  0.00000000E+00  0.00000000E+00  0.00000000E+00  0.00000000E+00  0.00000000E+00
  0.00000000E+00  0.00000000E+00
Nuclear GFac                               R   N=          12
  0.00000000E+00  0.00000000E+00  4.03761000E-01  0.00000000E+00  0.00000000E+00
  0.00000000E+00  2.79284600E+00  2.79284600E+00  2.79284600E+00  2.79284600E+00
  2.79284600E+00  2.79284600E+00
MicOpt                                     I   N=          12
          -1          -1          -1          -1          -1          -1
          -1          -1          -1          -1          -1          -1
Number of contracted shells                I               36
Number of primitive shells                 I               90
Pure/Cartesian d shells                    I                1
Pure/Cartesian f shells                    I                0
Highest angular momentum                   I                2
Largest degree of contraction              I                6
Shell types                                I   N=          36
           0          -1          -1           2           0          -1
          -1           2           0          -1          -1           2
           0          -1          -1           2           0          -1
          -1           2           0          -1          -1           2
           0           0           0           0           0           0
           0           0           0           0           0           0
Number of primitives per shell             I   N=          36
           6           3           1           1           6           3
           1           1           6           3           1           1
           6           3           1           1           6           3
           1           1           6           3           1           1
           3           1           3           1           3           1
           3           1           3           1           3           1
Shell to atom map                          I   N=          36
           1           1           1           1           2           2
           2           2           3           3           3           3
           4           4           4           4           5           5
           5           5           6           6           6           6
           7           7           8           8           9           9
          10          10          11          11          12          12
Primitive exponents                        R   N=          90
  5.48467166E+03  8.25234946E+02  1.88046958E+02  5.29645000E+01  1.68975704E+01
  5.79963534E+00  1.55396162E+01  3.59993359E+00  1.01376175E+00  2.70005823E-01
  8.00000000E-01  5.48467166E+03  8.25234946E+02  1.88046958E+02  5.29645000E+01
  1.68975704E+01  5.79963534E+00  1.55396162E+01  3.59993359E+00  1.01376175E+00
  2.70005823E-01  8.00000000E-01  4.17351146E+03  6.27457911E+02  1.42902093E+02
  4.02343293E+01  1.28202129E+01  4.39043701E+00  1.16263619E+01  2.71627981E+00
  7.72218397E-01  2.12031498E-01  8.00000000E-01  3.04752488E+03  4.57369518E+02
  1.03948685E+02  2.92101553E+01  9.28666296E+00  3.16392696E+00  7.86827235E+00
  1.88128854E+00  5.44249258E-01  1.68714478E-01  8.00000000E-01  3.04752488E+03
  4.57369518E+02  1.03948685E+02  2.92101553E+01  9.28666296E+00  3.16392696E+00
  7.86827235E+00  1.88128854E+00  5.44249258E-01  1.68714478E-01  8.00000000E-01
  3.04752488E+03  4.57369518E+02  1.03948685E+02  2.92101553E+01  9.28666296E+00
  3.16392696E+00  7.86827235E+00  1.88128854E+00  5.44249258E-01  1.68714478E-01
  8.00000000E-01  1.87311370E+01  2.82539436E+00  6.40121692E-01  1.61277759E-01
  1.87311370E+01  2.82539436E+00  6.40121692E-01  1.61277759E-01  1.87311370E+01
  2.82539436E+00  6.40121692E-01  1.61277759E-01  1.87311370E+01  2.82539436E+00
  6.40121692E-01  1.61277759E-01  1.87311370E+01  2.82539436E+00  6.40121692E-01
  1.61277759E-01  1.87311370E+01  2.82539436E+00  6.40121692E-01  1.61277759E-01
Contraction coefficients                   R   N=          90
  1.83107443E-03  1.39501722E-02  6.84450781E-02  2.32714336E-01  4.70192898E-01
  3.58520853E-01 -1.10777550E-01 -1.48026263E-01  1.13076702E+00  1.00000000E+00
  1.00000000E+00  1.83107443E-03  1.39501722E-02  6.84450781E-02  2.32714336E-01
  4.70192898E-01  3.58520853E-01 -1.10777550E-01 -1.48026263E-01  1.13076702E+00
  1.00000000E+00  1.00000000E+00  1.83477216E-03  1.39946270E-02  6.85865518E-02
  2.32240873E-01  4.69069948E-01  3.60455199E-01 -1.14961182E-01 -1.69117479E-01
  1.14585195E+00  1.00000000E+00  1.00000000E+00  1.83473713E-03  1.40373228E-02
  6.88426223E-02  2.32184443E-01  4.67941348E-01  3.62311985E-01 -1.19332420E-01
 -1.60854152E-01  1.14345644E+00  1.00000000E+00  1.00000000E+00  1.83473713E-03
  1.40373228E-02  6.88426223E-02  2.32184443E-01  4.67941348E-01  3.62311985E-01
 -1.19332420E-01 -1.60854152E-01  1.14345644E+00  1.00000000E+00  1.00000000E+00
  1.83473713E-03  1.40373228E-02  6.88426223E-02  2.32184443E-01  4.67941348E-01
  3.62311985E-01 -1.19332420E-01 -1.60854152E-01  1.14345644E+00  1.00000000E+00
  1.00000000E+00  3.34946043E-02  2.34726953E-01  8.13757326E-01  1.00000000E+00
  3.34946043E-02  2.34726953E-01  8.13757326E-01  1.00000000E+00  3.34946043E-02
  2.34726953E-01  8.13757326E-01  1.00000000E+00  3.34946043E-02  2.34726953E-01
  8.13757326E-01  1.00000000E+00  3.34946043E-02  2.34726953E-01  8.13757326E-01
  1.00000000E+00  3.34946043E-02  2.34726953E-01  8.13757326E-01  1.00000000E+00
P(S=P) Contraction coefficients            R   N=          90
  0.00000000E+00  0.00000000E+00  0.00000000E+00  0.00000000E+00  0.00000000E+00
  0.00000000E+00  7.08742682E-02  3.39752839E-01  7.27158577E-01  1.00000000E+00
  0.00000000E+00  0.00000000E+00  0.00000000E+00  0.00000000E+00  0.00000000E+00
  0.00000000E+00  0.00000000E+00  7.08742682E-02  3.39752839E-01  7.27158577E-01
  1.00000000E+00  0.00000000E+00  0.00000000E+00  0.00000000E+00  0.00000000E+00
  0.00000000E+00  0.00000000E+00  0.00000000E+00  6.75797439E-02  3.23907296E-01
  7.40895140E-01  1.00000000E+00  0.00000000E+00  0.00000000E+00  0.00000000E+00
  0.00000000E+00  0.00000000E+00  0.00000000E+00  0.00000000E+00  6.89990666E-02
  3.16423961E-01  7.44308291E-01  1.00000000E+00  0.00000000E+00  0.00000000E+00
  0.00000000E+00  0.00000000E+00  0.00000000E+00  0.00000000E+00  0.00000000E+00
  6.89990666E-02  3.16423961E-01  7.44308291E-01  1.00000000E+00  0.00000000E+00
  0.00000000E+00  0.00000000E+00  0.00000000E+00  0.00000000E+00  0.00000000E+00
  0.00000000E+00  6.89990666E-02  3.16423961E-01  7.44308291E-01  1.00000000E+00
  0.00000000E+00  0.00000000E+00  0.00000000E+00  0.00000000E+00  0.00000000E+00
  0.00000000E+00  0.00000000E+00  0.00000000E+00  0.00000000E+00  0.00000000E+00
  0.00000000E+00  0.00000000E+00  0.00000000E+00  0.00000000E+00  0.00000000E+00
  0.00000000E+00  0.00000000E+00  0.00000000E+00  0.00000000E+00  0.00000000E+00
  0.00000000E+00  0.00000000E+00  0.00000000E+00  0.00000000E+00  0.00000000E+00
Coordinates of each shell                  R   N=         108
 -3.19999613E+00  1.51748669E+00 -8.69787121E-01 -3.19999613E+00  1.51748669E+00
 -8.69787121E-01 -3.19999613E+00  1.51748669E+00 -8.69787121E-01 -3.19999613E+00
  1.51748669E+00 -8.69787121E-01 -2.11172692E+00 -2.03126573E+00  1.30483788E+00
 -2.11172692E+00 -2.03126573E+00  1.30483788E+00 -2.11172692E+00 -2.03126573E+00
  1.30483788E+00 -2.11172692E+00 -2.03126573E+00  1.30483788E+00  2.71442767E+00
 -2.00728895E+00 -6.29657632E-01  2.71442767E+00 -2.00728895E+00 -6.29657632E-01
  2.71442767E+00 -2.00728895E+00 -6.29657632E-01  2.71442767E+00 -2.00728895E+00
 -6.29657632E-01  1.15778118E+00  2.98675305E-01 -7.89583376E-01  1.15778118E+00
  2.98675305E-01 -7.89583376E-01  1.15778118E+00  2.98675305E-01 -7.89583376E-01
  1.15778118E+00  2.98675305E-01 -7.89583376E-01  2.24984702E+00  2.30559505E+00
  9.73290128E-01  2.24984702E+00  2.30559505E+00  9.73290128E-01  2.24984702E+00
  2.30559505E+00  9.73290128E-01  2.24984702E+00  2.30559505E+00  9.73290128E-01
 -1.65126536E+00 -1.30209835E-01 -8.54087412E-02 -1.65126536E+00 -1.30209835E-01
 -8.54087412E-02 -1.65126536E+00 -1.30209835E-01 -8.54087412E-02 -1.65126536E+00
 -1.30209835E-01 -8.54087412E-02  1.23367379E+00  1.00715464E+00 -2.73518337E+00
  1.23367379E+00  1.00715464E+00 -2.73518337E+00  4.21516467E+00  2.72783442E+00
  4.89282131E-01  4.21516467E+00  2.72783442E+00  4.89282131E-01  1.13563877E+00
  4.04223049E+00  8.68642690E-01  1.13563877E+00  4.04223049E+00  8.68642690E-01
  2.19769475E+00  1.61653481E+00  2.92569169E+00  2.19769475E+00  1.61653481E+00
  2.92569169E+00  2.19805973E+00 -3.13801925E+00 -2.10901912E+00  2.19805973E+00
 -3.13801925E+00 -2.10901912E+00  1.97438198E+00 -2.93884330E+00  8.97995252E-01
  1.97438198E+00 -2.93884330E+00  8.97995252E-01
Constraint Structure                       R   N=          36
 -3.19999613E+00  1.51748669E+00 -8.69787121E-01 -2.11172692E+00 -2.03126573E+00
  1.30483788E+00  2.71442767E+00 -2.00728895E+00 -6.29657632E-01  1.15778118E+00
  2.98675305E-01 -7.89583376E-01  2.24984702E+00  2.30559505E+00  9.73290128E-01
 -1.65126536E+00 -1.30209835E-01 -8.54087412E-02  1.23367379E+00  1.00715464E+00
 -2.73518337E+00  4.21516467E+00  2.72783442E+00  4.89282131E-01  1.13563877E+00
  4.04223049E+00  8.68642690E-01  2.19769475E+00  1.61653481E+00  2.92569169E+00
  2.19805973E+00 -3.13801925E+00 -2.10901912E+00  1.97438198E+00 -2.93884330E+00
  8.97995252E-01
Num ILSW                                   I              100
ILSW                                       I   N=         100
           0           1           0           0           2           0
           0           0           0           0           0          -1
           0           0           0           0           0           0
           0           0           0           0           1           0
           1           0           0           0           0           0
           0           0      100000           0          -1           0
           0           0           0           0           0           0
           0           0           0           1           1           0
           0           0           1           0           0           0
           0           0           4          40           0           0
           0           0           0           0           0           0
           0           0           0           0           0           0
           0           0           0           0           0           0
           0           0           0           0           0           0
           0           0           0           0           0           0
           0           0           0           0           0           0
           0           0           0           0
Num RLSW                                   I               40
RLSW                                       R   N=          40
  1.00000000E+00  1.00000000E+00  1.00000000E+00  1.00000000E+00  1.00000000E+00
  0.00000000E+00  0.00000000E+00  1.00000000E+00  0.00000000E+00  0.00000000E+00
  0.00000000E+00  0.00000000E+00  1.00000000E+00  0.00000000E+00  0.00000000E+00
  0.00000000E+00  0.00000000E+00  1.00000000E+00  0.00000000E+00  0.00000000E+00
  0.00000000E+00  0.00000000E+00  1.00000000E+00  0.00000000E+00  0.00000000E+00
  0.00000000E+00  0.00000000E+00  1.00000000E+00  0.00000000E+00  0.00000000E+00
  0.00000000E+00  0.00000000E+00  0.00000000E+00  0.00000000E+00  0.00000000E+00
  0.00000000E+00  0.00000000E+00  0.00000000E+00  1.00000000E+00  1.00000000E+00
MxBond                                     I                4
NBond                                      I   N=          12
           1           1           3           4           4           3
           1           1           1           1           1           1
IBond                                      I   N=          48
           6           0           0           0           6           0
           0           0           4          11          12           0
           3           5           6           7           4           8
           9          10           1           2           4           0
           4           0           0           0           5           0
           0           0           5           0           0           0
           5           0           0           0           3           0
           0           0           3           0           0           0
RBond                                      R   N=          48
  2.00000000E+00  0.00000000E+00  0.00000000E+00  0.00000000E+00  2.00000000E+00
  0.00000000E+00  0.00000000E+00  0.00000000E+00  1.00000000E+00  1.00000000E+00
  1.00000000E+00  0.00000000E+00  1.00000000E+00  1.00000000E+00  1.00000000E+00
  1.00000000E+00  1.00000000E+00  1.00000000E+00  1.00000000E+00  1.00000000E+00
  2.00000000E+00  2.00000000E+00  1.00000000E+00  0.00000000E+00  1.00000000E+00
  0.00000000E+00  0.00000000E+00  0.00000000E+00  1.00000000E+00  0.00000000E+00
  0.00000000E+00  0.00000000E+00  1.00000000E+00  0.00000000E+00  0.00000000E+00
  0.00000000E+00  1.00000000E+00  0.00000000E+00  0.00000000E+00  0.00000000E+00
  1.00000000E+00  0.00000000E+00  0.00000000E+00  0.00000000E+00  1.00000000E+00
  0.00000000E+00  0.00000000E+00  0.00000000E+00
Virial Ratio                               R      2.002632632164366E+00
SCF Energy                                 R     -3.213899549450459E+02
MP2 Energy                                 R     -3.223019996648368E+02
Total Energy                               R     -3.223019996648368E+02
Post-SCF wavefunction norm                 R      1.599428330379674E+00
RMS Force                                  R      1.015858002590816E-05
RMS Density                                R      2.009813054501376E-09
External E-field                           R   N=          35
  0.00000000E+00  0.00000000E+00  0.00000000E+00  0.00000000E+00  0.00000000E+00
  0.00000000E+00  0.00000000E+00  0.00000000E+00  0.00000000E+00  0.00000000E+00
  0.00000000E+00  0.00000000E+00  0.00000000E+00  0.00000000E+00  0.00000000E+00
  0.00000000E+00  0.00000000E+00  0.00000000E+00  0.00000000E+00  0.00000000E+00
  0.00000000E+00  0.00000000E+00  0.00000000E+00  0.00000000E+00  0.00000000E+00
  0.00000000E+00  0.00000000E+00  0.00000000E+00  0.00000000E+00  0.00000000E+00
  0.00000000E+00  0.00000000E+00  0.00000000E+00  0.00000000E+00  0.00000000E+00
IOpCl                                      I                0
IROHF                                      I                0
Alpha Orbital Energies                     R   N=         102
 -2.04673964E+01 -2.04640772E+01 -1.55270562E+01 -1.13033279E+01 -1.12317799E+01
 -1.12049343E+01 -1.33052957E+00 -1.22967236E+00 -1.15985309E+00 -9.80781394E-01
 -8.29515641E-01 -6.90685802E-01 -6.44619556E-01 -6.13921215E-01 -5.70996836E-01
 -5.52372671E-01 -5.45857008E-01 -5.08934973E-01 -4.88399037E-01 -4.64653376E-01
 -4.27188414E-01 -3.74899603E-01 -3.63250840E-01 -3.45132654E-01  2.44884780E-01
  2.49982701E-01  2.96573253E-01  3.14723052E-01  3.42740971E-01  3.45646144E-01
  3.66535902E-01  4.27680801E-01  4.52432366E-01  4.89160925E-01  5.52608938E-01
  6.39287737E-01  7.60905582E-01  7.70658648E-01  7.90594950E-01  8.74183219E-01
  8.92988668E-01  9.08181331E-01  9.71557716E-01  9.83767189E-01  1.00325016E+00
  1.01111041E+00  1.06445395E+00  1.08036432E+00  1.13914000E+00  1.15016825E+00
  1.17260259E+00  1.19222168E+00  1.19591440E+00  1.24042786E+00  1.25224227E+00
  1.27255879E+00  1.30763987E+00  1.32548126E+00  1.41095245E+00  1.42059176E+00
  1.45924374E+00  1.48351808E+00  1.60865990E+00  1.70282232E+00  1.73547198E+00
  1.79549115E+00  1.85119917E+00  1.94452554E+00  2.01479523E+00  2.04592435E+00
  2.07050090E+00  2.16443099E+00  2.18581273E+00  2.19454586E+00  2.21026926E+00
  2.28183827E+00  2.31229294E+00  2.33079246E+00  2.34423420E+00  2.37094384E+00
  2.43442683E+00  2.50081216E+00  2.53073102E+00  2.55578590E+00  2.67469113E+00
  2.71257520E+00  2.77614910E+00  2.80024020E+00  2.92329904E+00  2.98349111E+00
  3.08744259E+00  3.10340826E+00  3.24823560E+00  3.31213219E+00  3.39264968E+00
  3.54228446E+00  4.19969094E+00  4.39988581E+00  4.62537714E+00  4.70473304E+00
  4.76762694E+00  5.05405372E+00
Alpha MO coefficients                      R   N=       10404
 -4.81419207E-03 -1.46164909E-04  1.79722283E-05  2.09531903E-05 -1.70759265E-05
  2.44222323E-04  1.10548490E-04 -8.41580035E-05  2.46666887E-05  8.98365119E-05
 -6.08671631E-05 -6.38444081E-05 -5.88690460E-05  5.40695142E-06  2.53600195E-05
  9.94675941E-01  2.09925263E-02  2.55230831E-04  9.98932937E-04 -7.30993950E-04
  4.19546160E-03 -3.94427052E-05 -1.47382561E-04  9.51510229E-05 -3.89213406E-03
 -3.88214235E-03 -3.95939541E-03  5.99172363E-06 -4.13344466E-05 -1.24400223E-04
  1.32332550E-06  1.63462763E-05 -5.46998720E-06  4.13025863E-06 -1.12737066E-05
 -4.47666144E-05  5.29862070E-05 -1.06669187E-04  8.11019443E-05 -1.23262070E-05
 -1.03387494E-05  1.14296414E-05  8.27167398E-06  2.57099568E-06 -5.30057701E-06
 -6.32924731E-06 -5.53812915E-06  2.87658462E-05  1.76234779E-05 -1.64801077E-05
  1.57415017E-04  1.42964501E-04 -3.65413182E-05 -1.31113567E-05 -2.97779193E-05
 -2.00728335E-05 -3.42680514E-05 -4.87127696E-05  2.81618607E-05  1.63213429E-05
  4.44039989E-06  1.19456769E-05 -1.26686089E-05 -3.87257580E-06 -2.27060780E-07
 -9.76441385E-05  4.75033799E-05  5.11547565E-05  2.30836961E-05  1.19302818E-05
  6.60124729E-06  7.92557350E-06  1.23627489E-06 -1.59980659E-06 -3.21776948E-06
 -7.56363428E-06  4.96963844E-04 -2.18060745E-05 -1.32485942E-04  8.88982380E-05
 -3.18817054E-04  2.23858542E-04  1.62618768E-04 -1.21587238E-04 -6.51708638E-05
 -3.99267001E-04 -2.31565809E-04 -4.97010271E-05  3.84019739E-05  2.78800289E-04
 -2.14273843E-06 -4.69282557E-05 -1.38550093E-07 -2.60481954E-05  9.32107601E-06
  3.55042828E-07  1.26980621E-05  2.51534591E-06  1.73070721E-05  5.81925840E-06
  5.03896780E-06 -1.90602023E-04  9.94679535E-01  2.10096912E-02  8.21489792E-04
 -8.83522548E-04  4.18176958E-04  4.12685123E-03 -1.29388281E-04  1.06454490E-04
 -4.74651766E-05 -3.83477365E-03 -3.87956880E-03 -3.97050223E-03 -7.44460546E-05
  1.94340992E-06 -9.91717746E-05  4.79612958E-03  5.66936358E-05  3.09360265E-05
 -3.40874742E-06 -7.38481540E-07  2.90221118E-04  4.95795821E-05  8.59442973E-05
 -8.48708337E-05 -2.76842349E-05 -7.04489447E-05 -5.13423499E-05  8.43990610E-05
 -7.28903366E-05 -3.15914731E-05  5.01119223E-06  2.19579611E-05 -5.78860487E-06
  3.08532039E-06 -2.31210092E-06 -1.59169342E-04  5.38769849E-05 -5.21292588E-05
  1.22037356E-05 -2.31001502E-08  1.77011311E-05  1.15632363E-05  2.33423911E-06
  6.28251529E-06 -3.28589698E-06 -5.10438258E-06  5.75440789E-06  3.37765431E-05
 -4.63275263E-06  1.56893161E-06  1.04982062E-04  1.58604400E-04 -6.43794495E-05
  3.24464318E-05 -7.30531887E-05 -2.87433743E-06 -1.82250330E-05  2.72655047E-05
 -7.92939914E-06 -8.27482651E-06  3.94284039E-06  9.27366438E-06 -1.44905694E-05
 -1.04495089E-05  2.31161745E-06 -5.69580930E-05  4.69981070E-05  1.04782759E-04
 -1.53857093E-06  1.43091344E-05  1.25071881E-06  6.70252616E-06 -1.97085830E-06
 -1.05008047E-07 -4.30292204E-06 -8.16952349E-06  5.01222294E-04 -9.02799229E-05
  1.03911010E-04 -5.74867451E-05 -2.84089823E-04  3.02361538E-04 -2.84056904E-05
 -8.96658473E-06 -2.46096625E-04 -3.40234846E-04 -1.32547095E-04  2.67437084E-04
 -1.32252114E-04  1.62450695E-04  1.54986364E-05 -4.92593966E-05 -4.52635539E-06
 -3.81551077E-05  2.20832220E-05 -7.73031439E-05  9.37005485E-06  2.64527083E-05
  9.54902836E-06  1.13079661E-05  9.97433225E-06 -3.56795968E-05 -4.35031625E-05
 -1.88157638E-04 -8.01286417E-06 -1.54032364E-06 -3.39033854E-06  1.14077057E-03
  2.88399514E-04 -2.18435004E-04  9.78995181E-05 -9.72288820E-05 -1.01033139E-04
 -1.31372261E-04 -4.34708185E-05  2.22563641E-05 -1.23759144E-05  9.84597340E-07
  1.04612202E-05 -1.82444714E-05  7.80820628E-06  2.44063053E-05 -1.97947557E-04
 -7.75227205E-05  2.78400907E-05 -6.09761734E-05 -2.97777049E-05  1.30386696E-05
 -5.81074260E-06 -5.49344031E-06 -1.34112622E-05 -3.16048996E-05  9.95069645E-01
  2.48556922E-02 -1.49697503E-03 -2.65406676E-04 -1.04229652E-04 -2.87662032E-03
  1.45003943E-03 -4.95265093E-05  1.17852137E-04 -3.15998557E-03 -3.32675431E-03
 -3.31134648E-03  1.08446653E-04 -1.40741466E-06  4.43076798E-06 -2.28749042E-05
  1.54105118E-04  1.57342885E-04 -2.20450869E-04  2.71822700E-05  1.75509637E-03
 -1.28386509E-05 -5.99691035E-04 -1.49848346E-04 -1.03025376E-04 -1.45368157E-04
 -1.02265410E-04  4.76878908E-05 -3.17857649E-06  6.43283480E-06 -1.23489921E-05
 -3.44226966E-05  3.62910369E-06  4.30247927E-05  2.30656342E-05  1.53422810E-04
 -2.91388189E-06  2.65631272E-05  1.42572603E-06 -2.12249188E-05 -4.57087760E-05
 -3.99548072E-05 -1.68139478E-05  1.87264224E-05 -6.04769597E-06 -2.04001882E-05
 -3.79482607E-05 -4.74363459E-05  2.49534910E-05  1.53648762E-05 -7.25327687E-04
  2.34684130E-04 -5.64487103E-04  3.61285248E-04 -9.67025775E-05 -6.20533402E-05
 -6.41605693E-05  3.61449669E-05 -1.02089947E-05  1.88386345E-05 -1.03561079E-04
 -2.19551828E-04  4.41993475E-06 -7.04324789E-05 -2.27401784E-05  5.13709110E-05
  1.31017558E-05 -1.07080937E-04  3.43220145E-04  6.46097124E-04  3.35384966E-04
  6.22419231E-04 -2.29167874E-04  3.96759435E-04  3.43943560E-05 -1.53970802E-04
  8.83046093E-05 -1.33257135E-03 -3.29063291E-04  1.34577732E-03 -7.17039114E-04
 -2.37777964E-05 -1.41424152E-04  1.87274508E-04  2.67689428E-04 -8.80926412E-05
  2.61130179E-04 -2.20132222E-04  4.17686037E-04 -6.14329643E-05  1.27847175E-04
 -1.06828216E-04 -1.49866521E-03  4.43387075E-04 -1.20606165E-03  9.22703846E-04
  1.38261111E-04 -1.44800726E-04  4.94791578E-05 -6.49281925E-06  5.64029159E-05
  4.02217732E-04 -4.45771429E-05 -2.17361012E-04  9.20162558E-05 -2.85707549E-05
 -8.19600926E-06  7.78360620E-04 -2.72947241E-04  2.33696706E-04  7.35079203E-05
 -3.20647800E-05 -6.71637989E-05 -1.60892583E-04 -1.09776272E-05 -6.32068199E-05
 -1.45337184E-06  3.74947542E-03  3.57191800E-04 -5.17040207E-05  2.24893445E-05
  1.74366164E-05  2.45221514E-03 -2.16017796E-03 -5.15238077E-04 -2.21343150E-04
 -4.27237868E-04 -2.05486081E-04 -1.48534825E-04 -4.03859464E-05  8.26971649E-05
 -4.09464663E-05 -1.12478672E-04 -3.72347921E-04  1.81098208E-04  6.25655183E-05
 -1.35246098E-05  1.32919590E-03 -1.12554583E-03 -6.73217311E-04 -1.11800979E-04
 -4.40473725E-05 -5.45278764E-05 -8.90581947E-05  6.18518072E-05  2.61881521E-05
  4.81537666E-05  9.95949354E-01  2.59068373E-02 -3.05146275E-04 -5.29448103E-07
  1.78123810E-04 -6.79788510E-03 -3.81833604E-03 -8.11638174E-04  8.71008717E-04
 -1.22134748E-03 -8.52609148E-04 -1.60906227E-03 -3.33772563E-04  3.45621777E-05
 -9.44422132E-04 -1.57352891E-04  1.02557700E-04  2.17642394E-05  6.32290608E-04
 -1.57736558E-04 -6.50593462E-05 -1.74527442E-04 -8.32596043E-05 -9.56240988E-05
  2.47453437E-06 -8.09495155E-05  4.11387864E-05 -1.01799293E-04 -5.30517947E-04
 -6.73836805E-05  4.51239115E-05 -1.68134070E-05  2.54450101E-03  3.71403095E-04
 -6.24429483E-04  3.68798740E-04 -2.09117145E-04 -2.65887131E-04 -3.73924581E-04
 -5.42179241E-05  1.76719613E-05 -1.14005003E-04 -2.96938261E-05 -2.01810875E-04
 -4.09925312E-05 -6.80882850E-05  1.98515830E-05  1.08801732E-04 -2.76617567E-04
  2.98651830E-04 -3.17658600E-05 -3.39494957E-05 -6.47007930E-05 -1.85413594E-04
 -3.51163053E-06  2.59394673E-06 -1.38729395E-04 -2.18570963E-04 -5.95192811E-06
 -6.72795941E-05  3.11844945E-05  1.09926714E-05  3.99916121E-03 -8.65425570E-04
  1.47388290E-03  8.29201204E-05 -2.70588950E-04 -4.76796596E-04 -8.16869879E-05
  2.42729500E-04 -6.64786734E-05  7.52116525E-05  9.95955898E-01  2.85047225E-02
  2.90052771E-04 -2.28130123E-04  2.31118244E-04 -2.01632798E-02 -2.54614595E-05
  4.62862570E-04 -1.98694865E-03 -1.34590176E-03 -1.35539820E-03 -1.23985652E-03
 -3.50375361E-05  1.25071555E-06 -2.21680466E-05  1.10478212E-02  2.68647618E-04
 -7.47369016E-05 -1.15359276E-04 -8.36605180E-05  5.22807337E-03 -8.49990859E-04
 -1.94935714E-03 -1.18404536E-03 -2.03647885E-04 -2.59449832E-04 -3.05293322E-04
 -6.64435976E-05 -1.01711582E-04 -2.01283649E-04 -4.03928467E-03 -1.43501777E-04
  2.68743664E-04  5.36142277E-05 -3.93196767E-05  3.58250479E-03  3.41771280E-03
 -8.64848880E-04  1.67101441E-05 -4.10803254E-04 -2.22570278E-04 -2.01524886E-04
  7.02494075E-06  9.30286397E-05  3.86774635E-05  2.43433167E-04  2.53250960E-03
 -1.86473649E-04 -3.76331254E-05 -1.52915030E-04  3.64343915E-05 -2.16829685E-04
 -1.22637745E-04 -5.92514845E-05  1.66267393E-04 -6.30708704E-05  2.59188756E-04
  2.98753509E-05  1.44351662E-04  2.99773677E-05  5.61347667E-06 -6.21707974E-08
 -7.32820620E-04 -3.67661605E-04  9.61888839E-06 -1.13141177E-04  2.74707270E-05
  1.25135670E-04  8.28601562E-05  9.91686180E-06 -1.70645078E-05 -5.60126739E-06
  4.20956328E-05  1.95388039E-04  3.40832139E-05  3.43353010E-05 -3.03314839E-07
 -1.06431248E-03 -2.84992422E-04 -3.79828664E-04  9.73890405E-05  1.20042921E-04
  9.13177106E-05  1.36988269E-04 -5.95174170E-05  2.40630942E-05  5.60042047E-06
 -4.33434827E-05 -2.50418363E-04  1.22405192E-05 -8.30265256E-05 -8.24809812E-05
  9.16226919E-04 -3.05436864E-04  4.68431984E-04  4.66164708E-04 -1.25270956E-04
 -5.98185790E-06 -1.12664563E-04 -4.46867066E-05  1.06560397E-05  5.73185547E-05
 -1.13273449E-02  1.12457736E-06  6.27887270E-05  7.79812042E-05  3.11783824E-05
  1.99617709E-03  1.03907710E-03  1.79527598E-03  5.83357207E-04 -2.35648981E-04
 -2.84034833E-04 -1.82188819E-04 -7.08684144E-05 -8.40442825E-05 -1.54967348E-04
  9.95710968E-01  2.85192745E-02 -1.04826695E-04 -1.10837722E-04  2.07366712E-05
 -1.52585128E-02  5.69269273E-04  6.60392494E-04  3.32100377E-04 -1.76484896E-03
 -1.76058652E-03 -1.80735261E-03 -1.84509834E-05 -2.77408558E-05 -3.01204510E-05