213_13-Dibromobenzene Gaussian SP Calculation on node58.bme.utexas.edu  
Freq      RMP2-FC                                                     6-31G(d)            
Number of atoms                            I               12
Info1-9                                    I   N=           9
          23          22        1002           0           0         100
           6           2           1
Charge                                     I                0
Multiplicity                               I                1
Number of electrons                        I              110
Number of alpha electrons                  I               55
Number of beta electrons                   I               55
Number of basis functions                  I              158
Number of independent functions            I              158
Number of point charges in /Mol/           I                0
Number of translation vectors              I                0
Atomic numbers                             I   N=          12
          35          35           6           6           6           6
           6           6           1           1           1           1
Nuclear charges                            R   N=          12
  3.50000000E+01  3.50000000E+01  6.00000000E+00  6.00000000E+00  6.00000000E+00
  6.00000000E+00  6.00000000E+00  6.00000000E+00  1.00000000E+00  1.00000000E+00
  1.00000000E+00  1.00000000E+00
Current cartesian coordinates              R   N=          36
  5.36965992E+00 -1.17529354E+00  8.04468730E-05 -5.36966116E+00 -1.17529255E+00
 -1.09775393E-04  1.21845497E-07 -7.27859565E-01 -7.54301673E-06  2.25746079E+00
  6.33120114E-01  4.86158559E-05 -2.25746020E+00  6.33120872E-01 -2.83615835E-05
  2.29575087E+00  3.26920744E+00  7.97248833E-05 -2.29574765E+00  3.26920837E+00
 -1.58408210E-06  2.20398722E-06  4.56874541E+00  5.56374471E-05 -8.27337515E-07
 -2.77858611E+00 -3.18574210E-05  4.08307531E+00  4.27635192E+00  1.24548586E-04
 -4.08307112E+00  4.27635422E+00 -2.11566734E-05  3.17266358E-06  6.62313721E+00
  7.60266804E-05
Force Field                                I                0
Int Atom Types                             I   N=          12
           0           0           0           0           0           0
           0           0           0           0           0           0
MM charges                                 R   N=          12
  0.00000000E+00  0.00000000E+00  0.00000000E+00  0.00000000E+00  0.00000000E+00
  0.00000000E+00  0.00000000E+00  0.00000000E+00  0.00000000E+00  0.00000000E+00
  0.00000000E+00  0.00000000E+00
Integer atomic weights                     I   N=          12
          79          79          12          12          12          12
          12          12           1           1           1           1
Real atomic weights                        R   N=          12
  7.89183361E+01  7.89183361E+01  1.20000000E+01  1.20000000E+01  1.20000000E+01
  1.20000000E+01  1.20000000E+01  1.20000000E+01  1.00782504E+00  1.00782504E+00
  1.00782504E+00  1.00782504E+00
Atom fragment info                         I   N=          12
           0           0           0           0           0           0
           0           0           0           0           0           0
Atom residue num                           I   N=          12
           0           0           0           0           0           0
           0           0           0           0           0           0
Nuclear spins                              I   N=          12
           3           3           0           0           0           0
           0           0           1           1           1           1
Nuclear ZEff                               R   N=          12
 -2.45000000E+01 -2.45000000E+01 -3.60000000E+00 -3.60000000E+00 -3.60000000E+00
 -3.60000000E+00 -3.60000000E+00 -3.60000000E+00 -1.00000000E+00 -1.00000000E+00
 -1.00000000E+00 -1.00000000E+00
Nuclear QMom                               R   N=          12
  3.13000000E+01  3.13000000E+01  0.00000000E+00  0.00000000E+00  0.00000000E+00
  0.00000000E+00  0.00000000E+00  0.00000000E+00  0.00000000E+00  0.00000000E+00
  0.00000000E+00  0.00000000E+00
Nuclear GFac                               R   N=          12
  2.10639900E+00  2.10639900E+00  0.00000000E+00  0.00000000E+00  0.00000000E+00
  0.00000000E+00  0.00000000E+00  0.00000000E+00  2.79284600E+00  2.79284600E+00
  2.79284600E+00  2.79284600E+00
MicOpt                                     I   N=          12
          -1          -1          -1          -1          -1          -1
          -1          -1          -1          -1          -1          -1
Number of contracted shells                I               56
Number of primitive shells                 I              144
Pure/Cartesian d shells                    I                1
Pure/Cartesian f shells                    I                0
Highest angular momentum                   I                2
Largest degree of contraction              I                8
Shell types                                I   N=          56
           0           0           0           0           0           0
           1           1           1           1           2           2
           0           0           0           0           0           0
           1           1           1           1           2           2
           0          -1          -1           2           0          -1
          -1           2           0          -1          -1           2
           0          -1          -1           2           0          -1
          -1           2           0          -1          -1           2
           0           0           0           0           0           0
           0           0
Number of primitives per shell             I   N=          56
           8           2           1           1           1           1
           6           3           1           1           5           1
           8           2           1           1           1           1
           6           3           1           1           5           1
           6           3           1           1           6           3
           1           1           6           3           1           1
           6           3           1           1           6           3
           1           1           6           3           1           1
           3           1           3           1           3           1
           3           1
Shell to atom map                          I   N=          56
           1           1           1           1           1           1
           1           1           1           1           1           1
           2           2           2           2           2           2
           2           2           2           2           2           2
           3           3           3           3           4           4
           4           4           5           5           5           5
           6           6           6           6           7           7
           7           7           8           8           8           8
           9           9          10          10          11          11
          12          12
Primitive exponents                        R   N=         144
  5.74300000E+05  8.90700000E+04  2.02100000E+04  5.73600000E+03  1.89900000E+03
  6.98700000E+02  2.77800000E+02  1.15200000E+02  3.59700000E+01  1.55000000E+01
  4.77100000E+00  2.07700000E+00  4.21100000E-01  1.61000000E-01  4.40600000E+03
  1.04200000E+03  3.32100000E+02  1.21900000E+02  4.92400000E+01  2.11600000E+01
  8.83600000E+00  3.82900000E+00  1.64300000E+00  4.65000000E-01  1.42700000E-01
  1.08400000E+02  3.07100000E+01  1.06600000E+01  3.85100000E+00  1.31700000E+00
  3.38000000E-01  5.74300000E+05  8.90700000E+04  2.02100000E+04  5.73600000E+03
  1.89900000E+03  6.98700000E+02  2.77800000E+02  1.15200000E+02  3.59700000E+01
  1.55000000E+01  4.77100000E+00  2.07700000E+00  4.21100000E-01  1.61000000E-01
  4.40600000E+03  1.04200000E+03  3.32100000E+02  1.21900000E+02  4.92400000E+01
  2.11600000E+01  8.83600000E+00  3.82900000E+00  1.64300000E+00  4.65000000E-01
  1.42700000E-01  1.08400000E+02  3.07100000E+01  1.06600000E+01  3.85100000E+00
  1.31700000E+00  3.38000000E-01  3.04752488E+03  4.57369518E+02  1.03948685E+02
  2.92101553E+01  9.28666296E+00  3.16392696E+00  7.86827235E+00  1.88128854E+00
  5.44249258E-01  1.68714478E-01  8.00000000E-01  3.04752488E+03  4.57369518E+02
  1.03948685E+02  2.92101553E+01  9.28666296E+00  3.16392696E+00  7.86827235E+00
  1.88128854E+00  5.44249258E-01  1.68714478E-01  8.00000000E-01  3.04752488E+03
  4.57369518E+02  1.03948685E+02  2.92101553E+01  9.28666296E+00  3.16392696E+00
  7.86827235E+00  1.88128854E+00  5.44249258E-01  1.68714478E-01  8.00000000E-01
  3.04752488E+03  4.57369518E+02  1.03948685E+02  2.92101553E+01  9.28666296E+00
  3.16392696E+00  7.86827235E+00  1.88128854E+00  5.44249258E-01  1.68714478E-01
  8.00000000E-01  3.04752488E+03  4.57369518E+02  1.03948685E+02  2.92101553E+01
  9.28666296E+00  3.16392696E+00  7.86827235E+00  1.88128854E+00  5.44249258E-01
  1.68714478E-01  8.00000000E-01  3.04752488E+03  4.57369518E+02  1.03948685E+02
  2.92101553E+01  9.28666296E+00  3.16392696E+00  7.86827235E+00  1.88128854E+00
  5.44249258E-01  1.68714478E-01  8.00000000E-01  1.87311370E+01  2.82539436E+00
  6.40121692E-01  1.61277759E-01  1.87311370E+01  2.82539436E+00  6.40121692E-01
  1.61277759E-01  1.87311370E+01  2.82539436E+00  6.40121692E-01  1.61277759E-01
  1.87311370E+01  2.82539436E+00  6.40121692E-01  1.61277759E-01
Contraction coefficients                   R   N=         144
  2.10682753E-04  1.61271721E-03  8.36010959E-03  3.40275588E-02  1.08515001E-01
  2.67396944E-01  4.29567221E-01  2.86993117E-01  2.77772914E-01  7.47057636E-01
  1.00000000E+00  1.00000000E+00  1.00000000E+00  1.00000000E+00  1.39552623E-03
  1.23748283E-02  6.10175241E-02  2.26775547E-01  4.05975875E-01  4.50692322E-01
  2.92018585E-01  5.30220862E-01  2.75287404E-01  1.00000000E+00  1.00000000E+00
  2.15879371E-02  1.34176036E-01  3.67870647E-01  4.91895206E-01  2.68321979E-01
  1.00000000E+00  2.10682753E-04  1.61271721E-03  8.36010959E-03  3.40275588E-02
  1.08515001E-01  2.67396944E-01  4.29567221E-01  2.86993117E-01  2.77772914E-01
  7.47057636E-01  1.00000000E+00  1.00000000E+00  1.00000000E+00  1.00000000E+00
  1.39552623E-03  1.23748283E-02  6.10175241E-02  2.26775547E-01  4.05975875E-01
  4.50692322E-01  2.92018585E-01  5.30220862E-01  2.75287404E-01  1.00000000E+00
  1.00000000E+00  2.15879371E-02  1.34176036E-01  3.67870647E-01  4.91895206E-01
  2.68321979E-01  1.00000000E+00  1.83473713E-03  1.40373228E-02  6.88426223E-02
  2.32184443E-01  4.67941348E-01  3.62311985E-01 -1.19332420E-01 -1.60854152E-01
  1.14345644E+00  1.00000000E+00  1.00000000E+00  1.83473713E-03  1.40373228E-02
  6.88426223E-02  2.32184443E-01  4.67941348E-01  3.62311985E-01 -1.19332420E-01
 -1.60854152E-01  1.14345644E+00  1.00000000E+00  1.00000000E+00  1.83473713E-03
  1.40373228E-02  6.88426223E-02  2.32184443E-01  4.67941348E-01  3.62311985E-01
 -1.19332420E-01 -1.60854152E-01  1.14345644E+00  1.00000000E+00  1.00000000E+00
  1.83473713E-03  1.40373228E-02  6.88426223E-02  2.32184443E-01  4.67941348E-01
  3.62311985E-01 -1.19332420E-01 -1.60854152E-01  1.14345644E+00  1.00000000E+00
  1.00000000E+00  1.83473713E-03  1.40373228E-02  6.88426223E-02  2.32184443E-01
  4.67941348E-01  3.62311985E-01 -1.19332420E-01 -1.60854152E-01  1.14345644E+00
  1.00000000E+00  1.00000000E+00  1.83473713E-03  1.40373228E-02  6.88426223E-02
  2.32184443E-01  4.67941348E-01  3.62311985E-01 -1.19332420E-01 -1.60854152E-01
  1.14345644E+00  1.00000000E+00  1.00000000E+00  3.34946043E-02  2.34726953E-01
  8.13757326E-01  1.00000000E+00  3.34946043E-02  2.34726953E-01  8.13757326E-01
  1.00000000E+00  3.34946043E-02  2.34726953E-01  8.13757326E-01  1.00000000E+00
  3.34946043E-02  2.34726953E-01  8.13757326E-01  1.00000000E+00
P(S=P) Contraction coefficients            R   N=         144
  0.00000000E+00  0.00000000E+00  0.00000000E+00  0.00000000E+00  0.00000000E+00
  0.00000000E+00  0.00000000E+00  0.00000000E+00  0.00000000E+00  0.00000000E+00
  0.00000000E+00  0.00000000E+00  0.00000000E+00  0.00000000E+00  0.00000000E+00
  0.00000000E+00  0.00000000E+00  0.00000000E+00  0.00000000E+00  0.00000000E+00
  0.00000000E+00  0.00000000E+00  0.00000000E+00  0.00000000E+00  0.00000000E+00
  0.00000000E+00  0.00000000E+00  0.00000000E+00  0.00000000E+00  0.00000000E+00
  0.00000000E+00  0.00000000E+00  0.00000000E+00  0.00000000E+00  0.00000000E+00
  0.00000000E+00  0.00000000E+00  0.00000000E+00  0.00000000E+00  0.00000000E+00
  0.00000000E+00  0.00000000E+00  0.00000000E+00  0.00000000E+00  0.00000000E+00
  0.00000000E+00  0.00000000E+00  0.00000000E+00  0.00000000E+00  0.00000000E+00
  0.00000000E+00  0.00000000E+00  0.00000000E+00  0.00000000E+00  0.00000000E+00
  0.00000000E+00  0.00000000E+00  0.00000000E+00  0.00000000E+00  0.00000000E+00
  0.00000000E+00  0.00000000E+00  0.00000000E+00  0.00000000E+00  0.00000000E+00
  0.00000000E+00  0.00000000E+00  0.00000000E+00  6.89990666E-02  3.16423961E-01
  7.44308291E-01  1.00000000E+00  0.00000000E+00  0.00000000E+00  0.00000000E+00
  0.00000000E+00  0.00000000E+00  0.00000000E+00  0.00000000E+00  6.89990666E-02
  3.16423961E-01  7.44308291E-01  1.00000000E+00  0.00000000E+00  0.00000000E+00
  0.00000000E+00  0.00000000E+00  0.00000000E+00  0.00000000E+00  0.00000000E+00
  6.89990666E-02  3.16423961E-01  7.44308291E-01  1.00000000E+00  0.00000000E+00
  0.00000000E+00  0.00000000E+00  0.00000000E+00  0.00000000E+00  0.00000000E+00
  0.00000000E+00  6.89990666E-02  3.16423961E-01  7.44308291E-01  1.00000000E+00
  0.00000000E+00  0.00000000E+00  0.00000000E+00  0.00000000E+00  0.00000000E+00
  0.00000000E+00  0.00000000E+00  6.89990666E-02  3.16423961E-01  7.44308291E-01
  1.00000000E+00  0.00000000E+00  0.00000000E+00  0.00000000E+00  0.00000000E+00
  0.00000000E+00  0.00000000E+00  0.00000000E+00  6.89990666E-02  3.16423961E-01
  7.44308291E-01  1.00000000E+00  0.00000000E+00  0.00000000E+00  0.00000000E+00
  0.00000000E+00  0.00000000E+00  0.00000000E+00  0.00000000E+00  0.00000000E+00
  0.00000000E+00  0.00000000E+00  0.00000000E+00  0.00000000E+00  0.00000000E+00
  0.00000000E+00  0.00000000E+00  0.00000000E+00  0.00000000E+00
Coordinates of each shell                  R   N=         168
  5.36965992E+00 -1.17529354E+00  8.04468730E-05  5.36965992E+00 -1.17529354E+00
  8.04468730E-05  5.36965992E+00 -1.17529354E+00  8.04468730E-05  5.36965992E+00
 -1.17529354E+00  8.04468730E-05  5.36965992E+00 -1.17529354E+00  8.04468730E-05
  5.36965992E+00 -1.17529354E+00  8.04468730E-05  5.36965992E+00 -1.17529354E+00
  8.04468730E-05  5.36965992E+00 -1.17529354E+00  8.04468730E-05  5.36965992E+00
 -1.17529354E+00  8.04468730E-05  5.36965992E+00 -1.17529354E+00  8.04468730E-05
  5.36965992E+00 -1.17529354E+00  8.04468730E-05  5.36965992E+00 -1.17529354E+00
  8.04468730E-05 -5.36966116E+00 -1.17529255E+00 -1.09775393E-04 -5.36966116E+00
 -1.17529255E+00 -1.09775393E-04 -5.36966116E+00 -1.17529255E+00 -1.09775393E-04
 -5.36966116E+00 -1.17529255E+00 -1.09775393E-04 -5.36966116E+00 -1.17529255E+00
 -1.09775393E-04 -5.36966116E+00 -1.17529255E+00 -1.09775393E-04 -5.36966116E+00
 -1.17529255E+00 -1.09775393E-04 -5.36966116E+00 -1.17529255E+00 -1.09775393E-04
 -5.36966116E+00 -1.17529255E+00 -1.09775393E-04 -5.36966116E+00 -1.17529255E+00
 -1.09775393E-04 -5.36966116E+00 -1.17529255E+00 -1.09775393E-04 -5.36966116E+00
 -1.17529255E+00 -1.09775393E-04  1.21845497E-07 -7.27859565E-01 -7.54301673E-06
  1.21845497E-07 -7.27859565E-01 -7.54301673E-06  1.21845497E-07 -7.27859565E-01
 -7.54301673E-06  1.21845497E-07 -7.27859565E-01 -7.54301673E-06  2.25746079E+00
  6.33120114E-01  4.86158559E-05  2.25746079E+00  6.33120114E-01  4.86158559E-05
  2.25746079E+00  6.33120114E-01  4.86158559E-05  2.25746079E+00  6.33120114E-01
  4.86158559E-05 -2.25746020E+00  6.33120872E-01 -2.83615835E-05 -2.25746020E+00
  6.33120872E-01 -2.83615835E-05 -2.25746020E+00  6.33120872E-01 -2.83615835E-05
 -2.25746020E+00  6.33120872E-01 -2.83615835E-05  2.29575087E+00  3.26920744E+00
  7.97248833E-05  2.29575087E+00  3.26920744E+00  7.97248833E-05  2.29575087E+00
  3.26920744E+00  7.97248833E-05  2.29575087E+00  3.26920744E+00  7.97248833E-05
 -2.29574765E+00  3.26920837E+00 -1.58408210E-06 -2.29574765E+00  3.26920837E+00
 -1.58408210E-06 -2.29574765E+00  3.26920837E+00 -1.58408210E-06 -2.29574765E+00
  3.26920837E+00 -1.58408210E-06  2.20398722E-06  4.56874541E+00  5.56374471E-05
  2.20398722E-06  4.56874541E+00  5.56374471E-05  2.20398722E-06  4.56874541E+00
  5.56374471E-05  2.20398722E-06  4.56874541E+00  5.56374471E-05 -8.27337515E-07
 -2.77858611E+00 -3.18574210E-05 -8.27337515E-07 -2.77858611E+00 -3.18574210E-05
  4.08307531E+00  4.27635192E+00  1.24548586E-04  4.08307531E+00  4.27635192E+00
  1.24548586E-04 -4.08307112E+00  4.27635422E+00 -2.11566734E-05 -4.08307112E+00
  4.27635422E+00 -2.11566734E-05  3.17266358E-06  6.62313721E+00  7.60266804E-05
  3.17266358E-06  6.62313721E+00  7.60266804E-05
Constraint Structure                       R   N=          36
  5.36965992E+00 -1.17529354E+00  8.04468730E-05 -5.36966116E+00 -1.17529255E+00
 -1.09775393E-04  1.21845497E-07 -7.27859565E-01 -7.54301673E-06  2.25746079E+00
  6.33120114E-01  4.86158559E-05 -2.25746020E+00  6.33120872E-01 -2.83615835E-05
  2.29575087E+00  3.26920744E+00  7.97248833E-05 -2.29574765E+00  3.26920837E+00
 -1.58408210E-06  2.20398722E-06  4.56874541E+00  5.56374471E-05 -8.27337515E-07
 -2.77858611E+00 -3.18574210E-05  4.08307531E+00  4.27635192E+00  1.24548586E-04
 -4.08307112E+00  4.27635422E+00 -2.11566734E-05  3.17266358E-06  6.62313721E+00
  7.60266804E-05
Num ILSW                                   I              100
ILSW                                       I   N=         100
           0           1           0           0           2           0
           0           0           0           0           0          -1
           0           0           0           0           0           0
           0           0           0           0           1           0
           1           0           0           0           0           0
           0           0      100000           0          -1           0
           0           0           0           0           0           0
           0           0           0           1           1           0
           0           0           1           0           0           0
           0           0           4          40           0           0
           0           0           0           0           0           0
           0           0           0           0           0           0
           0           0           0           0           0           0
           0           0           0           0           0           0
           0           0           0           0           0           0
           0           0           0           0           0           0
           0           0           0           0
Num RLSW                                   I               40
RLSW                                       R   N=          40
  1.00000000E+00  1.00000000E+00  1.00000000E+00  1.00000000E+00  1.00000000E+00
  0.00000000E+00  0.00000000E+00  1.00000000E+00  0.00000000E+00  0.00000000E+00
  0.00000000E+00  0.00000000E+00  1.00000000E+00  0.00000000E+00  0.00000000E+00
  0.00000000E+00  0.00000000E+00  1.00000000E+00  0.00000000E+00  0.00000000E+00
  0.00000000E+00  0.00000000E+00  1.00000000E+00  0.00000000E+00  0.00000000E+00
  0.00000000E+00  0.00000000E+00  1.00000000E+00  0.00000000E+00  0.00000000E+00
  0.00000000E+00  0.00000000E+00  0.00000000E+00  0.00000000E+00  0.00000000E+00
  0.00000000E+00  0.00000000E+00  0.00000000E+00  1.00000000E+00  1.00000000E+00
MxBond                                     I                3
NBond                                      I   N=          12
           1           1           3           3           3           3
           3           3           1           1           1           1
IBond                                      I   N=          36
           4           0           0           5           0           0
           4           5           9           1           3           6
           2           3           7           4           8          10
           5           8          11           6           7          12
           3           0           0           6           0           0
           7           0           0           8           0           0
RBond                                      R   N=          36
  1.00000000E+00  0.00000000E+00  0.00000000E+00  1.00000000E+00  0.00000000E+00
  0.00000000E+00  1.50000000E+00  1.50000000E+00  1.00000000E+00  1.00000000E+00
  1.50000000E+00  1.50000000E+00  1.00000000E+00  1.50000000E+00  1.50000000E+00
  1.50000000E+00  1.50000000E+00  1.00000000E+00  1.50000000E+00  1.50000000E+00
  1.00000000E+00  1.50000000E+00  1.50000000E+00  1.00000000E+00  1.00000000E+00
  0.00000000E+00  0.00000000E+00  1.00000000E+00  0.00000000E+00  0.00000000E+00
  1.00000000E+00  0.00000000E+00  0.00000000E+00  1.00000000E+00  0.00000000E+00
  0.00000000E+00
Virial Ratio                               R      2.004423298939308E+00
SCF Energy                                 R     -5.369314096270684E+03
MP2 Energy                                 R     -5.370301858064811E+03
Total Energy                               R     -5.370301858064811E+03
Post-SCF wavefunction norm                 R      1.669208301486126E+00
RMS Force                                  R      1.091951715893685E-06
RMS Density                                R      2.533553070256975E-09
External E-field                           R   N=          35
  0.00000000E+00  0.00000000E+00  0.00000000E+00  0.00000000E+00  0.00000000E+00
  0.00000000E+00  0.00000000E+00  0.00000000E+00  0.00000000E+00  0.00000000E+00
  0.00000000E+00  0.00000000E+00  0.00000000E+00  0.00000000E+00  0.00000000E+00
  0.00000000E+00  0.00000000E+00  0.00000000E+00  0.00000000E+00  0.00000000E+00
  0.00000000E+00  0.00000000E+00  0.00000000E+00  0.00000000E+00  0.00000000E+00
  0.00000000E+00  0.00000000E+00  0.00000000E+00  0.00000000E+00  0.00000000E+00
  0.00000000E+00  0.00000000E+00  0.00000000E+00  0.00000000E+00  0.00000000E+00
IOpCl                                      I                0
IROHF                                      I                0
Alpha Orbital Energies                     R   N=         158
 -4.90073869E+02 -4.90073860E+02 -6.44854229E+01 -6.44853499E+01 -5.86248752E+01
 -5.86248541E+01 -5.86230645E+01 -5.86229446E+01 -5.86228987E+01 -5.86228926E+01
 -1.13179040E+01 -1.13178909E+01 -1.12721104E+01 -1.12682886E+01 -1.12672693E+01
 -1.12665943E+01 -9.73367324E+00 -9.73365117E+00 -7.48295865E+00 -7.48295835E+00
 -7.47402397E+00 -7.47402176E+00 -7.47400163E+00 -7.47400149E+00 -3.22190415E+00
 -3.22190284E+00 -3.21758200E+00 -3.21758173E+00 -3.21757853E+00 -3.21757784E+00
 -3.20719755E+00 -3.20719747E+00 -3.20719150E+00 -3.20719148E+00 -1.19334197E+00
 -1.09309007E+00 -1.06416691E+00 -9.91649552E-01 -9.73274545E-01 -8.48832011E-01
 -8.12528838E-01 -7.14993096E-01 -6.64922886E-01 -6.37172653E-01 -5.89658296E-01
 -5.87402783E-01 -5.52253900E-01 -5.16378734E-01 -4.95715806E-01 -4.64891575E-01
 -4.26231931E-01 -4.23516284E-01 -4.17399987E-01 -3.52403604E-01 -3.37890650E-01
  1.09589062E-01  1.11625455E-01  1.36227424E-01  1.90173573E-01  2.53610333E-01
  2.88296744E-01  2.99089791E-01  3.16294929E-01  3.23525791E-01  3.61897546E-01
  3.98031821E-01  4.30275471E-01  4.41627270E-01  4.68885795E-01  4.83734072E-01
  5.44031659E-01  6.04287074E-01  6.23853975E-01  6.42467266E-01  6.43561787E-01
  6.46161049E-01  6.48463629E-01  6.53188454E-01  6.65425329E-01  6.77669819E-01
  6.92924621E-01  6.97523245E-01  7.01721242E-01  7.07707457E-01  7.56860636E-01
  7.61335905E-01  7.66656963E-01  8.04927463E-01  8.05377370E-01  8.45309454E-01
  8.46630342E-01  8.58336058E-01  9.10681895E-01  9.40202322E-01  9.81234543E-01
  9.87227561E-01  9.99751170E-01  1.00854674E+00  1.01315593E+00  1.04577344E+00
  1.09955290E+00  1.11132917E+00  1.12377272E+00  1.12940506E+00  1.15974276E+00
  1.22843844E+00  1.23453842E+00  1.29076380E+00  1.35459715E+00  1.38075997E+00
  1.41914801E+00  1.45178659E+00  1.47514369E+00  1.53767033E+00  1.65586336E+00
  1.66561839E+00  1.68352069E+00  1.72197522E+00  1.73006651E+00  1.80677233E+00
  1.83685215E+00  1.84193610E+00  1.85008833E+00  2.02398496E+00  2.08871572E+00
  2.11040563E+00  2.18922159E+00  2.21565060E+00  2.25832187E+00  2.36859262E+00
  2.36898556E+00  2.42547937E+00  2.43028847E+00  2.43446554E+00  2.44867278E+00
  2.59400750E+00  2.59602882E+00  2.60937211E+00  2.82063091E+00  2.87863071E+00
  2.95727740E+00  2.97879262E+00  3.03521922E+00  3.06828222E+00  3.08363864E+00
  3.09317589E+00  3.36371468E+00  3.69529475E+00  4.46589417E+00  4.49065766E+00
  4.50518020E+00  4.71189243E+00  4.71736414E+00  5.05064030E+00  9.26788160E+00
  9.27287548E+00  7.44227565E+01  7.45263762E+01
Alpha MO coefficients                      R   N=       24964
  7.02351558E-01  2.31632636E-02 -3.12427119E-02 -3.36221608E-02 -1.84951859E-02
 -1.37978630E-02 -1.27571705E-05  7.45705704E-06 -1.33005383E-10  3.64321801E-05
 -2.13473446E-05  3.81680148E-10 -1.58333207E-04  9.28067732E-05 -1.65190794E-09
  3.72658369E-04 -1.85581205E-04  4.13104657E-09  3.11002587E-02  3.10974897E-02
  3.10895005E-02 -3.82667748E-07  2.04329661E-10  1.10909593E-10  7.67893992E-03
  7.72261445E-03  7.77310287E-03  1.14095223E-05 -1.67218126E-09 -5.62121517E-10
  7.04704003E-01  2.32408014E-02 -3.13472146E-02 -3.37345884E-02 -1.85572345E-02
 -1.38431048E-02  1.28057632E-05  7.48450705E-06  3.30796543E-10 -3.65760497E-05
 -2.14279680E-05 -9.37363299E-10  1.58971390E-04  9.31614728E-05  4.07796283E-09
 -3.73442835E-04 -1.86111745E-04 -9.39464981E-09  3.12042425E-02  3.12014859E-02
  3.11934624E-02  3.75133117E-07  2.50930258E-10  1.20314308E-10  7.70475291E-03
  7.74826562E-03  7.79898405E-03 -1.13348318E-05 -2.31069729E-09 -9.49559217E-10
  4.44637401E-06 -7.93743982E-05  9.94404591E-11  2.35399588E-06  2.63343029E-10
 -7.22967715E-04 -1.82212941E-06 -2.03804283E-04 -4.25447496E-09  1.68551745E-04
  9.85279779E-06  2.82274710E-05 -8.13028891E-08  2.89719898E-09 -4.13664382E-10
 -3.16025265E-05 -1.10939629E-04 -1.33014267E-04  7.47134853E-05 -1.45070377E-09
  6.40531506E-04 -1.96986929E-04 -2.74984588E-04 -5.80155908E-09 -1.13948535E-04
 -1.65583961E-04 -4.57378241E-05 -3.72691944E-05 -1.87437446E-09 -2.32188040E-09
 -3.17044043E-05 -1.11263701E-04  1.33292173E-04  7.48780957E-05  3.36725159E-09
  6.40157548E-04  1.97146075E-04 -2.73495662E-04  1.65069664E-09 -1.14378171E-04
 -1.66081222E-04 -4.59205615E-05  3.73799486E-05 -9.94896724E-10 -9.44704682E-10
  1.42753329E-06 -5.65402055E-05 -1.47419358E-05 -7.22339399E-06 -2.35297499E-10
 -2.87495085E-05  3.46551237E-04 -4.13063836E-04  6.44076327E-10  1.44526780E-05
  9.53135407E-05  1.37273013E-05 -2.94326079E-05 -2.93080619E-10  6.49687513E-10
  1.43109305E-06 -5.66625297E-05  1.47127718E-05 -7.17886553E-06  3.72080670E-10
 -3.05861600E-05 -3.47649242E-04 -4.14118148E-04 -1.18638966E-08  1.44480247E-05
  9.55653567E-05  1.37587523E-05  2.95465167E-05  2.57608391E-10  1.65840836E-09
  1.82169811E-06 -4.88054636E-06 -3.07710784E-08 -4.19239942E-05 -4.69143967E-10
  7.21123253E-04 -7.24301112E-07  1.08804267E-04  1.16451694E-09 -5.66244784E-06
  1.28472456E-05  1.54806798E-05  8.51578790E-09 -4.62390780E-10 -1.40099456E-10
 -9.69763486E-05  3.90506961E-04 -6.20191613E-05  1.70562350E-04 -6.21492770E-05
  1.71180115E-04 -4.17695792E-05 -1.22455622E-04  7.04701231E-01  2.32273618E-02
 -3.13050454E-02 -3.36790986E-02 -1.85871076E-02 -1.35537808E-02 -1.45504925E-05
  8.22311630E-06 -1.50959059E-10  4.30760401E-05 -2.41522241E-05  4.48859548E-10
 -1.91086980E-04  1.06268955E-04 -2.00394646E-09  2.35410489E-04 -1.59166274E-04
  2.13535921E-09  3.11496677E-02  3.11533624E-02  3.11430901E-02  2.24570867E-06
  1.57535326E-10  1.79695091E-10  7.73254911E-03  7.68428014E-03  7.75321272E-03
 -2.22500778E-05 -6.79360018E-10 -1.32992267E-09 -7.02348776E-01 -2.31497788E-02
  3.12004012E-02  3.35664847E-02  1.85251603E-02  1.35075659E-02 -1.45077601E-05
 -8.19813230E-06 -3.69924544E-10  4.29539989E-05  2.40806961E-05  1.08374807E-09
 -1.90556493E-04 -1.05957935E-04 -4.78807589E-09  2.34162537E-04  1.58544285E-04
  6.30173919E-09 -3.10455006E-02 -3.10492045E-02 -3.10389591E-02  2.24699514E-06
 -1.08925733E-10 -1.09257689E-10 -7.70682899E-03 -7.65841412E-03 -7.72717725E-03
 -2.22882782E-05  1.62826390E-10  6.21274981E-10  7.42311296E-09 -1.32674456E-07
  6.70786982E-09  3.96035153E-09 -1.28914591E-10 -1.20719342E-06  1.08964263E-03
 -3.40394135E-07  1.97743533E-08  2.81839126E-07  1.63363162E-08  4.72175753E-08
  4.86292408E-05  5.68602991E-10  9.37085975E-10 -3.05415569E-05 -9.74034104E-05
 -8.33274700E-05  4.93783471E-05 -8.51444136E-10 -1.10579867E-04 -4.78429780E-05
  4.44477119E-04  4.60887890E-09 -1.28464516E-04 -1.48939954E-04 -5.47205336E-05
 -3.33703329E-05 -1.82993821E-09 -1.84270750E-09  3.04356840E-05  9.70310856E-05
 -8.28821757E-05 -4.91282528E-05 -2.16566684E-09  1.12718696E-04 -4.71857437E-05
 -4.45394832E-04 -8.14363277E-09  1.28083541E-04  1.48385603E-04  5.45673917E-05
 -3.32449262E-05  1.19362930E-09  7.48197594E-10  1.06402195E-06 -3.66542281E-05
  8.75844257E-06  1.32545195E-05  3.22618948E-10 -5.48953161E-04  3.28555311E-04
 -3.16238034E-04  1.75988020E-09 -1.41612778E-06  7.54838197E-05  9.44019008E-06
 -3.41035268E-05 -6.12253104E-10  3.11785684E-10 -1.05926410E-06  3.64649367E-05
  8.80757464E-06 -1.32787182E-05 -1.93488638E-10  5.48857381E-04  3.27397295E-04