096_Benzonitrile Gaussian SP Calculation on node142.bme.utexas.edu      
Freq      RMP2-FC                                                     6-31G(d)            
Number of atoms                            I               13
Info1-9                                    I   N=           9
          24          23        1002           0           0         100
           6           2           1
Charge                                     I                0
Multiplicity                               I                1
Number of electrons                        I               54
Number of alpha electrons                  I               27
Number of beta electrons                   I               27
Number of basis functions                  I              130
Number of independent functions            I              130
Number of point charges in /Mol/           I                0
Number of translation vectors              I                0
Atomic numbers                             I   N=          13
           7           6           6           6           6           6
           6           6           1           1           1           1
           1
Nuclear charges                            R   N=          13
  7.00000000E+00  6.00000000E+00  6.00000000E+00  6.00000000E+00  6.00000000E+00
  6.00000000E+00  6.00000000E+00  6.00000000E+00  1.00000000E+00  1.00000000E+00
  1.00000000E+00  1.00000000E+00  1.00000000E+00
Current cartesian coordinates              R   N=          39
  6.09170694E+00 -7.30486402E-07 -1.36660994E-04  1.14085101E+00  2.74249899E-06
 -2.30606713E-05 -1.73112933E-01  2.30326962E+00  3.55710837E-06 -1.73109326E-01
 -2.30326725E+00  3.54357877E-06 -2.80694685E+00  2.28752654E+00  6.20066752E-05
 -2.80694286E+00 -2.28752928E+00  6.19969604E-05 -4.12558744E+00 -2.30534414E-06
  9.12103595E-05  3.85495449E+00  1.32650117E-06 -8.38358713E-05  8.71198471E-01
  4.07174024E+00 -1.96061226E-05  8.71206467E-01 -4.07173524E+00 -1.96304524E-05
 -3.83257734E+00  4.06707156E+00  8.35237473E-05 -3.83257062E+00 -4.06707587E+00
  8.35060768E-05 -6.17984214E+00 -3.96986246E-06  1.36324872E-04
Force Field                                I                0
Int Atom Types                             I   N=          13
           0           0           0           0           0           0
           0           0           0           0           0           0
           0
MM charges                                 R   N=          13
  0.00000000E+00  0.00000000E+00  0.00000000E+00  0.00000000E+00  0.00000000E+00
  0.00000000E+00  0.00000000E+00  0.00000000E+00  0.00000000E+00  0.00000000E+00
  0.00000000E+00  0.00000000E+00  0.00000000E+00
Integer atomic weights                     I   N=          13
          14          12          12          12          12          12
          12          12           1           1           1           1
           1
Real atomic weights                        R   N=          13
  1.40030740E+01  1.20000000E+01  1.20000000E+01  1.20000000E+01  1.20000000E+01
  1.20000000E+01  1.20000000E+01  1.20000000E+01  1.00782504E+00  1.00782504E+00
  1.00782504E+00  1.00782504E+00  1.00782504E+00
Atom fragment info                         I   N=          13
           0           0           0           0           0           0
           0           0           0           0           0           0
           0
Atom residue num                           I   N=          13
           0           0           0           0           0           0
           0           0           0           0           0           0
           0
Nuclear spins                              I   N=          13
           2           0           0           0           0           0
           0           0           1           1           1           1
           1
Nuclear ZEff                               R   N=          13
 -4.55000000E+00 -3.60000000E+00 -3.60000000E+00 -3.60000000E+00 -3.60000000E+00
 -3.60000000E+00 -3.60000000E+00 -3.60000000E+00 -1.00000000E+00 -1.00000000E+00
 -1.00000000E+00 -1.00000000E+00 -1.00000000E+00
Nuclear QMom                               R   N=          13
  2.04400000E+00  0.00000000E+00  0.00000000E+00  0.00000000E+00  0.00000000E+00
  0.00000000E+00  0.00000000E+00  0.00000000E+00  0.00000000E+00  0.00000000E+00
  0.00000000E+00  0.00000000E+00  0.00000000E+00
Nuclear GFac                               R   N=          13
  4.03761000E-01  0.00000000E+00  0.00000000E+00  0.00000000E+00  0.00000000E+00
  0.00000000E+00  0.00000000E+00  0.00000000E+00  2.79284600E+00  2.79284600E+00
  2.79284600E+00  2.79284600E+00  2.79284600E+00
MicOpt                                     I   N=          13
          -1          -1          -1          -1          -1          -1
          -1          -1          -1          -1          -1          -1
          -1
Number of contracted shells                I               42
Number of primitive shells                 I              108
Pure/Cartesian d shells                    I                1
Pure/Cartesian f shells                    I                0
Highest angular momentum                   I                2
Largest degree of contraction              I                6
Shell types                                I   N=          42
           0          -1          -1           2           0          -1
          -1           2           0          -1          -1           2
           0          -1          -1           2           0          -1
          -1           2           0          -1          -1           2
           0          -1          -1           2           0          -1
          -1           2           0           0           0           0
           0           0           0           0           0           0
Number of primitives per shell             I   N=          42
           6           3           1           1           6           3
           1           1           6           3           1           1
           6           3           1           1           6           3
           1           1           6           3           1           1
           6           3           1           1           6           3
           1           1           3           1           3           1
           3           1           3           1           3           1
Shell to atom map                          I   N=          42
           1           1           1           1           2           2
           2           2           3           3           3           3
           4           4           4           4           5           5
           5           5           6           6           6           6
           7           7           7           7           8           8
           8           8           9           9          10          10
          11          11          12          12          13          13
Primitive exponents                        R   N=         108
  4.17351146E+03  6.27457911E+02  1.42902093E+02  4.02343293E+01  1.28202129E+01
  4.39043701E+00  1.16263619E+01  2.71627981E+00  7.72218397E-01  2.12031498E-01
  8.00000000E-01  3.04752488E+03  4.57369518E+02  1.03948685E+02  2.92101553E+01
  9.28666296E+00  3.16392696E+00  7.86827235E+00  1.88128854E+00  5.44249258E-01
  1.68714478E-01  8.00000000E-01  3.04752488E+03  4.57369518E+02  1.03948685E+02
  2.92101553E+01  9.28666296E+00  3.16392696E+00  7.86827235E+00  1.88128854E+00
  5.44249258E-01  1.68714478E-01  8.00000000E-01  3.04752488E+03  4.57369518E+02
  1.03948685E+02  2.92101553E+01  9.28666296E+00  3.16392696E+00  7.86827235E+00
  1.88128854E+00  5.44249258E-01  1.68714478E-01  8.00000000E-01  3.04752488E+03
  4.57369518E+02  1.03948685E+02  2.92101553E+01  9.28666296E+00  3.16392696E+00
  7.86827235E+00  1.88128854E+00  5.44249258E-01  1.68714478E-01  8.00000000E-01
  3.04752488E+03  4.57369518E+02  1.03948685E+02  2.92101553E+01  9.28666296E+00
  3.16392696E+00  7.86827235E+00  1.88128854E+00  5.44249258E-01  1.68714478E-01
  8.00000000E-01  3.04752488E+03  4.57369518E+02  1.03948685E+02  2.92101553E+01
  9.28666296E+00  3.16392696E+00  7.86827235E+00  1.88128854E+00  5.44249258E-01
  1.68714478E-01  8.00000000E-01  3.04752488E+03  4.57369518E+02  1.03948685E+02
  2.92101553E+01  9.28666296E+00  3.16392696E+00  7.86827235E+00  1.88128854E+00
  5.44249258E-01  1.68714478E-01  8.00000000E-01  1.87311370E+01  2.82539436E+00
  6.40121692E-01  1.61277759E-01  1.87311370E+01  2.82539436E+00  6.40121692E-01
  1.61277759E-01  1.87311370E+01  2.82539436E+00  6.40121692E-01  1.61277759E-01
  1.87311370E+01  2.82539436E+00  6.40121692E-01  1.61277759E-01  1.87311370E+01
  2.82539436E+00  6.40121692E-01  1.61277759E-01
Contraction coefficients                   R   N=         108
  1.83477216E-03  1.39946270E-02  6.85865518E-02  2.32240873E-01  4.69069948E-01
  3.60455199E-01 -1.14961182E-01 -1.69117479E-01  1.14585195E+00  1.00000000E+00
  1.00000000E+00  1.83473713E-03  1.40373228E-02  6.88426223E-02  2.32184443E-01
  4.67941348E-01  3.62311985E-01 -1.19332420E-01 -1.60854152E-01  1.14345644E+00
  1.00000000E+00  1.00000000E+00  1.83473713E-03  1.40373228E-02  6.88426223E-02
  2.32184443E-01  4.67941348E-01  3.62311985E-01 -1.19332420E-01 -1.60854152E-01
  1.14345644E+00  1.00000000E+00  1.00000000E+00  1.83473713E-03  1.40373228E-02
  6.88426223E-02  2.32184443E-01  4.67941348E-01  3.62311985E-01 -1.19332420E-01
 -1.60854152E-01  1.14345644E+00  1.00000000E+00  1.00000000E+00  1.83473713E-03
  1.40373228E-02  6.88426223E-02  2.32184443E-01  4.67941348E-01  3.62311985E-01
 -1.19332420E-01 -1.60854152E-01  1.14345644E+00  1.00000000E+00  1.00000000E+00
  1.83473713E-03  1.40373228E-02  6.88426223E-02  2.32184443E-01  4.67941348E-01
  3.62311985E-01 -1.19332420E-01 -1.60854152E-01  1.14345644E+00  1.00000000E+00
  1.00000000E+00  1.83473713E-03  1.40373228E-02  6.88426223E-02  2.32184443E-01
  4.67941348E-01  3.62311985E-01 -1.19332420E-01 -1.60854152E-01  1.14345644E+00
  1.00000000E+00  1.00000000E+00  1.83473713E-03  1.40373228E-02  6.88426223E-02
  2.32184443E-01  4.67941348E-01  3.62311985E-01 -1.19332420E-01 -1.60854152E-01
  1.14345644E+00  1.00000000E+00  1.00000000E+00  3.34946043E-02  2.34726953E-01
  8.13757326E-01  1.00000000E+00  3.34946043E-02  2.34726953E-01  8.13757326E-01
  1.00000000E+00  3.34946043E-02  2.34726953E-01  8.13757326E-01  1.00000000E+00
  3.34946043E-02  2.34726953E-01  8.13757326E-01  1.00000000E+00  3.34946043E-02
  2.34726953E-01  8.13757326E-01  1.00000000E+00
P(S=P) Contraction coefficients            R   N=         108
  0.00000000E+00  0.00000000E+00  0.00000000E+00  0.00000000E+00  0.00000000E+00
  0.00000000E+00  6.75797439E-02  3.23907296E-01  7.40895140E-01  1.00000000E+00
  0.00000000E+00  0.00000000E+00  0.00000000E+00  0.00000000E+00  0.00000000E+00
  0.00000000E+00  0.00000000E+00  6.89990666E-02  3.16423961E-01  7.44308291E-01
  1.00000000E+00  0.00000000E+00  0.00000000E+00  0.00000000E+00  0.00000000E+00
  0.00000000E+00  0.00000000E+00  0.00000000E+00  6.89990666E-02  3.16423961E-01
  7.44308291E-01  1.00000000E+00  0.00000000E+00  0.00000000E+00  0.00000000E+00
  0.00000000E+00  0.00000000E+00  0.00000000E+00  0.00000000E+00  6.89990666E-02
  3.16423961E-01  7.44308291E-01  1.00000000E+00  0.00000000E+00  0.00000000E+00
  0.00000000E+00  0.00000000E+00  0.00000000E+00  0.00000000E+00  0.00000000E+00
  6.89990666E-02  3.16423961E-01  7.44308291E-01  1.00000000E+00  0.00000000E+00
  0.00000000E+00  0.00000000E+00  0.00000000E+00  0.00000000E+00  0.00000000E+00
  0.00000000E+00  6.89990666E-02  3.16423961E-01  7.44308291E-01  1.00000000E+00
  0.00000000E+00  0.00000000E+00  0.00000000E+00  0.00000000E+00  0.00000000E+00
  0.00000000E+00  0.00000000E+00  6.89990666E-02  3.16423961E-01  7.44308291E-01
  1.00000000E+00  0.00000000E+00  0.00000000E+00  0.00000000E+00  0.00000000E+00
  0.00000000E+00  0.00000000E+00  0.00000000E+00  6.89990666E-02  3.16423961E-01
  7.44308291E-01  1.00000000E+00  0.00000000E+00  0.00000000E+00  0.00000000E+00
  0.00000000E+00  0.00000000E+00  0.00000000E+00  0.00000000E+00  0.00000000E+00
  0.00000000E+00  0.00000000E+00  0.00000000E+00  0.00000000E+00  0.00000000E+00
  0.00000000E+00  0.00000000E+00  0.00000000E+00  0.00000000E+00  0.00000000E+00
  0.00000000E+00  0.00000000E+00  0.00000000E+00
Coordinates of each shell                  R   N=         126
  6.09170694E+00 -7.30486402E-07 -1.36660994E-04  6.09170694E+00 -7.30486402E-07
 -1.36660994E-04  6.09170694E+00 -7.30486402E-07 -1.36660994E-04  6.09170694E+00
 -7.30486402E-07 -1.36660994E-04  1.14085101E+00  2.74249899E-06 -2.30606713E-05
  1.14085101E+00  2.74249899E-06 -2.30606713E-05  1.14085101E+00  2.74249899E-06
 -2.30606713E-05  1.14085101E+00  2.74249899E-06 -2.30606713E-05 -1.73112933E-01
  2.30326962E+00  3.55710837E-06 -1.73112933E-01  2.30326962E+00  3.55710837E-06
 -1.73112933E-01  2.30326962E+00  3.55710837E-06 -1.73112933E-01  2.30326962E+00
  3.55710837E-06 -1.73109326E-01 -2.30326725E+00  3.54357877E-06 -1.73109326E-01
 -2.30326725E+00  3.54357877E-06 -1.73109326E-01 -2.30326725E+00  3.54357877E-06
 -1.73109326E-01 -2.30326725E+00  3.54357877E-06 -2.80694685E+00  2.28752654E+00
  6.20066752E-05 -2.80694685E+00  2.28752654E+00  6.20066752E-05 -2.80694685E+00
  2.28752654E+00  6.20066752E-05 -2.80694685E+00  2.28752654E+00  6.20066752E-05
 -2.80694286E+00 -2.28752928E+00  6.19969604E-05 -2.80694286E+00 -2.28752928E+00
  6.19969604E-05 -2.80694286E+00 -2.28752928E+00  6.19969604E-05 -2.80694286E+00
 -2.28752928E+00  6.19969604E-05 -4.12558744E+00 -2.30534414E-06  9.12103595E-05
 -4.12558744E+00 -2.30534414E-06  9.12103595E-05 -4.12558744E+00 -2.30534414E-06
  9.12103595E-05 -4.12558744E+00 -2.30534414E-06  9.12103595E-05  3.85495449E+00
  1.32650117E-06 -8.38358713E-05  3.85495449E+00  1.32650117E-06 -8.38358713E-05
  3.85495449E+00  1.32650117E-06 -8.38358713E-05  3.85495449E+00  1.32650117E-06
 -8.38358713E-05  8.71198471E-01  4.07174024E+00 -1.96061226E-05  8.71198471E-01
  4.07174024E+00 -1.96061226E-05  8.71206467E-01 -4.07173524E+00 -1.96304524E-05
  8.71206467E-01 -4.07173524E+00 -1.96304524E-05 -3.83257734E+00  4.06707156E+00
  8.35237473E-05 -3.83257734E+00  4.06707156E+00  8.35237473E-05 -3.83257062E+00
 -4.06707587E+00  8.35060768E-05 -3.83257062E+00 -4.06707587E+00  8.35060768E-05
 -6.17984214E+00 -3.96986246E-06  1.36324872E-04 -6.17984214E+00 -3.96986246E-06
  1.36324872E-04
Constraint Structure                       R   N=          39
  6.09170694E+00 -7.30486402E-07 -1.36660994E-04  1.14085101E+00  2.74249899E-06
 -2.30606713E-05 -1.73112933E-01  2.30326962E+00  3.55710837E-06 -1.73109326E-01
 -2.30326725E+00  3.54357877E-06 -2.80694685E+00  2.28752654E+00  6.20066752E-05
 -2.80694286E+00 -2.28752928E+00  6.19969604E-05 -4.12558744E+00 -2.30534414E-06
  9.12103595E-05  3.85495449E+00  1.32650117E-06 -8.38358713E-05  8.71198471E-01
  4.07174024E+00 -1.96061226E-05  8.71206467E-01 -4.07173524E+00 -1.96304524E-05
 -3.83257734E+00  4.06707156E+00  8.35237473E-05 -3.83257062E+00 -4.06707587E+00
  8.35060768E-05 -6.17984214E+00 -3.96986246E-06  1.36324872E-04
Num ILSW                                   I              100
ILSW                                       I   N=         100
           0           1           0           0           2           0
           0           0           0           0           0          -1
           0           0           0           0           0           0
           0           0           0           0           1           0
           1           0           0           0           0           0
           0           0      100000           0          -1           0
           0           0           0           0           0           0
           0           0           0           1           1           0
           0           0           1           0           0           0
           0           0           4          40           0           0
           0           0           0           0           0           0
           0           0           0           0           0           0
           0           0           0           0           0           0
           0           0           0           0           0           0
           0           0           0           0           0           0
           0           0           0           0           0           0
           0           0           0           0
Num RLSW                                   I               40
RLSW                                       R   N=          40
  1.00000000E+00  1.00000000E+00  1.00000000E+00  1.00000000E+00  1.00000000E+00
  0.00000000E+00  0.00000000E+00  1.00000000E+00  0.00000000E+00  0.00000000E+00
  0.00000000E+00  0.00000000E+00  1.00000000E+00  0.00000000E+00  0.00000000E+00
  0.00000000E+00  0.00000000E+00  1.00000000E+00  0.00000000E+00  0.00000000E+00
  0.00000000E+00  0.00000000E+00  1.00000000E+00  0.00000000E+00  0.00000000E+00
  0.00000000E+00  0.00000000E+00  1.00000000E+00  0.00000000E+00  0.00000000E+00
  0.00000000E+00  0.00000000E+00  0.00000000E+00  0.00000000E+00  0.00000000E+00
  0.00000000E+00  0.00000000E+00  0.00000000E+00  1.00000000E+00  1.00000000E+00
MxBond                                     I                3
NBond                                      I   N=          13
           1           3           3           3           3           3
           3           2           1           1           1           1
           1
IBond                                      I   N=          39
           8           0           0           3           4           8
           2           5           9           2           6          10
           3           7          11           4           7          12
           5           6          13           1           2           0
           3           0           0           4           0           0
           5           0           0           6           0           0
           7           0           0
RBond                                      R   N=          39
  3.00000000E+00  0.00000000E+00  0.00000000E+00  1.50000000E+00  1.50000000E+00
  1.50000000E+00  1.50000000E+00  1.50000000E+00  1.00000000E+00  1.50000000E+00
  1.50000000E+00  1.00000000E+00  1.50000000E+00  1.50000000E+00  1.00000000E+00
  1.50000000E+00  1.50000000E+00  1.00000000E+00  1.50000000E+00  1.50000000E+00
  1.00000000E+00  3.00000000E+00  1.50000000E+00  0.00000000E+00  1.00000000E+00
  0.00000000E+00  0.00000000E+00  1.00000000E+00  0.00000000E+00  0.00000000E+00
  1.00000000E+00  0.00000000E+00  0.00000000E+00  1.00000000E+00  0.00000000E+00
  0.00000000E+00  1.00000000E+00  0.00000000E+00  0.00000000E+00
Virial Ratio                               R      2.002787491362144E+00
SCF Energy                                 R     -3.224318123127945E+02
MP2 Energy                                 R     -3.234722277273748E+02
Total Energy                               R     -3.234722277273748E+02
Post-SCF wavefunction norm                 R      1.668122014419348E+00
RMS Force                                  R      1.774735190763727E-06
RMS Density                                R      2.372522258782456E-09
External E-field                           R   N=          35
  0.00000000E+00  0.00000000E+00  0.00000000E+00  0.00000000E+00  0.00000000E+00
  0.00000000E+00  0.00000000E+00  0.00000000E+00  0.00000000E+00  0.00000000E+00
  0.00000000E+00  0.00000000E+00  0.00000000E+00  0.00000000E+00  0.00000000E+00
  0.00000000E+00  0.00000000E+00  0.00000000E+00  0.00000000E+00  0.00000000E+00
  0.00000000E+00  0.00000000E+00  0.00000000E+00  0.00000000E+00  0.00000000E+00
  0.00000000E+00  0.00000000E+00  0.00000000E+00  0.00000000E+00  0.00000000E+00
  0.00000000E+00  0.00000000E+00  0.00000000E+00  0.00000000E+00  0.00000000E+00
IOpCl                                      I                0
IROHF                                      I                0
Alpha Orbital Energies                     R   N=         130
 -1.55847507E+01 -1.12913877E+01 -1.12869558E+01 -1.12729460E+01 -1.12729005E+01
 -1.12679157E+01 -1.12624812E+01 -1.12623518E+01 -1.21038340E+00 -1.17446160E+00
 -1.05728329E+00 -1.04238335E+00 -8.82686502E-01 -8.54253681E-01 -7.60290803E-01
 -6.95866852E-01 -6.54569841E-01 -6.32996145E-01 -6.14295535E-01 -5.60259705E-01
 -5.45993046E-01 -5.29606078E-01 -5.25933126E-01 -4.70299582E-01 -4.53759595E-01
 -3.60619245E-01 -3.51532550E-01  8.20536506E-02  1.17544056E-01  2.02521687E-01
  2.12978612E-01  2.55853177E-01  2.70911066E-01  2.76998309E-01  3.08846750E-01
  3.25204818E-01  3.65025745E-01  3.66334623E-01  4.49959858E-01  4.51301044E-01
  4.73323933E-01  5.08690996E-01  5.61853020E-01  6.41091930E-01  7.13133461E-01
  7.17739107E-01  7.47890981E-01  7.52449183E-01  7.65888139E-01  7.84691422E-01
  7.99050286E-01  8.02609195E-01  8.12468336E-01  8.15740054E-01  8.58763173E-01
  8.61148989E-01  8.71347995E-01  8.83369562E-01  9.31239040E-01  9.53877159E-01
  9.93461416E-01  1.04416381E+00  1.08440841E+00  1.08479072E+00  1.09887495E+00
  1.09888761E+00  1.12086017E+00  1.13230081E+00  1.14161833E+00  1.18344161E+00
  1.21251511E+00  1.23713849E+00  1.29301982E+00  1.34249491E+00  1.38276487E+00
  1.41155514E+00  1.43131238E+00  1.47599055E+00  1.51310858E+00  1.57941890E+00
  1.66156855E+00  1.67434174E+00  1.68246336E+00  1.70995675E+00  1.74138712E+00
  1.76047573E+00  1.80199746E+00  1.81380038E+00  1.84952195E+00  2.03371719E+00
  2.07940659E+00  2.09056913E+00  2.11009699E+00  2.13773874E+00  2.22744646E+00
  2.25509020E+00  2.27038391E+00  2.27347518E+00  2.31140438E+00  2.35433990E+00
  2.37518497E+00  2.42662531E+00  2.43627442E+00  2.44817518E+00  2.45476905E+00
  2.58696614E+00  2.60478206E+00  2.60729216E+00  2.81181834E+00  2.82145770E+00
  2.90323187E+00  2.96457637E+00  2.96501221E+00  3.04489262E+00  3.05894410E+00
  3.05924707E+00  3.12547389E+00  3.15928553E+00  3.21944704E+00  3.50467017E+00
  3.60380854E+00  3.80054494E+00  4.44680346E+00  4.48643578E+00  4.51054485E+00
  4.54765414E+00  4.69445225E+00  4.72124507E+00  4.90634733E+00  5.18607502E+00
Alpha MO coefficients                      R   N=       16900
  9.95409945E-01  2.44256677E-02 -2.53336771E-03  2.39302705E-09  6.03474872E-08
 -8.10047822E-03  2.92776784E-03 -2.85697355E-09 -7.02854822E-08 -1.64330739E-03
 -3.09844920E-03 -3.07252904E-03 -1.47433786E-09 -3.87727383E-08 -9.10085073E-14
 -2.74650243E-06 -2.68779189E-04  2.09577304E-04 -1.02521664E-10 -4.87380031E-09
  4.20737703E-03  3.60911138E-03 -1.30769985E-09 -7.77850797E-08  5.15772443E-04
  3.18337424E-05 -7.02769775E-06 -2.42207399E-10 -1.30774868E-08  1.47279325E-13
 -1.09732046E-05 -4.12962550E-05  1.63858180E-06  3.59692311E-06 -8.97512589E-11
  6.20095370E-04 -4.76380894E-04 -3.89921451E-04  1.04723005E-08 -7.10881588E-06
 -2.24998634E-05 -2.82281274E-05  2.26143722E-05 -6.30131514E-10 -4.67428794E-10
 -1.09732417E-05 -4.12966667E-05  1.63879676E-06 -3.59665850E-06 -8.98042604E-11
  6.20094746E-04 -4.76382691E-04  3.89918783E-04  1.04748774E-08 -7.10852291E-06
 -2.24996588E-05 -2.82281920E-05 -2.26142804E-05 -6.30325501E-10  4.67445107E-10
 -8.64168550E-06 -4.84288467E-05 -2.54399480E-05  2.10135008E-05  5.33661692E-10
 -2.65154337E-04 -5.41968436E-05 -1.81987226E-04  1.53552778E-09 -2.37328848E-06
  6.75173723E-06 -2.60982854E-05 -1.15803916E-05 -5.53710364E-10  2.05434889E-10
 -8.64164165E-06 -4.84285864E-05 -2.54399234E-05 -2.10135157E-05  5.33605610E-10
 -2.65155750E-04 -5.41985517E-05  1.81986926E-04  1.53676591E-09 -2.37340835E-06
  6.75180024E-06 -2.60981777E-05  1.15803264E-05 -5.53603817E-10 -2.05218046E-10
 -6.54755502E-06 -2.76375433E-05 -3.10326090E-05 -6.34461687E-11  6.52680021E-10
 -1.00197543E-04  8.65551678E-05  4.09268834E-10 -1.93495083E-09 -8.33564052E-06
  9.03747905E-07 -2.21124308E-05 -1.18953661E-11 -3.21184310E-10  7.37161469E-14
  9.56608770E-05  4.22028855E-04 -7.70182193E-04  8.70925395E-10  1.84639535E-08
  1.15287926E-03  7.28286654E-03 -6.09588697E-09 -1.68821165E-07 -1.42900945E-03
  1.49722588E-04  1.31048621E-04  1.46264073E-09  4.18751664E-08  3.39441307E-14
  4.12747173E-05  1.72521768E-04  4.12749397E-05  1.72520664E-04  1.55626482E-05
  1.11867882E-04  1.55626310E-05  1.11867623E-04  1.12792655E-05  5.90708342E-05
  1.74562064E-05  4.07110701E-04 -2.16947177E-04  3.68616574E-10  5.25870152E-09
 -2.69105467E-03  1.05569626E-03 -1.21897109E-09 -2.39324607E-08  2.96400589E-04
  1.44931321E-04  1.30413963E-04 -3.58630626E-10 -4.94913893E-09  5.96944637E-14
  9.90198710E-01  2.75595410E-02  7.33318016E-04 -1.82138553E-10 -1.84499341E-08
 -1.32779422E-02  3.97012045E-04  2.35911929E-09  8.89881250E-10 -1.53410796E-03
 -1.51703829E-03 -2.24910747E-03 -2.10812976E-09 -1.80133415E-08  2.44288133E-12
  2.99303807E-02  6.45704638E-04 -6.56848140E-05  1.42913391E-04  1.29102467E-09
  4.22997042E-03  6.64514965E-04 -1.71292637E-03 -1.59014649E-08 -3.94316906E-04
 -4.45988074E-04 -1.84928709E-04  1.02869414E-04  4.95138088E-09 -1.53085426E-09
  2.99302377E-02  6.45701783E-04 -6.56839229E-05 -1.42912561E-04  1.29012241E-09
  4.22997569E-03  6.64507332E-04  1.71292810E-03 -1.58912991E-08 -3.94316602E-04
 -4.45988086E-04 -1.84928434E-04 -1.02869969E-04  4.95083663E-09  1.52911443E-09
  4.91495023E-04 -2.07425691E-05  1.95827900E-05 -6.30957956E-06 -5.75823713E-10
 -1.19537203E-03 -2.18597501E-04  7.91928469E-04  5.84284211E-09  1.18587922E-04
  4.11737792E-05  2.00174636E-05 -3.79494791E-05 -2.37869162E-09  6.93103694E-10
  4.91492341E-04 -2.07422362E-05  1.95826565E-05  6.30955010E-06 -5.75941481E-10
 -1.19537639E-03 -2.18599768E-04 -7.91929357E-04  5.84001558E-09  1.18587724E-04
  4.11739901E-05  2.00175153E-05  3.79493385E-05 -2.37860593E-09 -6.92713146E-10
 -4.23715884E-04 -1.30552547E-04 -2.10078667E-05 -5.25369437E-11  4.68570774E-10
  1.52958973E-03  8.62483059E-04  1.44282557E-09 -1.96196449E-08 -7.37329057E-07
 -3.34860525E-06 -4.99144652E-05  2.78520537E-11 -1.27722559E-09  1.77271443E-13
  9.46131648E-02  2.86778018E-03  1.01739195E-04  2.54938832E-11 -2.08838194E-09
  3.81048535E-03  6.63402301E-04 -1.84753304E-10 -1.94983612E-08 -1.07016550E-03
 -4.73043809E-04 -3.07474782E-04 -3.29599763E-10  1.98258669E-08 -5.53473148E-13
 -6.32091856E-05 -8.78927918E-06 -6.32089538E-05 -8.78943133E-06 -3.58257898E-05
 -1.21978611E-04 -3.58257700E-05 -1.21979214E-04  1.87915701E-05  2.15861370E-04
 -6.44407370E-04  5.17012140E-04  1.56815260E-04 -8.67704232E-11 -3.59877637E-09
 -1.13327062E-02  3.80617193E-03 -5.22982218E-09 -9.46150222E-08  3.36126340E-04
  3.14316432E-04  3.07292494E-04  4.78407342E-10  5.26724439E-10  1.19924646E-14
 -9.49567970E-02 -2.88464200E-03 -5.81726813E-04 -4.83699919E-10  1.29266485E-08
  1.31522171E-02  6.00342497E-03  1.55150679E-08 -1.32273335E-07 -1.00383056E-03
 -2.29422738E-04 -9.77671812E-05  7.51366698E-10  2.34004055E-08 -5.12014808E-13
 -4.01494472E-03 -2.57444278E-04 -1.77310464E-04 -3.33810483E-06  3.94255956E-09
 -2.22689697E-03  1.64133252E-03  1.02829552E-04 -3.68555989E-08 -1.51563530E-05
  2.54350469E-04 -7.40489286E-05 -1.97962852E-05 -1.50285125E-09  1.91389744E-10
 -4.01492159E-03 -2.57446886E-04 -1.77310585E-04  3.33744120E-06  3.94246953E-09
 -2.22687785E-03  1.64135661E-03 -1.02815913E-04 -3.68583460E-08 -1.51548169E-05
  2.54349766E-04 -7.40496815E-05  1.97963672E-05 -1.50250200E-09 -1.89291212E-10
 -1.26747260E-04 -2.87903970E-04 -9.82418435E-07  1.79087860E-05 -8.80886475E-12
  3.31736404E-03  1.59230365E-03 -1.15994424E-03 -3.47438689E-08  4.60031546E-05
 -1.99493919E-05 -1.15581190E-04 -3.91782829E-06 -4.08909541E-09  7.02160013E-11
 -1.26746491E-04 -2.87903622E-04 -9.82527636E-07 -1.79083782E-05 -8.81626205E-12
  3.31737044E-03  1.59230922E-03  1.15993939E-03 -3.47413564E-08  4.60028840E-05
 -1.99493099E-05 -1.15580978E-04  3.91808574E-06 -4.08933940E-09 -6.98502348E-11
  6.92213678E-05  6.59409883E-05 -2.11061003E-05 -1.17529721E-10  4.64755642E-10
 -1.76327036E-03 -1.40224116E-03 -4.67336620E-09  3.08998841E-08  2.44059145E-06
 -3.55489098E-06 -2.15090161E-06 -1.00280965E-10 -7.43272196E-11 -1.00727991E-13
  9.91165911E-01  2.73381200E-02 -6.79534398E-04 -1.34174536E-09  1.47833203E-08
 -7.71330684E-03  1.45172287E-02 -9.14673514E-09 -3.30941221E-07  2.50957717E-05
 -2.56160260E-03 -2.52558105E-03 -1.76239791E-09 -6.82860233E-08 -7.14322110E-14
 -1.55359029E-04  1.09155368E-04 -1.55360241E-04  1.09153605E-04  1.19524635E-05
  4.99771469E-04  1.19518993E-05  4.99770128E-04 -7.81978268E-05 -3.00787197E-04
 -3.68357079E-09 -2.43422140E-08  3.58219743E-08  1.00746758E-05 -8.26757412E-13
  1.14106648E-07  1.37310917E-08 -1.20793817E-05 -4.27180146E-13 -4.23757020E-08
  4.27958086E-09  9.26254326E-09 -1.07721403E-05  1.43994559E-12  2.93057224E-10
 -2.20927289E-05 -7.33376765E-07  7.65062924E-08 -2.16869872E-04 -1.97395077E-12
  4.71446288E-06 -2.43906499E-06  2.01027915E-03  5.66719233E-11 -2.51073135E-07
 -3.48019926E-07 -4.88708334E-08  1.43333971E-04  5.51210968E-12 -2.42340329E-09
  7.03221273E-01  1.95760473E-02 -4.68080200E-05 -2.63231145E-04  1.70579730E-09
 -9.02532488E-03  4.62495355E-04  1.22208908E-03 -1.19459809E-08 -1.12904332E-03
 -1.28697072E-03 -1.65442712E-03 -7.14910717E-05 -1.33444316E-08  1.34674316E-09
 -7.02509290E-01 -1.95562130E-02  4.67702311E-05 -2.62984288E-04 -1.70625282E-09
  9.01210010E-03 -4.60762078E-04  1.21880206E-03  1.19139194E-08  1.12799703E-03
  1.28585403E-03  1.65278600E-03 -7.13727767E-05  1.33299340E-08  1.34179571E-09
  4.04848362E-02  1.04356354E-03 -9.86601087E-05  8.77854411E-06  2.15384591E-09
  2.47912067E-03  1.15683328E-03 -3.76161461E-04 -2.51106764E-08 -4.11660480E-04
 -2.64929336E-04 -1.50712127E-04 -3.88105760E-05  6.75805913E-09  9.16842867E-10
 -4.04448289E-02 -1.04275745E-03  9.85372546E-05  8.73044818E-06 -2.15126235E-09