
    -----------------------------------------------------------------------
          Psi4: An Open-Source Ab Initio Electronic Structure Package
                               Psi4 1.3.2 release

                         Git: Rev {HEAD} ecbda83 


    R. M. Parrish, L. A. Burns, D. G. A. Smith, A. C. Simmonett,
    A. E. DePrince III, E. G. Hohenstein, U. Bozkaya, A. Yu. Sokolov,
    R. Di Remigio, R. M. Richard, J. F. Gonthier, A. M. James,
    H. R. McAlexander, A. Kumar, M. Saitow, X. Wang, B. P. Pritchard,
    P. Verma, H. F. Schaefer III, K. Patkowski, R. A. King, E. F. Valeev,
    F. A. Evangelista, J. M. Turney, T. D. Crawford, and C. D. Sherrill,
    J. Chem. Theory Comput. 13(7) pp 3185--3197 (2017).
    (doi: 10.1021/acs.jctc.7b00174)


                         Additional Contributions by
    P. Kraus, H. Kruse, M. H. Lechner, M. C. Schieber, R. A. Shaw,
    A. Alenaizan, R. Galvelis, Z. L. Glick, S. Lehtola, and J. P. Misiewicz

    -----------------------------------------------------------------------


    Psi4 started on: Monday, 09 November 2020 03:40AM

    Process ID: 26027
    Host:       node37.bme.utexas.edu
    PSIDATADIR: /home/xy3866/psi4conda/share/psi4
    Memory:     500.0 MiB
    Threads:    8
    
  ==> Input File <==

--------------------------------------------------------------------------
#psi4
#
memory 32 gb

molecule  {
0 1
  O        2.2902000     1.1004440    -0.0001310
  O        2.2902000    -1.1004440     0.0000360
  N        1.7133150     0.0000000    -0.0000370
  C        0.2417700     0.0000000    -0.0000090
  C       -0.4248660     1.2226560     0.0000420
  C       -0.4248660    -1.2226560    -0.0000210
  C       -1.8195320     1.2101310     0.0000700
  C       -1.8195320    -1.2101310     0.0000040
  C       -2.5180540     0.0000000     0.0000560
  H        0.1410100     2.1474780     0.0000480
  H        0.1410100    -2.1474780    -0.0000570
  H       -2.3614670     2.1521620     0.0001130
  H       -2.3614670    -2.1521620    -0.0000060
  H       -3.6050141     0.0000055    -0.1999260
units angstrom
no_reorient  #important for SAPT in psi4, default
symmetry c1  #important for SAPT in psi4, default
}

set PROPERTIES_ORIGIN ["COM"]
properties('MP2/aug-cc-pvtz', properties = ['dipole'])
--------------------------------------------------------------------------

  Memory set to  29.802 GiB by Python driver.
    SCF Algorithm Type (re)set to DF.

*** tstart() called on node37.bme.utexas.edu
*** at Mon Nov  9 03:40:14 2020

   => Loading Basis Set <=

    Name: AUG-CC-PVTZ
    Role: ORBITAL
    Keyword: BASIS
    atoms 1-2   entry O          line   327 file /home/xy3866/psi4conda/share/psi4/basis/aug-cc-pvtz.gbs 
    atoms 3     entry N          line   281 file /home/xy3866/psi4conda/share/psi4/basis/aug-cc-pvtz.gbs 
    atoms 4-9   entry C          line   235 file /home/xy3866/psi4conda/share/psi4/basis/aug-cc-pvtz.gbs 
    atoms 10-14 entry H          line    36 file /home/xy3866/psi4conda/share/psi4/basis/aug-cc-pvtz.gbs 


         ---------------------------------------------------------
                                   SCF
               by Justin Turney, Rob Parrish, Andy Simmonett
                          and Daniel G. A. Smith
                              RHF Reference
                        8 Threads,  30517 MiB Core
         ---------------------------------------------------------

  ==> Geometry <==

    Molecular point group: c1
    Full point group: C1

    Geometry (in Angstrom), charge = 0, multiplicity = 1:

       Center              X                  Y                   Z               Mass       
    ------------   -----------------  -----------------  -----------------  -----------------
         O            2.225461281002     1.100443954946     0.001508616072    15.994914619570
         O            2.225461281002    -1.100444045054     0.001675616072    15.994914619570
         N            1.648576281002    -0.000000045054     0.001602616072    14.003074004430
         C            0.177031281002    -0.000000045054     0.001630616072    12.000000000000
         C           -0.489604718998     1.222655954946     0.001681616072    12.000000000000
         C           -0.489604718998    -1.222656045054     0.001618616072    12.000000000000
         C           -1.884270718998     1.210130954946     0.001709616072    12.000000000000
         C           -1.884270718998    -1.210131045054     0.001643616072    12.000000000000
         C           -2.582792718998    -0.000000045054     0.001695616072    12.000000000000
         H            0.076271281002     2.147477954946     0.001687616072     1.007825032230
         H            0.076271281002    -2.147478045054     0.001582616072     1.007825032230
         H           -2.426205718998     2.152161954946     0.001752616072     1.007825032230
         H           -2.426205718998    -2.152162045054     0.001633616072     1.007825032230
         H           -3.669752818998     0.000005454946    -0.198286383928     1.007825032230

  Running in c1 symmetry.

  Rotational constants: A =      0.13126  B =      0.04285  C =      0.03231 [cm^-1]
  Rotational constants: A =   3934.97941  B =   1284.73370  C =    968.66407 [MHz]
  Nuclear repulsion =  411.058244699737315

  Charge       = 0
  Multiplicity = 1
  Electrons    = 64
  Nalpha       = 32
  Nbeta        = 32

  ==> Algorithm <==

  SCF Algorithm Type is DF.
  DIIS enabled.
  MOM disabled.
  Fractional occupation disabled.
  Guess Type is SAD.
  Energy threshold   = 1.00e-10
  Density threshold  = 1.00e-10
  Integral threshold = 0.00e+00

  ==> Primary Basis <==

  Basis Set: AUG-CC-PVTZ
    Blend: AUG-CC-PVTZ
    Number of shells: 171
    Number of basis function: 529
    Number of Cartesian functions: 620
    Spherical Harmonics?: true
    Max angular momentum: 3

   => Loading Basis Set <=

    Name: (AUG-CC-PVTZ AUX)
    Role: JKFIT
    Keyword: DF_BASIS_SCF
    atoms 1-2   entry O          line   286 file /home/xy3866/psi4conda/share/psi4/basis/aug-cc-pvtz-jkfit.gbs 
    atoms 3     entry N          line   224 file /home/xy3866/psi4conda/share/psi4/basis/aug-cc-pvtz-jkfit.gbs 
    atoms 4-9   entry C          line   162 file /home/xy3866/psi4conda/share/psi4/basis/aug-cc-pvtz-jkfit.gbs 
    atoms 10-14 entry H          line    70 file /home/xy3866/psi4conda/share/psi4/basis/aug-cc-pvtz-jkfit.gbs 

  ==> Pre-Iterations <==

   -------------------------------------------------------
    Irrep   Nso     Nmo     Nalpha   Nbeta   Ndocc  Nsocc
   -------------------------------------------------------
     A        529     529       0       0       0       0
   -------------------------------------------------------
    Total     529     529      32      32      32       0
   -------------------------------------------------------

  ==> Integral Setup <==

  DFHelper Memory: AOs need 2.414 GiB; user supplied 22.352 GiB. Using in-core AOs.

  ==> MemDFJK: Density-Fitted J/K Matrices <==

    J tasked:                   Yes
    K tasked:                   Yes
    wK tasked:                   No
    OpenMP threads:               8
    Memory [MiB]:             22888
    Algorithm:                 Disk
    Schwarz Cutoff:           1E-12
    Mask sparsity (%):       4.1159
    Fitting Condition:        1E-10

   => Auxiliary Basis Set <=

  Basis Set: (AUG-CC-PVTZ AUX)
    Blend: AUG-CC-PVTZ-JKFIT
    Number of shells: 340
    Number of basis function: 1166
    Number of Cartesian functions: 1454
    Spherical Harmonics?: true
    Max angular momentum: 4

  Minimum eigenvalue in the overlap matrix is 9.7278899893E-07.
  Using Symmetric Orthogonalization.

  SCF Guess: Superposition of Atomic Densities via on-the-fly atomic UHF.

  ==> Iterations <==

                           Total Energy        Delta E     RMS |[F,P]|

   @DF-RHF iter SAD:  -433.57368139486181   -4.33574e+02   0.00000e+00 
   @DF-RHF iter   1:  -434.02910444998895   -4.55423e-01   1.50222e-03 DIIS
   @DF-RHF iter   2:  -434.18889560249119   -1.59791e-01   1.14179e-03 DIIS
   @DF-RHF iter   3:  -434.31547229071646   -1.26577e-01   1.57675e-04 DIIS
   @DF-RHF iter   4:  -434.31938356320859   -3.91127e-03   6.68817e-05 DIIS
   @DF-RHF iter   5:  -434.32013502158782   -7.51458e-04   1.50632e-05 DIIS
   @DF-RHF iter   6:  -434.32020045666519   -6.54351e-05   5.90690e-06 DIIS
   @DF-RHF iter   7:  -434.32021466213985   -1.42055e-05   2.55380e-06 DIIS
   @DF-RHF iter   8:  -434.32021820913337   -3.54699e-06   1.27075e-06 DIIS
   @DF-RHF iter   9:  -434.32021924208971   -1.03296e-06   5.75447e-07 DIIS
   @DF-RHF iter  10:  -434.32021950619912   -2.64109e-07   1.97194e-07 DIIS
   @DF-RHF iter  11:  -434.32021953896719   -3.27681e-08   5.55453e-08 DIIS
   @DF-RHF iter  12:  -434.32021954051208   -1.54489e-09   1.80200e-08 DIIS
   @DF-RHF iter  13:  -434.32021954064510   -1.33014e-10   6.31770e-09 DIIS
   @DF-RHF iter  14:  -434.32021954065988   -1.47793e-11   3.20301e-09 DIIS
   @DF-RHF iter  15:  -434.32021954066499   -5.11591e-12   6.69402e-10 DIIS
   @DF-RHF iter  16:  -434.32021954066244    2.55795e-12   2.47798e-10 DIIS
   @DF-RHF iter  17:  -434.32021954066306   -6.25278e-13   1.05484e-10 DIIS
   @DF-RHF iter  18:  -434.32021954066278    2.84217e-13   2.90229e-11 DIIS
  Energy and wave function converged.


  ==> Post-Iterations <==

    Orbital Energies [Eh]
    ---------------------

    Doubly Occupied:                                                      

       1A    -20.605971     2A    -20.605921     3A    -15.856183  
       4A    -11.315031     5A    -11.279006     6A    -11.278971  
       7A    -11.278050     8A    -11.268920     9A    -11.268832  
      10A     -1.589544    11A     -1.388165    12A     -1.199832  
      13A     -1.093815    14A     -1.053194    15A     -0.962399  
      16A     -0.866378    17A     -0.829692    18A     -0.778352  
      19A     -0.724418    20A     -0.710052    21A     -0.704790  
      22A     -0.655924    23A     -0.650814    24A     -0.625752  
      25A     -0.556478    26A     -0.534711    27A     -0.532884  
      28A     -0.496819    29A     -0.494959    30A     -0.453866  
      31A     -0.378564    32A     -0.370152  

    Virtual:                                                              

      33A      0.021256    34A      0.028464    35A      0.029359  
      36A      0.037071    37A      0.050079    38A      0.051187  
      39A      0.078140    40A      0.082711    41A      0.088680  
      42A      0.100768    43A      0.106230    44A      0.107137  
      45A      0.108104    46A      0.110470    47A      0.111904  
      48A      0.114611    49A      0.125624    50A      0.129544  
      51A      0.132290    52A      0.145295    53A      0.146211  
      54A      0.147714    55A      0.152409    56A      0.154111  
      57A      0.155490    58A      0.163848    59A      0.183470  
      60A      0.185236    61A      0.193831    62A      0.211759  
      63A      0.225779    64A      0.235229    65A      0.238388  
      66A      0.243631    67A      0.252011    68A      0.255598  
      69A      0.256724    70A      0.262242    71A      0.272253  
      72A      0.273720    73A      0.289787    74A      0.291921  
      75A      0.296618    76A      0.303737    77A      0.307433  
      78A      0.309500    79A      0.310234    80A      0.313850  
      81A      0.315923    82A      0.328250    83A      0.332578  
      84A      0.337932    85A      0.344982    86A      0.351149  
      87A      0.368266    88A      0.377820    89A      0.378302  
      90A      0.387810    91A      0.394269    92A      0.408215  
      93A      0.409774    94A      0.415030    95A      0.419136  
      96A      0.430265    97A      0.433563    98A      0.435239  
      99A      0.441263   100A      0.447531   101A      0.453797  
     102A      0.461842   103A      0.469811   104A      0.476652  
     105A      0.478627   106A      0.479829   107A      0.484567  
     108A      0.484718   109A      0.494573   110A      0.506919  
     111A      0.508592   112A      0.518329   113A      0.523557  
     114A      0.528682   115A      0.532958   116A      0.535357  
     117A      0.563152   118A      0.563690   119A      0.570650  
     120A      0.584812   121A      0.605015   122A      0.605842  
     123A      0.612212   124A      0.614400   125A      0.627895  
     126A      0.651564   127A      0.652347   128A      0.656084  
     129A      0.663040   130A      0.666356   131A      0.675428  
     132A      0.699882   133A      0.707359   134A      0.708355  
     135A      0.712098   136A      0.722658   137A      0.739061  
     138A      0.743717   139A      0.753242   140A      0.759125  
     141A      0.760609   142A      0.796571   143A      0.803140  
     144A      0.809814   145A      0.813829   146A      0.828053  
     147A      0.829179   148A      0.834131   149A      0.836639  
     150A      0.841305   151A      0.849907   152A      0.855842  
     153A      0.861783   154A      0.867744   155A      0.882252  
     156A      0.886326   157A      0.888476   158A      0.899461  
     159A      0.903073   160A      0.908166   161A      0.917503  
     162A      0.917946   163A      0.922951   164A      0.933855  
     165A      0.938012   166A      0.950204   167A      0.959126  
     168A      0.960078   169A      0.991230   170A      0.994470  
     171A      1.003142   172A      1.012758   173A      1.022100  
     174A      1.028017   175A      1.034164   176A      1.034637  
     177A      1.042943   178A      1.046933   179A      1.047675  
     180A      1.065720   181A      1.066351   182A      1.075547  
     183A      1.082756   184A      1.082892   185A      1.086377  
     186A      1.087131   187A      1.094593   188A      1.113928  
     189A      1.130452   190A      1.144878   191A      1.145520  
     192A      1.149613   193A      1.159892   194A      1.174253  
     195A      1.176082   196A      1.181302   197A      1.191426  
     198A      1.192982   199A      1.197792   200A      1.202762  
     201A      1.214780   202A      1.221514   203A      1.225889  
     204A      1.235692   205A      1.249375   206A      1.263907  
     207A      1.271456   208A      1.283982   209A      1.302654  
     210A      1.316537   211A      1.333239   212A      1.337379  
     213A      1.350765   214A      1.354088   215A      1.358099  
     216A      1.361327   217A      1.371253   218A      1.377582  
     219A      1.388380   220A      1.420719   221A      1.425760  
     222A      1.433543   223A      1.449236   224A      1.481254  
     225A      1.487400   226A      1.500179   227A      1.506457  
     228A      1.508739   229A      1.550557   230A      1.551729  
     231A      1.596079   232A      1.598017   233A      1.604264  
     234A      1.630785   235A      1.637915   236A      1.653092  
     237A      1.657722   238A      1.665809   239A      1.667561  
     240A      1.678088   241A      1.698914   242A      1.719622  
     243A      1.720537   244A      1.728772   245A      1.740536  
     246A      1.756439   247A      1.757673   248A      1.788739  
     249A      1.800955   250A      1.801236   251A      1.809654  
     252A      1.828232   253A      1.849307   254A      1.857676  
     255A      1.860811   256A      1.864631   257A      1.867903  
     258A      1.887857   259A      1.894858   260A      1.951780  
     261A      1.960149   262A      1.965420   263A      1.975674  
     264A      1.975827   265A      1.999462   266A      2.003549  
     267A      2.007120   268A      2.013545   269A      2.030292  
     270A      2.045923   271A      2.054094   272A      2.068540  
     273A      2.071800   274A      2.087633   275A      2.096119  
     276A      2.099808   277A      2.121306   278A      2.127789  
     279A      2.152476   280A      2.166530   281A      2.210248  
     282A      2.212904   283A      2.237939   284A      2.253030  
     285A      2.259025   286A      2.270789   287A      2.285810  
     288A      2.285873   289A      2.300120   290A      2.308595  
     291A      2.310990   292A      2.322119   293A      2.341381  
     294A      2.343439   295A      2.345769   296A      2.368993  
     297A      2.391914   298A      2.392676   299A      2.407962  
     300A      2.437457   301A      2.454523   302A      2.468577  
     303A      2.499545   304A      2.525990   305A      2.546406  
     306A      2.561813   307A      2.569464   308A      2.574882  
     309A      2.587155   310A      2.608887   311A      2.633588  
     312A      2.656551   313A      2.659399   314A      2.663649  
     315A      2.674746   316A      2.689246   317A      2.706780  
     318A      2.707270   319A      2.746055   320A      2.785064  
     321A      2.795174   322A      2.841793   323A      2.886753  
     324A      2.914570   325A      2.947456   326A      2.950520  
     327A      2.978804   328A      2.987317   329A      2.989554  
     330A      3.007593   331A      3.094585   332A      3.125158  
     333A      3.125289   334A      3.157429   335A      3.173157  
     336A      3.198104   337A      3.218090   338A      3.227979  
     339A      3.231139   340A      3.297295   341A      3.302290  
     342A      3.306593   343A      3.320101   344A      3.326520  
     345A      3.375625   346A      3.378660   347A      3.381891  
     348A      3.384238   349A      3.404273   350A      3.410331  
     351A      3.445378   352A      3.451509   353A      3.464089  
     354A      3.473190   355A      3.516408   356A      3.523503  
     357A      3.526200   358A      3.544820   359A      3.545144  
     360A      3.550237   361A      3.565944   362A      3.593399  
     363A      3.602259   364A      3.611386   365A      3.617275  
     366A      3.643894   367A      3.651972   368A      3.686980  
     369A      3.693568   370A      3.712522   371A      3.722131  
     372A      3.724966   373A      3.771761   374A      3.813493  
     375A      3.819689   376A      3.822032   377A      3.844175  
     378A      3.848778   379A      3.856689   380A      3.857133  
     381A      3.879445   382A      3.896559   383A      3.919438  
     384A      3.927685   385A      3.938376   386A      3.946048  
     387A      3.976834   388A      3.994143   389A      4.011097  
     390A      4.023756   391A      4.050654   392A      4.075752  
     393A      4.081841   394A      4.090247   395A      4.096569  
     396A      4.103694   397A      4.161555   398A      4.170733  
     399A      4.182783   400A      4.200452   401A      4.203797  
     402A      4.230472   403A      4.255250   404A      4.268870  
     405A      4.271845   406A      4.300896   407A      4.314829  
     408A      4.320575   409A      4.335623   410A      4.351339  
     411A      4.360414   412A      4.365049   413A      4.388535  
     414A      4.414549   415A      4.418898   416A      4.421858  
     417A      4.447059   418A      4.450842   419A      4.544358  
     420A      4.544428   421A      4.547411   422A      4.617708  
     423A      4.637502   424A      4.666927   425A      4.674345  
     426A      4.685549   427A      4.697321   428A      4.727773  
     429A      4.768251   430A      4.785034   431A      4.837604  
     432A      4.854156   433A      4.864363   434A      4.874287  
     435A      4.910040   436A      4.914636   437A      4.946082  
     438A      4.947905   439A      4.986292   440A      5.017904  
     441A      5.034528   442A      5.034687   443A      5.062878  
     444A      5.065323   445A      5.087186   446A      5.090761  
     447A      5.106770   448A      5.122750   449A      5.131371  
     450A      5.164573   451A      5.185341   452A      5.203652  
     453A      5.209163   454A      5.228909   455A      5.263525  
     456A      5.278042   457A      5.302928   458A      5.311365  
     459A      5.349456   460A      5.369296   461A      5.377294  
     462A      5.392852   463A      5.401357   464A      5.448343  
     465A      5.469396   466A      5.519312   467A      5.536340  
     468A      5.616214   469A      5.644825   470A      5.663835  
     471A      5.667732   472A      5.737875   473A      5.758981  
     474A      5.762461   475A      5.813501   476A      5.844488  
     477A      5.858028   478A      5.947109   479A      6.067034  
     480A      6.105919   481A      6.167564   482A      6.172798  
     483A      6.178547   484A      6.197414   485A      6.303360  
     486A      6.311263   487A      6.385774   488A      6.470912  
     489A      6.551512   490A      6.566159   491A      6.620312  
     492A      6.653725   493A      6.717575   494A      6.738833  
     495A      6.781248   496A      6.786362   497A      6.793073  
     498A      6.846924   499A      6.848975   500A      6.913232  
     501A      6.999810   502A      7.027269   503A      7.074705  
     504A      7.158814   505A      7.218337   506A      7.279858  
     507A      7.340888   508A      7.349591   509A      7.377002  
     510A      7.388682   511A      7.392225   512A      7.618896  
     513A      7.659959   514A      7.724899   515A      7.785416  
     516A      7.971808   517A      8.011667   518A      8.112139  
     519A      8.313822   520A      8.511521   521A     15.249393  
     522A     15.573533   523A     16.283290   524A     16.408627  
     525A     17.510684   526A     18.423662   527A     19.258120  
     528A     19.652172   529A     20.047450  

    Final Occupation by Irrep:
              A 
    DOCC [    32 ]

  @DF-RHF Final Energy:  -434.32021954066278

   => Energetics <=

    Nuclear Repulsion Energy =            411.0582446997373154
    One-Electron Energy =               -1405.9400512983124827
    Two-Electron Energy =                 560.5615870579124476
    Total Energy =                       -434.3202195406627197

Computation Completed

*** tstop() called on node37.bme.utexas.edu at Mon Nov  9 03:41:29 2020
Module time:
	user time   =     261.00 seconds =       4.35 minutes
	system time =      59.44 seconds =       0.99 minutes
	total time  =         75 seconds =       1.25 minutes
Total time:
	user time   =     261.00 seconds =       4.35 minutes
	system time =      59.44 seconds =       0.99 minutes
	total time  =         75 seconds =       1.25 minutes
   => Loading Basis Set <=

    Name: (AUG-CC-PVTZ AUX)
    Role: RIFIT
    Keyword: DF_BASIS_MP2
    atoms 1-2   entry O          line   264 file /home/xy3866/psi4conda/share/psi4/basis/aug-cc-pvtz-ri.gbs 
    atoms 3     entry N          line   206 file /home/xy3866/psi4conda/share/psi4/basis/aug-cc-pvtz-ri.gbs 
    atoms 4-9   entry C          line   148 file /home/xy3866/psi4conda/share/psi4/basis/aug-cc-pvtz-ri.gbs 
    atoms 10-14 entry H          line    30 file /home/xy3866/psi4conda/share/psi4/basis/aug-cc-pvtz-ri.gbs 


*** tstart() called on node37.bme.utexas.edu
*** at Mon Nov  9 03:41:29 2020


  //>>>>>>>>>>>>>>>>>>>>>>>>>>>>>>>>>>>//
  //               DFMP2               //
  //<<<<<<<<<<<<<<<<<<<<<<<<<<<<<<<<<<<//

	 --------------------------------------------------------
	                          DF-MP2                         
	      2nd-Order Density-Fitted Moller-Plesset Theory     
	              RMP2 Wavefunction,   8 Threads             
	                                                         
	        Rob Parrish, Justin Turney, Andy Simmonett,      
	           Ed Hohenstein, and C. David Sherrill          
	 --------------------------------------------------------

   => Auxiliary Basis Set <=

  Basis Set: (AUG-CC-PVTZ AUX)
    Blend: AUG-CC-PVTZ-RI
    Number of shells: 322
    Number of basis function: 1184
    Number of Cartesian functions: 1499
    Spherical Harmonics?: true
    Max angular momentum: 4

	 --------------------------------------------------------
	                 NBF =   529, NAUX =  1184
	 --------------------------------------------------------
	   CLASS    FOCC     OCC    AOCC    AVIR     VIR    FVIR
	   PAIRS       0      32      32     497     497       0
	 --------------------------------------------------------

  DFHelper Memory: AOs need 2.414 GiB; user supplied 22.352 GiB. Using in-core AOs.


         ------------------------------------------------------------
                                     CPHF                           
                                  Rob Parrish                       
         ------------------------------------------------------------

  ==> Geometry <==

    Molecular point group: c1
    Full point group: C1

    Geometry (in Angstrom), charge = 0, multiplicity = 1:

       Center              X                  Y                   Z               Mass       
    ------------   -----------------  -----------------  -----------------  -----------------
         O            2.225461281002     1.100443954946     0.001508616072    15.994914619570
         O            2.225461281002    -1.100444045054     0.001675616072    15.994914619570
         N            1.648576281002    -0.000000045054     0.001602616072    14.003074004430
         C            0.177031281002    -0.000000045054     0.001630616072    12.000000000000
         C           -0.489604718998     1.222655954946     0.001681616072    12.000000000000
         C           -0.489604718998    -1.222656045054     0.001618616072    12.000000000000
         C           -1.884270718998     1.210130954946     0.001709616072    12.000000000000
         C           -1.884270718998    -1.210131045054     0.001643616072    12.000000000000
         C           -2.582792718998    -0.000000045054     0.001695616072    12.000000000000
         H            0.076271281002     2.147477954946     0.001687616072     1.007825032230
         H            0.076271281002    -2.147478045054     0.001582616072     1.007825032230
         H           -2.426205718998     2.152161954946     0.001752616072     1.007825032230
         H           -2.426205718998    -2.152162045054     0.001633616072     1.007825032230
         H           -3.669752818998     0.000005454946    -0.198286383928     1.007825032230

  Nuclear repulsion =  411.058244699737315
  Reference energy  = -434.320219540662777

  ==> Basis Set <==

  Basis Set: AUG-CC-PVTZ
    Blend: AUG-CC-PVTZ
    Number of shells: 171
    Number of basis function: 529
    Number of Cartesian functions: 620
    Spherical Harmonics?: true
    Max angular momentum: 3

  ==> CGRSolver (by Rob Parrish) <==

   Number of roots    =         1
   Preconditioning    =    JACOBI
   Convergence cutoff =     1E-06
   Maximum iterations =       100

  ==> CPHFRHamiltonian (by Rob Parrish) <== 

  ==> MemDFJK: Density-Fitted J/K Matrices <==

    J tasked:                   Yes
    K tasked:                   Yes
    wK tasked:                   No
    OpenMP threads:               8
    Memory [MiB]:             22888
    Algorithm:                 Disk
    Schwarz Cutoff:           1E-12
    Mask sparsity (%):       4.1159
    Fitting Condition:        1E-10

   => Auxiliary Basis Set <=

  Basis Set: (AUG-CC-PVTZ AUX)
    Blend: AUG-CC-PVTZ-JKFIT
    Number of shells: 340
    Number of basis function: 1166
    Number of Cartesian functions: 1454
    Spherical Harmonics?: true
    Max angular momentum: 4

  ==> CPHF Iterations <==

  => Iterations <=

             Iter  Converged  Remaining    Residual
  CGR           1          0          1   1.580E-01
  CGR           2          0          1   5.600E-02
  CGR           3          0          1   2.808E-02
  CGR           4          0          1   1.033E-02
  CGR           5          0          1   5.086E-03
  CGR           6          0          1   2.382E-03
  CGR           7          0          1   8.054E-04
  CGR           8          0          1   3.329E-04
  CGR           9          0          1   1.003E-04
  CGR          10          0          1   2.477E-05
  CGR          11          0          1   6.067E-06
  CGR          12          0          1   1.895E-06
  CGR          13          1          0   5.991E-07

    CGRSolver converged.

	-----------------------------------------------------------
	 ==================> DF-MP2 Energies <==================== 
	-----------------------------------------------------------
	 Reference Energy          =    -434.3202195406627766 [Eh]
	 Singles Energy            =      -0.0000000000000000 [Eh]
	 Same-Spin Energy          =      -0.4588633046173898 [Eh]
	 Opposite-Spin Energy      =      -1.3595115113072431 [Eh]
	 Correlation Energy        =      -1.8183748159246329 [Eh]
	 Total Energy              =    -436.1385943565874186 [Eh]
	-----------------------------------------------------------
	 ================> DF-SCS-MP2 Energies <================== 
	-----------------------------------------------------------
	 SCS Same-Spin Scale       =       0.3333333333333333 [-]
	 SCS Opposite-Spin Scale   =       1.2000000000000000 [-]
	 SCS Same-Spin Energy      =      -0.1529544348724632 [Eh]
	 SCS Opposite-Spin Energy  =      -1.6314138135686918 [Eh]
	 SCS Correlation Energy    =      -1.7843682484411549 [Eh]
	 SCS Total Energy          =    -436.1045877891039595 [Eh]
	-----------------------------------------------------------



Properties will be evaluated at  -0.000000,  -0.000000,   0.000000 [a0]

Properties computed using the MP2 density matrix

  Nuclear Dipole Moment: [e a0]
     X:    -7.8297      Y:     0.0000      Z:    -0.1796

  Electronic Dipole Moment: [e a0]
     X:     6.1272      Y:    -0.0000      Z:     0.1292

  Dipole Moment: [e a0]
     X:    -1.7025      Y:     0.0000      Z:    -0.0505     Total:     1.7033

  Dipole Moment: [D]
     X:    -4.3274      Y:     0.0000      Z:    -0.1283     Total:     4.3293


*** tstop() called on node37.bme.utexas.edu at Mon Nov  9 03:43:43 2020
Module time:
	user time   =     678.35 seconds =      11.31 minutes
	system time =      64.27 seconds =       1.07 minutes
	total time  =        134 seconds =       2.23 minutes
Total time:
	user time   =     940.41 seconds =      15.67 minutes
	system time =     123.78 seconds =       2.06 minutes
	total time  =        209 seconds =       3.48 minutes

    Psi4 stopped on: Monday, 09 November 2020 03:43AM
    Psi4 wall time for execution: 0:03:29.51

*** Psi4 exiting successfully. Buy a developer a beer!
