1127                                                                    
Freq      RMP2-FC                                                     6-31G(d)            
Number of atoms                            I               13
Info1-9                                    I   N=           9
          25          23        1002           0           0         100
           6           2           1
Charge                                     I                0
Multiplicity                               I                1
Number of electrons                        I               48
Number of alpha electrons                  I               24
Number of beta electrons                   I               24
Number of basis functions                  I               95
Number of independent functions            I               95
Number of point charges in /Mol/           I                0
Number of translation vectors              I                0
Atomic numbers                             I   N=          13
          16           6           6           6           6           1
           1           1           1           1           1           1
           1
Nuclear charges                            R   N=          13
  1.60000000E+01  6.00000000E+00  6.00000000E+00  6.00000000E+00  6.00000000E+00
  1.00000000E+00  1.00000000E+00  1.00000000E+00  1.00000000E+00  1.00000000E+00
  1.00000000E+00  1.00000000E+00  1.00000000E+00
Current cartesian coordinates              R   N=          39
 -2.46722229E+00  2.03187844E-06 -7.19370939E-06  2.41253198E+00  1.34050638E+00
  5.30559647E-01  2.41251840E+00 -1.34051799E+00 -5.30575146E-01 -1.02480524E-01
  2.51290974E+00 -2.63821529E-01 -1.02487393E-01 -2.51290316E+00  2.63848348E-01
  2.53153105E+00  1.26832052E+00  2.59663768E+00  4.00863957E+00  2.46175768E+00
 -1.61606919E-01  2.53148159E+00 -1.26833372E+00 -2.59665524E+00  4.00863196E+00
 -2.46177607E+00  1.61566870E-01 -6.47956796E-01  4.09560803E+00  9.44257099E-01
 -1.46489298E-02  3.18004220E+00 -2.21764850E+00 -6.47978603E-01 -4.09562543E+00
 -9.44192421E-01 -1.46380170E-02 -3.17999553E+00  2.21768860E+00
Force Field                                I                0
Int Atom Types                             I   N=          13
           0           0           0           0           0           0
           0           0           0           0           0           0
           0
MM charges                                 R   N=          13
  0.00000000E+00  0.00000000E+00  0.00000000E+00  0.00000000E+00  0.00000000E+00
  0.00000000E+00  0.00000000E+00  0.00000000E+00  0.00000000E+00  0.00000000E+00
  0.00000000E+00  0.00000000E+00  0.00000000E+00
Integer atomic weights                     I   N=          13
          32          12          12          12          12           1
           1           1           1           1           1           1
           1
Real atomic weights                        R   N=          13
  3.19720718E+01  1.20000000E+01  1.20000000E+01  1.20000000E+01  1.20000000E+01
  1.00782504E+00  1.00782504E+00  1.00782504E+00  1.00782504E+00  1.00782504E+00
  1.00782504E+00  1.00782504E+00  1.00782504E+00
Atom fragment info                         I   N=          13
           0           0           0           0           0           0
           0           0           0           0           0           0
           0
Atom residue num                           I   N=          13
           0           0           0           0           0           0
           0           0           0           0           0           0
           0
Nuclear spins                              I   N=          13
           0           0           0           0           0           1
           1           1           1           1           1           1
           1
Nuclear ZEff                               R   N=          13
 -1.36000000E+01 -3.60000000E+00 -3.60000000E+00 -3.60000000E+00 -3.60000000E+00
 -1.00000000E+00 -1.00000000E+00 -1.00000000E+00 -1.00000000E+00 -1.00000000E+00
 -1.00000000E+00 -1.00000000E+00 -1.00000000E+00
Nuclear QMom                               R   N=          13
  0.00000000E+00  0.00000000E+00  0.00000000E+00  0.00000000E+00  0.00000000E+00
  0.00000000E+00  0.00000000E+00  0.00000000E+00  0.00000000E+00  0.00000000E+00
  0.00000000E+00  0.00000000E+00  0.00000000E+00
Nuclear GFac                               R   N=          13
  0.00000000E+00  0.00000000E+00  0.00000000E+00  0.00000000E+00  0.00000000E+00
  2.79284600E+00  2.79284600E+00  2.79284600E+00  2.79284600E+00  2.79284600E+00
  2.79284600E+00  2.79284600E+00  2.79284600E+00
MicOpt                                     I   N=          13
          -1          -1          -1          -1          -1          -1
          -1          -1          -1          -1          -1          -1
          -1
Number of contracted shells                I               37
Number of primitive shells                 I               93
Pure/Cartesian d shells                    I                1
Pure/Cartesian f shells                    I                0
Highest angular momentum                   I                2
Largest degree of contraction              I                6
Shell types                                I   N=          37
           0          -1          -1          -1           2           0
          -1          -1           2           0          -1          -1
           2           0          -1          -1           2           0
          -1          -1           2           0           0           0
           0           0           0           0           0           0
           0           0           0           0           0           0
           0
Number of primitives per shell             I   N=          37
           6           6           3           1           1           6
           3           1           1           6           3           1
           1           6           3           1           1           6
           3           1           1           3           1           3
           1           3           1           3           1           3
           1           3           1           3           1           3
           1
Shell to atom map                          I   N=          37
           1           1           1           1           1           2
           2           2           2           3           3           3
           3           4           4           4           4           5
           5           5           5           6           6           7
           7           8           8           9           9          10
          10          11          11          12          12          13
          13
Primitive exponents                        R   N=          93
  2.19171000E+04  3.30149000E+03  7.54146000E+02  2.12711000E+02  6.79896000E+01
  2.30515000E+01  4.23735000E+02  1.00710000E+02  3.21599000E+01  1.18079000E+01
  4.63110000E+00  1.87025000E+00  2.61584000E+00  9.22167000E-01  3.41287000E-01
  1.17167000E-01  6.50000000E-01  3.04752488E+03  4.57369518E+02  1.03948685E+02
  2.92101553E+01  9.28666296E+00  3.16392696E+00  7.86827235E+00  1.88128854E+00
  5.44249258E-01  1.68714478E-01  8.00000000E-01  3.04752488E+03  4.57369518E+02
  1.03948685E+02  2.92101553E+01  9.28666296E+00  3.16392696E+00  7.86827235E+00
  1.88128854E+00  5.44249258E-01  1.68714478E-01  8.00000000E-01  3.04752488E+03
  4.57369518E+02  1.03948685E+02  2.92101553E+01  9.28666296E+00  3.16392696E+00
  7.86827235E+00  1.88128854E+00  5.44249258E-01  1.68714478E-01  8.00000000E-01
  3.04752488E+03  4.57369518E+02  1.03948685E+02  2.92101553E+01  9.28666296E+00
  3.16392696E+00  7.86827235E+00  1.88128854E+00  5.44249258E-01  1.68714478E-01
  8.00000000E-01  1.87311370E+01  2.82539436E+00  6.40121692E-01  1.61277759E-01
  1.87311370E+01  2.82539436E+00  6.40121692E-01  1.61277759E-01  1.87311370E+01
  2.82539436E+00  6.40121692E-01  1.61277759E-01  1.87311370E+01  2.82539436E+00
  6.40121692E-01  1.61277759E-01  1.87311370E+01  2.82539436E+00  6.40121692E-01
  1.61277759E-01  1.87311370E+01  2.82539436E+00  6.40121692E-01  1.61277759E-01
  1.87311370E+01  2.82539436E+00  6.40121692E-01  1.61277759E-01  1.87311370E+01
  2.82539436E+00  6.40121692E-01  1.61277759E-01
Contraction coefficients                   R   N=          93
  1.86924085E-03  1.42303065E-02  6.96962317E-02  2.38487108E-01  4.83307220E-01
  3.38074154E-01 -2.37677050E-03 -3.16930067E-02 -1.13317024E-01  5.60900118E-02
  5.92255124E-01  4.55006095E-01 -2.50373114E-01  6.69567631E-02  1.05450627E+00
  1.00000000E+00  1.00000000E+00  1.83473713E-03  1.40373228E-02  6.88426223E-02
  2.32184443E-01  4.67941348E-01  3.62311985E-01 -1.19332420E-01 -1.60854152E-01
  1.14345644E+00  1.00000000E+00  1.00000000E+00  1.83473713E-03  1.40373228E-02
  6.88426223E-02  2.32184443E-01  4.67941348E-01  3.62311985E-01 -1.19332420E-01
 -1.60854152E-01  1.14345644E+00  1.00000000E+00  1.00000000E+00  1.83473713E-03
  1.40373228E-02  6.88426223E-02  2.32184443E-01  4.67941348E-01  3.62311985E-01
 -1.19332420E-01 -1.60854152E-01  1.14345644E+00  1.00000000E+00  1.00000000E+00
  1.83473713E-03  1.40373228E-02  6.88426223E-02  2.32184443E-01  4.67941348E-01
  3.62311985E-01 -1.19332420E-01 -1.60854152E-01  1.14345644E+00  1.00000000E+00
  1.00000000E+00  3.34946043E-02  2.34726953E-01  8.13757326E-01  1.00000000E+00
  3.34946043E-02  2.34726953E-01  8.13757326E-01  1.00000000E+00  3.34946043E-02
  2.34726953E-01  8.13757326E-01  1.00000000E+00  3.34946043E-02  2.34726953E-01
  8.13757326E-01  1.00000000E+00  3.34946043E-02  2.34726953E-01  8.13757326E-01
  1.00000000E+00  3.34946043E-02  2.34726953E-01  8.13757326E-01  1.00000000E+00
  3.34946043E-02  2.34726953E-01  8.13757326E-01  1.00000000E+00  3.34946043E-02
  2.34726953E-01  8.13757326E-01  1.00000000E+00
P(S=P) Contraction coefficients            R   N=          93
  0.00000000E+00  0.00000000E+00  0.00000000E+00  0.00000000E+00  0.00000000E+00
  0.00000000E+00  4.06100998E-03  3.06812999E-02  1.30451999E-01  3.27204999E-01
  4.52850998E-01  2.56041999E-01 -1.45104895E-02  3.10262776E-01  7.54482456E-01
  1.00000000E+00  0.00000000E+00  0.00000000E+00  0.00000000E+00  0.00000000E+00
  0.00000000E+00  0.00000000E+00  0.00000000E+00  6.89990666E-02  3.16423961E-01
  7.44308291E-01  1.00000000E+00  0.00000000E+00  0.00000000E+00  0.00000000E+00
  0.00000000E+00  0.00000000E+00  0.00000000E+00  0.00000000E+00  6.89990666E-02
  3.16423961E-01  7.44308291E-01  1.00000000E+00  0.00000000E+00  0.00000000E+00
  0.00000000E+00  0.00000000E+00  0.00000000E+00  0.00000000E+00  0.00000000E+00
  6.89990666E-02  3.16423961E-01  7.44308291E-01  1.00000000E+00  0.00000000E+00
  0.00000000E+00  0.00000000E+00  0.00000000E+00  0.00000000E+00  0.00000000E+00
  0.00000000E+00  6.89990666E-02  3.16423961E-01  7.44308291E-01  1.00000000E+00
  0.00000000E+00  0.00000000E+00  0.00000000E+00  0.00000000E+00  0.00000000E+00
  0.00000000E+00  0.00000000E+00  0.00000000E+00  0.00000000E+00  0.00000000E+00
  0.00000000E+00  0.00000000E+00  0.00000000E+00  0.00000000E+00  0.00000000E+00
  0.00000000E+00  0.00000000E+00  0.00000000E+00  0.00000000E+00  0.00000000E+00
  0.00000000E+00  0.00000000E+00  0.00000000E+00  0.00000000E+00  0.00000000E+00
  0.00000000E+00  0.00000000E+00  0.00000000E+00  0.00000000E+00  0.00000000E+00
  0.00000000E+00  0.00000000E+00  0.00000000E+00
Coordinates of each shell                  R   N=         111
 -2.46722229E+00  2.03187844E-06 -7.19370939E-06 -2.46722229E+00  2.03187844E-06
 -7.19370939E-06 -2.46722229E+00  2.03187844E-06 -7.19370939E-06 -2.46722229E+00
  2.03187844E-06 -7.19370939E-06 -2.46722229E+00  2.03187844E-06 -7.19370939E-06
  2.41253198E+00  1.34050638E+00  5.30559647E-01  2.41253198E+00  1.34050638E+00
  5.30559647E-01  2.41253198E+00  1.34050638E+00  5.30559647E-01  2.41253198E+00
  1.34050638E+00  5.30559647E-01  2.41251840E+00 -1.34051799E+00 -5.30575146E-01
  2.41251840E+00 -1.34051799E+00 -5.30575146E-01  2.41251840E+00 -1.34051799E+00
 -5.30575146E-01  2.41251840E+00 -1.34051799E+00 -5.30575146E-01 -1.02480524E-01
  2.51290974E+00 -2.63821529E-01 -1.02480524E-01  2.51290974E+00 -2.63821529E-01
 -1.02480524E-01  2.51290974E+00 -2.63821529E-01 -1.02480524E-01  2.51290974E+00
 -2.63821529E-01 -1.02487393E-01 -2.51290316E+00  2.63848348E-01 -1.02487393E-01
 -2.51290316E+00  2.63848348E-01 -1.02487393E-01 -2.51290316E+00  2.63848348E-01
 -1.02487393E-01 -2.51290316E+00  2.63848348E-01  2.53153105E+00  1.26832052E+00
  2.59663768E+00  2.53153105E+00  1.26832052E+00  2.59663768E+00  4.00863957E+00
  2.46175768E+00 -1.61606919E-01  4.00863957E+00  2.46175768E+00 -1.61606919E-01
  2.53148159E+00 -1.26833372E+00 -2.59665524E+00  2.53148159E+00 -1.26833372E+00
 -2.59665524E+00  4.00863196E+00 -2.46177607E+00  1.61566870E-01  4.00863196E+00
 -2.46177607E+00  1.61566870E-01 -6.47956796E-01  4.09560803E+00  9.44257099E-01
 -6.47956796E-01  4.09560803E+00  9.44257099E-01 -1.46489298E-02  3.18004220E+00
 -2.21764850E+00 -1.46489298E-02  3.18004220E+00 -2.21764850E+00 -6.47978603E-01
 -4.09562543E+00 -9.44192421E-01 -6.47978603E-01 -4.09562543E+00 -9.44192421E-01
 -1.46380170E-02 -3.17999553E+00  2.21768860E+00 -1.46380170E-02 -3.17999553E+00
  2.21768860E+00
Constraint Structure                       R   N=          39
 -2.46722229E+00  2.03187844E-06 -7.19370939E-06  2.41253198E+00  1.34050638E+00
  5.30559647E-01  2.41251840E+00 -1.34051799E+00 -5.30575146E-01 -1.02480524E-01
  2.51290974E+00 -2.63821529E-01 -1.02487393E-01 -2.51290316E+00  2.63848348E-01
  2.53153105E+00  1.26832052E+00  2.59663768E+00  4.00863957E+00  2.46175768E+00
 -1.61606919E-01  2.53148159E+00 -1.26833372E+00 -2.59665524E+00  4.00863196E+00
 -2.46177607E+00  1.61566870E-01 -6.47956796E-01  4.09560803E+00  9.44257099E-01
 -1.46489298E-02  3.18004220E+00 -2.21764850E+00 -6.47978603E-01 -4.09562543E+00
 -9.44192421E-01 -1.46380170E-02 -3.17999553E+00  2.21768860E+00
Num ILSW                                   I              100
ILSW                                       I   N=         100
           0           1           0           1           2           0
           0           0           0           0           0          -1
           0           0           0           0           0           0
           0           0           0           0           1           0
           1           0           0           0           0           0
           0           0      100000           0          -1           0
           0           0           0           0           0           0
           0           0           0           1           1           0
           0           0           1           0           0           0
           0           0           4          40           0           0
           0           0           0           0           0           0
           0           0           0           0           0           0
           0           0           0           0           0           0
           0           0           0           0           0           0
           0           0           0           0           0           0
           0           0           0           0           0           0
           0           0           0           0
Num RLSW                                   I               40
RLSW                                       R   N=          40
  1.00000000E+00  1.00000000E+00  1.00000000E+00  1.00000000E+00  1.00000000E+00
  0.00000000E+00  0.00000000E+00  1.00000000E+00  0.00000000E+00  0.00000000E+00
  0.00000000E+00  0.00000000E+00  1.00000000E+00  0.00000000E+00  0.00000000E+00
  0.00000000E+00  0.00000000E+00  1.00000000E+00  0.00000000E+00  0.00000000E+00
  0.00000000E+00  0.00000000E+00  1.00000000E+00  0.00000000E+00  0.00000000E+00
  0.00000000E+00  0.00000000E+00  1.00000000E+00  0.00000000E+00  0.00000000E+00
  0.00000000E+00  0.00000000E+00  0.00000000E+00  0.00000000E+00  0.00000000E+00
  0.00000000E+00  0.00000000E+00  0.00000000E+00  1.00000000E+00  1.00000000E+00
MxBond                                     I                4
NBond                                      I   N=          13
           2           4           4           4           4           1
           1           1           1           1           1           1
           1
IBond                                      I   N=          52
           4           5           0           0           3           4
           6           7           2           5           8           9
           1           2          10          11           1           3
          12          13           2           0           0           0
           2           0           0           0           3           0
           0           0           3           0           0           0
           4           0           0           0           4           0
           0           0           5           0           0           0
           5           0           0           0
RBond                                      R   N=          52
  1.00000000E+00  1.00000000E+00  0.00000000E+00  0.00000000E+00  1.00000000E+00
  1.00000000E+00  1.00000000E+00  1.00000000E+00  1.00000000E+00  1.00000000E+00
  1.00000000E+00  1.00000000E+00  1.00000000E+00  1.00000000E+00  1.00000000E+00
  1.00000000E+00  1.00000000E+00  1.00000000E+00  1.00000000E+00  1.00000000E+00
  1.00000000E+00  0.00000000E+00  0.00000000E+00  0.00000000E+00  1.00000000E+00
  0.00000000E+00  0.00000000E+00  0.00000000E+00  1.00000000E+00  0.00000000E+00
  0.00000000E+00  0.00000000E+00  1.00000000E+00  0.00000000E+00  0.00000000E+00
  0.00000000E+00  1.00000000E+00  0.00000000E+00  0.00000000E+00  0.00000000E+00
  1.00000000E+00  0.00000000E+00  0.00000000E+00  0.00000000E+00  1.00000000E+00
  0.00000000E+00  0.00000000E+00  0.00000000E+00  1.00000000E+00  0.00000000E+00
  0.00000000E+00  0.00000000E+00
Virial Ratio                               R      2.000557729080027E+00
SCF Energy                                 R     -5.536435297595391E+02
MP2 Energy                                 R     -5.542883784493871E+02
Total Energy                               R     -5.542883784493871E+02
Post-SCF wavefunction norm                 R      1.569233118881022E+00
RMS Force                                  R      2.611338369634674E-06
RMS Density                                R      1.644715246845035E-09
External E-field                           R   N=          35
  0.00000000E+00  0.00000000E+00  0.00000000E+00  0.00000000E+00  0.00000000E+00
  0.00000000E+00  0.00000000E+00  0.00000000E+00  0.00000000E+00  0.00000000E+00
  0.00000000E+00  0.00000000E+00  0.00000000E+00  0.00000000E+00  0.00000000E+00
  0.00000000E+00  0.00000000E+00  0.00000000E+00  0.00000000E+00  0.00000000E+00
  0.00000000E+00  0.00000000E+00  0.00000000E+00  0.00000000E+00  0.00000000E+00
  0.00000000E+00  0.00000000E+00  0.00000000E+00  0.00000000E+00  0.00000000E+00
  0.00000000E+00  0.00000000E+00  0.00000000E+00  0.00000000E+00  0.00000000E+00
IOpCl                                      I                0
IROHF                                      I                0
Alpha Orbital Energies                     R   N=          95
 -9.19219189E+01 -1.12531334E+01 -1.12531240E+01 -1.12350343E+01 -1.12344230E+01
 -8.93270786E+00 -6.61548569E+00 -6.61436643E+00 -6.61217410E+00 -1.12851584E+00
 -9.84790280E-01 -9.65910480E-01 -7.93420014E-01 -7.79930750E-01 -6.56555638E-01
 -6.38776487E-01 -5.97181543E-01 -5.46094292E-01 -5.05284766E-01 -4.90587931E-01
 -4.80789371E-01 -4.76964293E-01 -4.20350005E-01 -3.27972884E-01  1.93516332E-01
  2.10492658E-01  2.47713195E-01  2.59814939E-01  2.84525875E-01  3.09718556E-01
  3.10050544E-01  3.14615341E-01  3.42587411E-01  3.46693443E-01  3.79641220E-01
  3.86333469E-01  4.54927815E-01  5.65856080E-01  5.79648869E-01  5.90969922E-01
  6.07632227E-01  7.01349299E-01  7.21589980E-01  7.36908242E-01  7.60845873E-01
  8.10147385E-01  8.24771616E-01  8.29288763E-01  9.27592050E-01  9.39989703E-01
  1.00742828E+00  1.02067413E+00  1.05683230E+00  1.12238917E+00  1.12586192E+00
  1.15309609E+00  1.15449601E+00  1.16579059E+00  1.18421504E+00  1.19898696E+00
  1.21578725E+00  1.22104332E+00  1.23566150E+00  1.30332583E+00  1.31351845E+00
  1.37812122E+00  1.40553764E+00  1.55199127E+00  1.72565470E+00  1.74249034E+00
  1.86879191E+00  1.89606946E+00  1.98818529E+00  2.09300847E+00  2.14501798E+00
  2.25208725E+00  2.28562723E+00  2.30098022E+00  2.36058818E+00  2.37059364E+00
  2.45602696E+00  2.54935218E+00  2.55972940E+00  2.62702014E+00  2.69709165E+00
  2.71697380E+00  2.77099835E+00  2.89008591E+00  2.92406901E+00  3.09670974E+00
  4.36632706E+00  4.58706160E+00  4.63478304E+00  4.83875830E+00  4.93287355E+00
Alpha MO coefficients                      R   N=        9025
  9.96254301E-01  1.42559386E-02  9.43144587E-05  9.22209862E-12  9.09288022E-10
 -1.99973880E-02 -1.67778349E-04  1.47776201E-10 -1.00278307E-09  2.66788043E-03
  2.36299562E-04  1.54174319E-11  1.52110438E-09  6.89083678E-03  6.89196545E-03
  6.89342113E-03  1.61595759E-11 -1.66902010E-11  1.51747821E-06  2.66006907E-06
  3.02039157E-05  1.93389127E-05 -1.39954943E-05  9.47212654E-06 -1.95856784E-04
  1.62468437E-04  1.22000745E-05 -9.67742860E-06 -1.72607549E-05  6.63016775E-07
 -1.33785678E-05  9.84978050E-06 -7.95076771E-07  4.65975597E-06  2.65934759E-06
  3.02005542E-05  1.93389513E-05  1.39954423E-05 -9.47198988E-06 -1.95837985E-04
  1.62470555E-04 -1.21945110E-05  9.67536598E-06 -1.72615975E-05  6.62292676E-07
 -1.33796679E-05 -9.85033460E-06  7.94948191E-07  4.66002989E-06 -1.50347222E-05
 -5.33044192E-06 -7.05370822E-05 -7.07763904E-05  1.49426705E-05  3.96278649E-04
  1.07018340E-04  1.63488534E-05 -1.66016825E-05 -2.93693305E-05 -2.61851449E-05
 -3.46696833E-05 -1.63779845E-05  6.55026637E-06 -7.11731657E-06 -1.50348292E-05
 -5.33023772E-06 -7.05373704E-05  7.07757061E-05 -1.49432803E-05  3.96280413E-04
  1.07019379E-04 -1.63467137E-05  1.65988946E-05 -2.93700783E-05 -2.61862378E-05
 -3.46700314E-05  1.63787296E-05 -6.55049709E-06 -7.11741235E-06  3.84514570E-05
 -5.99161972E-05 -8.40370171E-06 -3.95991770E-05  3.84511931E-05 -5.99241415E-05
 -8.40488733E-06 -3.96003488E-05 -2.41064955E-05 -1.72467439E-04 -2.66399943E-05
 -2.19349576E-04 -2.41070832E-05 -1.72466810E-04 -2.66397373E-05 -2.19348333E-04
  6.08823182E-09 -1.55436560E-07 -2.78717438E-07 -7.28584301E-05  1.36488052E-05
  1.39357800E-06  2.40010720E-06  6.42281053E-04 -1.01204030E-04  1.50412753E-05
  7.34986351E-06  1.07422625E-03 -7.29975399E-05 -1.12677637E-07 -3.18258307E-07
 -8.28318874E-07  1.73631458E-05 -4.97065402E-06 -3.04814181E-08  1.16312429E-02
  6.68804209E-04 -8.00801036E-05 -2.56913523E-05  9.66792880E-06  1.33448032E-03
 -5.41027182E-04  1.07956642E-03 -3.17250877E-04 -2.74754997E-04 -1.57780643E-04
 -4.59646340E-05  4.23885583E-05 -7.87469024E-05 -4.91490989E-06 -1.15559828E-02
 -6.68096165E-04  7.99988294E-05 -2.65833192E-05  9.80117234E-06 -1.31271182E-03
  5.30478472E-04  1.07803764E-03 -3.17304741E-04  2.72715749E-04  1.56457284E-04
  4.45640605E-05  4.13640447E-05 -7.81527633E-05  4.99622209E-06  7.06432204E-01
  1.99631116E-02 -1.46287165E-04 -3.25175391E-04  1.40401041E-05 -1.01574934E-02
 -2.43935632E-04  5.45087512E-04  8.53962960E-05 -1.21996875E-03 -1.22430133E-03
 -1.04128705E-03 -1.17846446E-04 -9.85500738E-06  3.44906224E-05 -7.01727557E-01
 -1.98293187E-02  1.45323886E-04 -3.23224468E-04  1.39126846E-05  1.00776990E-02
  2.42249723E-04  5.35515269E-04  8.74313833E-05  1.21193098E-03  1.21653934E-03
  1.03415468E-03 -1.16987274E-04 -9.72512963E-06 -3.42513506E-05 -2.09820553E-05
  1.70069789E-04 -8.22785805E-05 -3.07435249E-04  1.97195336E-05 -1.72060228E-04
  8.16109715E-05  3.09653548E-04  6.23261610E-05  1.50491834E-03  9.08948340E-05
  1.86860091E-03 -6.15094929E-05 -1.49515231E-03 -8.96326044E-05 -1.85873474E-03
  1.83497995E-06 -4.64053344E-05 -8.34679252E-05  2.43265385E-07 -4.62878316E-08
  4.18362788E-04  7.18806995E-04 -2.14555379E-06  3.43736104E-07  4.50361151E-03
  2.20011217E-03 -3.59266847E-06  2.62946598E-07 -3.38228246E-05 -9.58521768E-05
 -2.47800644E-04 -5.64689646E-08  1.91017004E-08 -9.24801024E-06  1.12234864E-02
  1.03242204E-04 -1.19867489E-05  1.33383227E-04 -2.03309851E-05  3.25615523E-03
 -1.57844120E-03  2.24325588E-04  8.59507763E-06 -3.03842109E-04 -1.97372255E-04
 -2.09789365E-04  1.53164438E-04 -8.93123395E-05  1.20945630E-05  1.13009507E-02
  1.07719943E-04 -1.25238813E-05 -1.33209513E-04  2.02646336E-05  3.26492845E-03
 -1.58199320E-03 -2.31551008E-04 -6.45878636E-06 -3.05667773E-04 -1.98418883E-04
 -2.10091559E-04 -1.53440863E-04  8.98412132E-05  1.20627706E-05  7.01762419E-01
  1.99583938E-02 -1.43571547E-04 -2.91436149E-04  1.92737082E-05 -1.19104519E-02
 -2.53203940E-04  1.43397521E-03 -3.04214475E-04 -1.19871463E-03 -1.15733723E-03
 -1.06444360E-03 -1.28188084E-04 -1.93999302E-05  3.59683544E-05  7.06466833E-01
  2.00913374E-02 -1.44545156E-04  2.93602467E-04 -1.93740876E-05 -1.19780451E-02
 -2.54816699E-04 -1.43757450E-03  3.03670809E-04 -1.20683710E-03 -1.16549008E-03
 -1.07138016E-03  1.28973843E-04  1.94640960E-05  3.62010678E-05 -1.88901441E-04
 -2.99594784E-04 -9.97166746E-05  3.33731725E-04 -1.89032961E-04 -2.98452471E-04
 -1.00263434E-04  3.31662065E-04  1.21958273E-04  1.45327296E-03  1.89050719E-04
  1.47185873E-03  1.22369464E-04  1.46330655E-03  1.89654716E-04  1.48430111E-03
 -2.31699062E-06 -3.30808996E-05  2.00487441E-05  2.35850013E-09  1.11454904E-09
 -1.19434575E-04 -2.20148791E-04 -1.50005211E-08 -8.08849943E-09 -4.13940898E-04
 -2.47056105E-04  1.92899532E-08 -3.18120533E-09 -3.06971113E-05 -9.71177925E-05
 -8.61772018E-05 -1.87487029E-09  2.39989938E-09  1.62819328E-05  7.04093850E-01
  2.03362823E-02 -1.75128376E-04 -1.63327381E-04 -5.15719899E-05 -9.84610184E-03
  1.25224206E-03 -7.56887147E-04 -4.34081987E-05 -1.22147822E-03 -1.40582474E-03
 -1.17701007E-03  5.17979674E-05 -5.29821796E-05 -1.33437192E-04  7.03924019E-01
  2.03314271E-02 -1.75081014E-04  1.63334804E-04  5.15730679E-05 -9.84244385E-03
  1.25201677E-03  7.57300076E-04  4.35393165E-05 -1.22123349E-03 -1.40562389E-03
 -1.17677253E-03 -5.17918108E-05  5.29810339E-05 -1.33454886E-04 -1.15720561E-02
 -5.52134029E-04  2.43598316E-05  1.01873368E-05  5.63507945E-05  4.26685334E-03
  1.46738021E-03 -1.05909615E-03  1.03621338E-04 -3.59015182E-04 -9.92648855E-05
 -1.50031871E-04  3.80664850E-05 -7.99961588E-05  4.81554686E-05 -1.15692196E-02
 -5.52120416E-04  2.43332935E-05 -1.02104859E-05 -5.63623206E-05  4.26616840E-03
  1.46713531E-03  1.05904263E-03 -1.03422221E-04 -3.58954688E-04 -9.92305924E-05
 -1.50032480E-04 -3.80295415E-05  7.99805611E-05  4.81551428E-05  8.68638617E-05
  1.96894122E-03  2.62488921E-05  1.54056016E-03  8.67869993E-05  1.96846502E-03
  2.61981746E-05  1.54015030E-03 -1.32652203E-04  1.90298534E-04 -2.03858823E-04
 -2.64309269E-04 -1.32621794E-04  1.90423557E-04 -2.03845699E-04 -2.64388204E-04
 -3.16256193E-10 -5.15022699E-09  1.19952876E-09 -1.78386153E-05 -5.95616242E-06
 -1.99087809E-08 -2.00413567E-08  1.18678046E-04  4.62507685E-05 -1.35604057E-08
 -9.90456606E-09 -1.54195595E-04  2.01696044E-05  1.09261308E-09 -1.35384304E-08
 -1.15808224E-08  6.05080793E-06 -4.08730822E-05  1.71987109E-09 -7.04109301E-01
 -2.01284845E-02  1.82134383E-04 -2.00718080E-05  1.51309003E-05  1.51713689E-02
 -9.42987048E-04 -1.74226518E-03 -6.52944404E-04  1.01375698E-03  8.34017300E-04
  9.95825373E-04 -3.86263600E-05  5.13822614E-06 -7.44966276E-05  7.04279086E-01
  2.01333861E-02 -1.82177436E-04 -2.00317632E-05  1.51481983E-05 -1.51737166E-02
  9.43260497E-04 -1.74208444E-03 -6.52952470E-04 -1.01405049E-03 -8.34359534E-04
 -9.96111102E-04 -3.86375881E-05  5.15052690E-06  7.44655334E-05  1.17214758E-02
  6.35576537E-05 -1.07759452E-04  8.89742207E-05  5.58842463E-05 -2.84964769E-03
 -1.03735492E-03  2.35651188E-04 -9.62307511E-04  2.39617313E-04  1.37612624E-04
  4.47715655E-06 -1.38427785E-04  8.25968590E-05 -4.48605101E-06 -1.17242617E-02
 -6.36789636E-05  1.07765065E-04  8.89753418E-05  5.58679303E-05  2.85061933E-03
  1.03770135E-03  2.35847838E-04 -9.62344088E-04 -2.39699868E-04 -1.37633773E-04
 -4.51362177E-06 -1.38436645E-04  8.26201089E-05  4.49989238E-06 -3.15164180E-04
 -1.96500077E-03 -2.10456654E-04 -1.70916830E-03  3.15184399E-04  1.96546828E-03
  2.10461882E-04  1.70954331E-03  1.25568036E-04  5.04556514E-04  5.88702234E-05
 -3.54044858E-04 -1.25597661E-04 -5.04523425E-04 -5.89139632E-05  3.53975252E-04
 -2.81774201E-01  1.03025560E+00  5.86275742E-03  3.81258502E-09  7.03169381E-08
  2.44239022E-02  1.83647097E-03 -3.29138200E-09  1.52833746E-08 -6.89593505E-03
 -1.49636284E-03 -4.80946959E-10 -1.07750766E-08 -1.11561649E-03 -9.37122229E-04
 -1.58472452E-03 -1.20008305E-09  5.67359000E-09 -8.42311711E-05 -3.42900442E-05
 -2.71682772E-04  1.19271026E-05  1.01994188E-04 -5.84191162E-05  1.00723203E-03
 -9.46114001E-04 -3.48853646E-04  3.77375649E-04  6.55799602E-05 -4.42048190E-05
 -3.23456731E-05  9.32531782E-06  1.02325009E-05 -1.50240144E-05 -3.42884532E-05
 -2.71677062E-04  1.19277847E-05 -1.01994339E-04  5.84185381E-05  1.00719723E-03
 -9.46150750E-04  3.48837606E-04 -3.77367491E-04  6.55844870E-05 -4.42044538E-05
 -3.23419528E-05 -9.32489795E-06 -1.02322955E-05 -1.50248374E-05 -4.02626686E-05
  7.05784261E-04  5.12007134E-05  5.04355218E-05 -5.32316933E-05 -1.44231439E-03
 -3.04801943E-04  2.96683838E-04  2.65326565E-05 -1.36217551E-04 -2.29191764E-04
  1.59057629E-04 -2.56618996E-04 -5.19459411E-06  8.21197737E-05 -4.02622810E-05
  7.05789753E-04  5.12024413E-05 -5.04343866E-05  5.32298485E-05 -1.44234511E-03
 -3.04813794E-04 -2.96701257E-04 -2.65024602E-05 -1.36215835E-04 -2.29190141E-04
  1.59057376E-04  2.56617355E-04  5.19044461E-06  8.21278907E-05 -2.03944015E-04