568942                                                                  
Freq      RMP2-FC                                                     6-31G(d)            
Number of atoms                            I               28
Info1-9                                    I   N=           9
          40          38        1002           0           0         100
           6           2           1
Charge                                     I                0
Multiplicity                               I                1
Number of electrons                        I               88
Number of alpha electrons                  I               44
Number of beta electrons                   I               44
Number of basis functions                  I              212
Number of independent functions            I              212
Number of point charges in /Mol/           I                0
Number of translation vectors              I                0
Atomic numbers                             I   N=          28
           6           6           6           6           6           6
           6           6           6           6           6           6
           1           1           1           1           1           1
           1           1           1           1           1           1
           1           1           1           1
Nuclear charges                            R   N=          28
  6.00000000E+00  6.00000000E+00  6.00000000E+00  6.00000000E+00  6.00000000E+00
  6.00000000E+00  6.00000000E+00  6.00000000E+00  6.00000000E+00  6.00000000E+00
  6.00000000E+00  6.00000000E+00  1.00000000E+00  1.00000000E+00  1.00000000E+00
  1.00000000E+00  1.00000000E+00  1.00000000E+00  1.00000000E+00  1.00000000E+00
  1.00000000E+00  1.00000000E+00  1.00000000E+00  1.00000000E+00  1.00000000E+00
  1.00000000E+00  1.00000000E+00  1.00000000E+00
Current cartesian coordinates              R   N=          84
 -8.36396460E-01 -1.57569227E+00  4.10449879E-01 -5.20625217E+00 -4.41294894E-01
 -5.07632743E-01 -2.59409075E+00 -6.41238640E-01 -1.72796619E+00 -2.16504206E+00
 -7.11773584E-01  2.89892217E+00 -4.56165595E+00  7.02161417E-01  2.06960487E+00
  1.84486004E+00 -6.56897307E-01  1.31648967E-01 -7.12359957E+00  1.05876503E+00
 -2.03869102E+00  2.41606465E+00  1.92577408E+00  3.33824383E-01  3.82175310E+00
 -2.34228236E+00 -3.70057989E-01  4.88850193E+00  2.79254482E+00  4.98843677E-02
  6.30163168E+00 -1.48454378E+00 -6.59651652E-01  6.84257664E+00  1.08790999E+00
 -4.51693090E-01 -8.01585362E-01 -3.64926239E+00  3.63630120E-01 -5.93651197E+00
 -2.36440856E+00 -2.02363042E-01 -1.99808785E+00  1.24513369E+00 -2.35679856E+00
 -2.54184250E+00 -1.88365087E+00 -3.38449457E+00 -9.18793393E-01  4.52175617E-01
  4.06824969E+00 -2.66884078E+00 -2.37039344E+00  4.03084649E+00 -6.10834222E+00
  5.54800098E-01  3.43876560E+00 -4.15902022E+00  2.72324042E+00  1.81330229E+00
 -6.43220212E+00  2.98282618E+00 -2.36530363E+00 -7.46559088E+00  1.82460389E-01
 -3.88118292E+00 -8.93635038E+00  1.19049420E+00 -1.05012474E+00  9.09403263E-01
  3.27339605E+00  7.24013972E-01  3.41394894E+00 -4.35336903E+00 -5.28946503E-01
  5.29318877E+00  4.80103341E+00  2.17725399E-01  7.80955912E+00 -2.82705263E+00
 -1.04594961E+00  8.77096103E+00  1.76198179E+00 -6.73221686E-01
Force Field                                I                0
Int Atom Types                             I   N=          28
           0           0           0           0           0           0
           0           0           0           0           0           0
           0           0           0           0           0           0
           0           0           0           0           0           0
           0           0           0           0
MM charges                                 R   N=          28
  0.00000000E+00  0.00000000E+00  0.00000000E+00  0.00000000E+00  0.00000000E+00
  0.00000000E+00  0.00000000E+00  0.00000000E+00  0.00000000E+00  0.00000000E+00
  0.00000000E+00  0.00000000E+00  0.00000000E+00  0.00000000E+00  0.00000000E+00
  0.00000000E+00  0.00000000E+00  0.00000000E+00  0.00000000E+00  0.00000000E+00
  0.00000000E+00  0.00000000E+00  0.00000000E+00  0.00000000E+00  0.00000000E+00
  0.00000000E+00  0.00000000E+00  0.00000000E+00
Integer atomic weights                     I   N=          28
          12          12          12          12          12          12
          12          12          12          12          12          12
           1           1           1           1           1           1
           1           1           1           1           1           1
           1           1           1           1
Real atomic weights                        R   N=          28
  1.20000000E+01  1.20000000E+01  1.20000000E+01  1.20000000E+01  1.20000000E+01
  1.20000000E+01  1.20000000E+01  1.20000000E+01  1.20000000E+01  1.20000000E+01
  1.20000000E+01  1.20000000E+01  1.00782504E+00  1.00782504E+00  1.00782504E+00
  1.00782504E+00  1.00782504E+00  1.00782504E+00  1.00782504E+00  1.00782504E+00
  1.00782504E+00  1.00782504E+00  1.00782504E+00  1.00782504E+00  1.00782504E+00
  1.00782504E+00  1.00782504E+00  1.00782504E+00
Atom fragment info                         I   N=          28
           0           0           0           0           0           0
           0           0           0           0           0           0
           0           0           0           0           0           0
           0           0           0           0           0           0
           0           0           0           0
Atom residue num                           I   N=          28
           0           0           0           0           0           0
           0           0           0           0           0           0
           0           0           0           0           0           0
           0           0           0           0           0           0
           0           0           0           0
Nuclear spins                              I   N=          28
           0           0           0           0           0           0
           0           0           0           0           0           0
           1           1           1           1           1           1
           1           1           1           1           1           1
           1           1           1           1
Nuclear ZEff                               R   N=          28
 -3.60000000E+00 -3.60000000E+00 -3.60000000E+00 -3.60000000E+00 -3.60000000E+00
 -3.60000000E+00 -3.60000000E+00 -3.60000000E+00 -3.60000000E+00 -3.60000000E+00
 -3.60000000E+00 -3.60000000E+00 -1.00000000E+00 -1.00000000E+00 -1.00000000E+00
 -1.00000000E+00 -1.00000000E+00 -1.00000000E+00 -1.00000000E+00 -1.00000000E+00
 -1.00000000E+00 -1.00000000E+00 -1.00000000E+00 -1.00000000E+00 -1.00000000E+00
 -1.00000000E+00 -1.00000000E+00 -1.00000000E+00
Nuclear QMom                               R   N=          28
  0.00000000E+00  0.00000000E+00  0.00000000E+00  0.00000000E+00  0.00000000E+00
  0.00000000E+00  0.00000000E+00  0.00000000E+00  0.00000000E+00  0.00000000E+00
  0.00000000E+00  0.00000000E+00  0.00000000E+00  0.00000000E+00  0.00000000E+00
  0.00000000E+00  0.00000000E+00  0.00000000E+00  0.00000000E+00  0.00000000E+00
  0.00000000E+00  0.00000000E+00  0.00000000E+00  0.00000000E+00  0.00000000E+00
  0.00000000E+00  0.00000000E+00  0.00000000E+00
Nuclear GFac                               R   N=          28
  0.00000000E+00  0.00000000E+00  0.00000000E+00  0.00000000E+00  0.00000000E+00
  0.00000000E+00  0.00000000E+00  0.00000000E+00  0.00000000E+00  0.00000000E+00
  0.00000000E+00  0.00000000E+00  2.79284600E+00  2.79284600E+00  2.79284600E+00
  2.79284600E+00  2.79284600E+00  2.79284600E+00  2.79284600E+00  2.79284600E+00
  2.79284600E+00  2.79284600E+00  2.79284600E+00  2.79284600E+00  2.79284600E+00
  2.79284600E+00  2.79284600E+00  2.79284600E+00
MicOpt                                     I   N=          28
          -1          -1          -1          -1          -1          -1
          -1          -1          -1          -1          -1          -1
          -1          -1          -1          -1          -1          -1
          -1          -1          -1          -1          -1          -1
          -1          -1          -1          -1
Number of contracted shells                I               80
Number of primitive shells                 I              196
Pure/Cartesian d shells                    I                1
Pure/Cartesian f shells                    I                0
Highest angular momentum                   I                2
Largest degree of contraction              I                6
Shell types                                I   N=          80
           0          -1          -1           2           0          -1
          -1           2           0          -1          -1           2
           0          -1          -1           2           0          -1
          -1           2           0          -1          -1           2
           0          -1          -1           2           0          -1
          -1           2           0          -1          -1           2
           0          -1          -1           2           0          -1
          -1           2           0          -1          -1           2
           0           0           0           0           0           0
           0           0           0           0           0           0
           0           0           0           0           0           0
           0           0           0           0           0           0
           0           0           0           0           0           0
           0           0
Number of primitives per shell             I   N=          80
           6           3           1           1           6           3
           1           1           6           3           1           1
           6           3           1           1           6           3
           1           1           6           3           1           1
           6           3           1           1           6           3
           1           1           6           3           1           1
           6           3           1           1           6           3
           1           1           6           3           1           1
           3           1           3           1           3           1
           3           1           3           1           3           1
           3           1           3           1           3           1
           3           1           3           1           3           1
           3           1           3           1           3           1
           3           1
Shell to atom map                          I   N=          80
           1           1           1           1           2           2
           2           2           3           3           3           3
           4           4           4           4           5           5
           5           5           6           6           6           6
           7           7           7           7           8           8
           8           8           9           9           9           9
          10          10          10          10          11          11
          11          11          12          12          12          12
          13          13          14          14          15          15
          16          16          17          17          18          18
          19          19          20          20          21          21
          22          22          23          23          24          24
          25          25          26          26          27          27
          28          28
Primitive exponents                        R   N=         196
  3.04752488E+03  4.57369518E+02  1.03948685E+02  2.92101553E+01  9.28666296E+00
  3.16392696E+00  7.86827235E+00  1.88128854E+00  5.44249258E-01  1.68714478E-01
  8.00000000E-01  3.04752488E+03  4.57369518E+02  1.03948685E+02  2.92101553E+01
  9.28666296E+00  3.16392696E+00  7.86827235E+00  1.88128854E+00  5.44249258E-01
  1.68714478E-01  8.00000000E-01  3.04752488E+03  4.57369518E+02  1.03948685E+02
  2.92101553E+01  9.28666296E+00  3.16392696E+00  7.86827235E+00  1.88128854E+00
  5.44249258E-01  1.68714478E-01  8.00000000E-01  3.04752488E+03  4.57369518E+02
  1.03948685E+02  2.92101553E+01  9.28666296E+00  3.16392696E+00  7.86827235E+00
  1.88128854E+00  5.44249258E-01  1.68714478E-01  8.00000000E-01  3.04752488E+03
  4.57369518E+02  1.03948685E+02  2.92101553E+01  9.28666296E+00  3.16392696E+00
  7.86827235E+00  1.88128854E+00  5.44249258E-01  1.68714478E-01  8.00000000E-01
  3.04752488E+03  4.57369518E+02  1.03948685E+02  2.92101553E+01  9.28666296E+00
  3.16392696E+00  7.86827235E+00  1.88128854E+00  5.44249258E-01  1.68714478E-01
  8.00000000E-01  3.04752488E+03  4.57369518E+02  1.03948685E+02  2.92101553E+01
  9.28666296E+00  3.16392696E+00  7.86827235E+00  1.88128854E+00  5.44249258E-01
  1.68714478E-01  8.00000000E-01  3.04752488E+03  4.57369518E+02  1.03948685E+02
  2.92101553E+01  9.28666296E+00  3.16392696E+00  7.86827235E+00  1.88128854E+00
  5.44249258E-01  1.68714478E-01  8.00000000E-01  3.04752488E+03  4.57369518E+02
  1.03948685E+02  2.92101553E+01  9.28666296E+00  3.16392696E+00  7.86827235E+00
  1.88128854E+00  5.44249258E-01  1.68714478E-01  8.00000000E-01  3.04752488E+03
  4.57369518E+02  1.03948685E+02  2.92101553E+01  9.28666296E+00  3.16392696E+00
  7.86827235E+00  1.88128854E+00  5.44249258E-01  1.68714478E-01  8.00000000E-01
  3.04752488E+03  4.57369518E+02  1.03948685E+02  2.92101553E+01  9.28666296E+00
  3.16392696E+00  7.86827235E+00  1.88128854E+00  5.44249258E-01  1.68714478E-01
  8.00000000E-01  3.04752488E+03  4.57369518E+02  1.03948685E+02  2.92101553E+01
  9.28666296E+00  3.16392696E+00  7.86827235E+00  1.88128854E+00  5.44249258E-01
  1.68714478E-01  8.00000000E-01  1.87311370E+01  2.82539436E+00  6.40121692E-01
  1.61277759E-01  1.87311370E+01  2.82539436E+00  6.40121692E-01  1.61277759E-01
  1.87311370E+01  2.82539436E+00  6.40121692E-01  1.61277759E-01  1.87311370E+01
  2.82539436E+00  6.40121692E-01  1.61277759E-01  1.87311370E+01  2.82539436E+00
  6.40121692E-01  1.61277759E-01  1.87311370E+01  2.82539436E+00  6.40121692E-01
  1.61277759E-01  1.87311370E+01  2.82539436E+00  6.40121692E-01  1.61277759E-01
  1.87311370E+01  2.82539436E+00  6.40121692E-01  1.61277759E-01  1.87311370E+01
  2.82539436E+00  6.40121692E-01  1.61277759E-01  1.87311370E+01  2.82539436E+00
  6.40121692E-01  1.61277759E-01  1.87311370E+01  2.82539436E+00  6.40121692E-01
  1.61277759E-01  1.87311370E+01  2.82539436E+00  6.40121692E-01  1.61277759E-01
  1.87311370E+01  2.82539436E+00  6.40121692E-01  1.61277759E-01  1.87311370E+01
  2.82539436E+00  6.40121692E-01  1.61277759E-01  1.87311370E+01  2.82539436E+00
  6.40121692E-01  1.61277759E-01  1.87311370E+01  2.82539436E+00  6.40121692E-01
  1.61277759E-01
Contraction coefficients                   R   N=         196
  1.83473713E-03  1.40373228E-02  6.88426223E-02  2.32184443E-01  4.67941348E-01
  3.62311985E-01 -1.19332420E-01 -1.60854152E-01  1.14345644E+00  1.00000000E+00
  1.00000000E+00  1.83473713E-03  1.40373228E-02  6.88426223E-02  2.32184443E-01
  4.67941348E-01  3.62311985E-01 -1.19332420E-01 -1.60854152E-01  1.14345644E+00
  1.00000000E+00  1.00000000E+00  1.83473713E-03  1.40373228E-02  6.88426223E-02
  2.32184443E-01  4.67941348E-01  3.62311985E-01 -1.19332420E-01 -1.60854152E-01
  1.14345644E+00  1.00000000E+00  1.00000000E+00  1.83473713E-03  1.40373228E-02
  6.88426223E-02  2.32184443E-01  4.67941348E-01  3.62311985E-01 -1.19332420E-01
 -1.60854152E-01  1.14345644E+00  1.00000000E+00  1.00000000E+00  1.83473713E-03
  1.40373228E-02  6.88426223E-02  2.32184443E-01  4.67941348E-01  3.62311985E-01
 -1.19332420E-01 -1.60854152E-01  1.14345644E+00  1.00000000E+00  1.00000000E+00
  1.83473713E-03  1.40373228E-02  6.88426223E-02  2.32184443E-01  4.67941348E-01
  3.62311985E-01 -1.19332420E-01 -1.60854152E-01  1.14345644E+00  1.00000000E+00
  1.00000000E+00  1.83473713E-03  1.40373228E-02  6.88426223E-02  2.32184443E-01
  4.67941348E-01  3.62311985E-01 -1.19332420E-01 -1.60854152E-01  1.14345644E+00
  1.00000000E+00  1.00000000E+00  1.83473713E-03  1.40373228E-02  6.88426223E-02
  2.32184443E-01  4.67941348E-01  3.62311985E-01 -1.19332420E-01 -1.60854152E-01
  1.14345644E+00  1.00000000E+00  1.00000000E+00  1.83473713E-03  1.40373228E-02
  6.88426223E-02  2.32184443E-01  4.67941348E-01  3.62311985E-01 -1.19332420E-01
 -1.60854152E-01  1.14345644E+00  1.00000000E+00  1.00000000E+00  1.83473713E-03
  1.40373228E-02  6.88426223E-02  2.32184443E-01  4.67941348E-01  3.62311985E-01
 -1.19332420E-01 -1.60854152E-01  1.14345644E+00  1.00000000E+00  1.00000000E+00
  1.83473713E-03  1.40373228E-02  6.88426223E-02  2.32184443E-01  4.67941348E-01
  3.62311985E-01 -1.19332420E-01 -1.60854152E-01  1.14345644E+00  1.00000000E+00
  1.00000000E+00  1.83473713E-03  1.40373228E-02  6.88426223E-02  2.32184443E-01
  4.67941348E-01  3.62311985E-01 -1.19332420E-01 -1.60854152E-01  1.14345644E+00
  1.00000000E+00  1.00000000E+00  3.34946043E-02  2.34726953E-01  8.13757326E-01
  1.00000000E+00  3.34946043E-02  2.34726953E-01  8.13757326E-01  1.00000000E+00
  3.34946043E-02  2.34726953E-01  8.13757326E-01  1.00000000E+00  3.34946043E-02
  2.34726953E-01  8.13757326E-01  1.00000000E+00  3.34946043E-02  2.34726953E-01
  8.13757326E-01  1.00000000E+00  3.34946043E-02  2.34726953E-01  8.13757326E-01
  1.00000000E+00  3.34946043E-02  2.34726953E-01  8.13757326E-01  1.00000000E+00
  3.34946043E-02  2.34726953E-01  8.13757326E-01  1.00000000E+00  3.34946043E-02
  2.34726953E-01  8.13757326E-01  1.00000000E+00  3.34946043E-02  2.34726953E-01
  8.13757326E-01  1.00000000E+00  3.34946043E-02  2.34726953E-01  8.13757326E-01
  1.00000000E+00  3.34946043E-02  2.34726953E-01  8.13757326E-01  1.00000000E+00
  3.34946043E-02  2.34726953E-01  8.13757326E-01  1.00000000E+00  3.34946043E-02
  2.34726953E-01  8.13757326E-01  1.00000000E+00  3.34946043E-02  2.34726953E-01
  8.13757326E-01  1.00000000E+00  3.34946043E-02  2.34726953E-01  8.13757326E-01
  1.00000000E+00
P(S=P) Contraction coefficients            R   N=         196
  0.00000000E+00  0.00000000E+00  0.00000000E+00  0.00000000E+00  0.00000000E+00
  0.00000000E+00  6.89990666E-02  3.16423961E-01  7.44308291E-01  1.00000000E+00
  0.00000000E+00  0.00000000E+00  0.00000000E+00  0.00000000E+00  0.00000000E+00
  0.00000000E+00  0.00000000E+00  6.89990666E-02  3.16423961E-01  7.44308291E-01
  1.00000000E+00  0.00000000E+00  0.00000000E+00  0.00000000E+00  0.00000000E+00
  0.00000000E+00  0.00000000E+00  0.00000000E+00  6.89990666E-02  3.16423961E-01
  7.44308291E-01  1.00000000E+00  0.00000000E+00  0.00000000E+00  0.00000000E+00
  0.00000000E+00  0.00000000E+00  0.00000000E+00  0.00000000E+00  6.89990666E-02
  3.16423961E-01  7.44308291E-01  1.00000000E+00  0.00000000E+00  0.00000000E+00
  0.00000000E+00  0.00000000E+00  0.00000000E+00  0.00000000E+00  0.00000000E+00
  6.89990666E-02  3.16423961E-01  7.44308291E-01  1.00000000E+00  0.00000000E+00
  0.00000000E+00  0.00000000E+00  0.00000000E+00  0.00000000E+00  0.00000000E+00
  0.00000000E+00  6.89990666E-02  3.16423961E-01  7.44308291E-01  1.00000000E+00
  0.00000000E+00  0.00000000E+00  0.00000000E+00  0.00000000E+00  0.00000000E+00
  0.00000000E+00  0.00000000E+00  6.89990666E-02  3.16423961E-01  7.44308291E-01
  1.00000000E+00  0.00000000E+00  0.00000000E+00  0.00000000E+00  0.00000000E+00
  0.00000000E+00  0.00000000E+00  0.00000000E+00  6.89990666E-02  3.16423961E-01
  7.44308291E-01  1.00000000E+00  0.00000000E+00  0.00000000E+00  0.00000000E+00
  0.00000000E+00  0.00000000E+00  0.00000000E+00  0.00000000E+00  6.89990666E-02
  3.16423961E-01  7.44308291E-01  1.00000000E+00  0.00000000E+00  0.00000000E+00
  0.00000000E+00  0.00000000E+00  0.00000000E+00  0.00000000E+00  0.00000000E+00
  6.89990666E-02  3.16423961E-01  7.44308291E-01  1.00000000E+00  0.00000000E+00
  0.00000000E+00  0.00000000E+00  0.00000000E+00  0.00000000E+00  0.00000000E+00
  0.00000000E+00  6.89990666E-02  3.16423961E-01  7.44308291E-01  1.00000000E+00
  0.00000000E+00  0.00000000E+00  0.00000000E+00  0.00000000E+00  0.00000000E+00
  0.00000000E+00  0.00000000E+00  6.89990666E-02  3.16423961E-01  7.44308291E-01
  1.00000000E+00  0.00000000E+00  0.00000000E+00  0.00000000E+00  0.00000000E+00
  0.00000000E+00  0.00000000E+00  0.00000000E+00  0.00000000E+00  0.00000000E+00
  0.00000000E+00  0.00000000E+00  0.00000000E+00  0.00000000E+00  0.00000000E+00
  0.00000000E+00  0.00000000E+00  0.00000000E+00  0.00000000E+00  0.00000000E+00
  0.00000000E+00  0.00000000E+00  0.00000000E+00  0.00000000E+00  0.00000000E+00
  0.00000000E+00  0.00000000E+00  0.00000000E+00  0.00000000E+00  0.00000000E+00
  0.00000000E+00  0.00000000E+00  0.00000000E+00  0.00000000E+00  0.00000000E+00
  0.00000000E+00  0.00000000E+00  0.00000000E+00  0.00000000E+00  0.00000000E+00
  0.00000000E+00  0.00000000E+00  0.00000000E+00  0.00000000E+00  0.00000000E+00
  0.00000000E+00  0.00000000E+00  0.00000000E+00  0.00000000E+00  0.00000000E+00
  0.00000000E+00  0.00000000E+00  0.00000000E+00  0.00000000E+00  0.00000000E+00
  0.00000000E+00  0.00000000E+00  0.00000000E+00  0.00000000E+00  0.00000000E+00
  0.00000000E+00  0.00000000E+00  0.00000000E+00  0.00000000E+00  0.00000000E+00
  0.00000000E+00
Coordinates of each shell                  R   N=         240
 -8.36396460E-01 -1.57569227E+00  4.10449879E-01 -8.36396460E-01 -1.57569227E+00
  4.10449879E-01 -8.36396460E-01 -1.57569227E+00  4.10449879E-01 -8.36396460E-01
 -1.57569227E+00  4.10449879E-01 -5.20625217E+00 -4.41294894E-01 -5.07632743E-01
 -5.20625217E+00 -4.41294894E-01 -5.07632743E-01 -5.20625217E+00 -4.41294894E-01
 -5.07632743E-01 -5.20625217E+00 -4.41294894E-01 -5.07632743E-01 -2.59409075E+00
 -6.41238640E-01 -1.72796619E+00 -2.59409075E+00 -6.41238640E-01 -1.72796619E+00
 -2.59409075E+00 -6.41238640E-01 -1.72796619E+00 -2.59409075E+00 -6.41238640E-01
 -1.72796619E+00 -2.16504206E+00 -7.11773584E-01  2.89892217E+00 -2.16504206E+00
 -7.11773584E-01  2.89892217E+00 -2.16504206E+00 -7.11773584E-01  2.89892217E+00
 -2.16504206E+00 -7.11773584E-01  2.89892217E+00 -4.56165595E+00  7.02161417E-01
  2.06960487E+00 -4.56165595E+00  7.02161417E-01  2.06960487E+00 -4.56165595E+00
  7.02161417E-01  2.06960487E+00 -4.56165595E+00  7.02161417E-01  2.06960487E+00
  1.84486004E+00 -6.56897307E-01  1.31648967E-01  1.84486004E+00 -6.56897307E-01
  1.31648967E-01  1.84486004E+00 -6.56897307E-01  1.31648967E-01  1.84486004E+00
 -6.56897307E-01  1.31648967E-01 -7.12359957E+00  1.05876503E+00 -2.03869102E+00
 -7.12359957E+00  1.05876503E+00 -2.03869102E+00 -7.12359957E+00  1.05876503E+00
 -2.03869102E+00 -7.12359957E+00  1.05876503E+00 -2.03869102E+00  2.41606465E+00
  1.92577408E+00  3.33824383E-01  2.41606465E+00  1.92577408E+00  3.33824383E-01
  2.41606465E+00  1.92577408E+00  3.33824383E-01  2.41606465E+00  1.92577408E+00
  3.33824383E-01  3.82175310E+00 -2.34228236E+00 -3.70057989E-01  3.82175310E+00
 -2.34228236E+00 -3.70057989E-01  3.82175310E+00 -2.34228236E+00 -3.70057989E-01
  3.82175310E+00 -2.34228236E+00 -3.70057989E-01  4.88850193E+00  2.79254482E+00
  4.98843677E-02  4.88850193E+00  2.79254482E+00  4.98843677E-02  4.88850193E+00
  2.79254482E+00  4.98843677E-02  4.88850193E+00  2.79254482E+00  4.98843677E-02
  6.30163168E+00 -1.48454378E+00 -6.59651652E-01  6.30163168E+00 -1.48454378E+00
 -6.59651652E-01  6.30163168E+00 -1.48454378E+00 -6.59651652E-01  6.30163168E+00
 -1.48454378E+00 -6.59651652E-01  6.84257664E+00  1.08790999E+00 -4.51693090E-01
  6.84257664E+00  1.08790999E+00 -4.51693090E-01  6.84257664E+00  1.08790999E+00
 -4.51693090E-01  6.84257664E+00  1.08790999E+00 -4.51693090E-01 -8.01585362E-01
 -3.64926239E+00  3.63630120E-01 -8.01585362E-01 -3.64926239E+00  3.63630120E-01
 -5.93651197E+00 -2.36440856E+00 -2.02363042E-01 -5.93651197E+00 -2.36440856E+00
 -2.02363042E-01 -1.99808785E+00  1.24513369E+00 -2.35679856E+00 -1.99808785E+00
  1.24513369E+00 -2.35679856E+00 -2.54184250E+00 -1.88365087E+00 -3.38449457E+00
 -2.54184250E+00 -1.88365087E+00 -3.38449457E+00 -9.18793393E-01  4.52175617E-01
  4.06824969E+00 -9.18793393E-01  4.52175617E-01  4.06824969E+00 -2.66884078E+00
 -2.37039344E+00  4.03084649E+00 -2.66884078E+00 -2.37039344E+00  4.03084649E+00
 -6.10834222E+00  5.54800098E-01  3.43876560E+00 -6.10834222E+00  5.54800098E-01
  3.43876560E+00 -4.15902022E+00  2.72324042E+00  1.81330229E+00 -4.15902022E+00
  2.72324042E+00  1.81330229E+00 -6.43220212E+00  2.98282618E+00 -2.36530363E+00
 -6.43220212E+00  2.98282618E+00 -2.36530363E+00 -7.46559088E+00  1.82460389E-01
 -3.88118292E+00 -7.46559088E+00  1.82460389E-01 -3.88118292E+00 -8.93635038E+00
  1.19049420E+00 -1.05012474E+00 -8.93635038E+00  1.19049420E+00 -1.05012474E+00
  9.09403263E-01  3.27339605E+00  7.24013972E-01  9.09403263E-01  3.27339605E+00
  7.24013972E-01  3.41394894E+00 -4.35336903E+00 -5.28946503E-01  3.41394894E+00
 -4.35336903E+00 -5.28946503E-01  5.29318877E+00  4.80103341E+00  2.17725399E-01
  5.29318877E+00  4.80103341E+00  2.17725399E-01  7.80955912E+00 -2.82705263E+00
 -1.04594961E+00  7.80955912E+00 -2.82705263E+00 -1.04594961E+00  8.77096103E+00
  1.76198179E+00 -6.73221686E-01  8.77096103E+00  1.76198179E+00 -6.73221686E-01
Constraint Structure                       R   N=          84
 -8.36396460E-01 -1.57569227E+00  4.10449879E-01 -5.20625217E+00 -4.41294894E-01
 -5.07632743E-01 -2.59409075E+00 -6.41238640E-01 -1.72796619E+00 -2.16504206E+00
 -7.11773584E-01  2.89892217E+00 -4.56165595E+00  7.02161417E-01  2.06960487E+00
  1.84486004E+00 -6.56897307E-01  1.31648967E-01 -7.12359957E+00  1.05876503E+00
 -2.03869102E+00  2.41606465E+00  1.92577408E+00  3.33824383E-01  3.82175310E+00
 -2.34228236E+00 -3.70057989E-01  4.88850193E+00  2.79254482E+00  4.98843677E-02
  6.30163168E+00 -1.48454378E+00 -6.59651652E-01  6.84257664E+00  1.08790999E+00
 -4.51693090E-01 -8.01585362E-01 -3.64926239E+00  3.63630120E-01 -5.93651197E+00
 -2.36440856E+00 -2.02363042E-01 -1.99808785E+00  1.24513369E+00 -2.35679856E+00
 -2.54184250E+00 -1.88365087E+00 -3.38449457E+00 -9.18793393E-01  4.52175617E-01
  4.06824969E+00 -2.66884078E+00 -2.37039344E+00  4.03084649E+00 -6.10834222E+00
  5.54800098E-01  3.43876560E+00 -4.15902022E+00  2.72324042E+00  1.81330229E+00
 -6.43220212E+00  2.98282618E+00 -2.36530363E+00 -7.46559088E+00  1.82460389E-01
 -3.88118292E+00 -8.93635038E+00  1.19049420E+00 -1.05012474E+00  9.09403263E-01
  3.27339605E+00  7.24013972E-01  3.41394894E+00 -4.35336903E+00 -5.28946503E-01
  5.29318877E+00  4.80103341E+00  2.17725399E-01  7.80955912E+00 -2.82705263E+00
 -1.04594961E+00  8.77096103E+00  1.76198179E+00 -6.73221686E-01
Num ILSW                                   I              100
ILSW                                       I   N=         100
           0           1           0           0           2           0
           0           0           0           0           0          -1
           0           0           0           0           0           0
           0           0           0           0           1           0
           1           0           0           0           0           0
           0           0      100000           0          -1           0
           0           0           0           0           0           0
           0           0           0           1           1           0
           0           0           1           0           0           0
           0           0           4          40           0           0
           0           0           0           0           0           0
           0           0           0           0           0           0
           0           0           0           0           0           0
           0           0           0           0           0           0
           0           0           0           0           0           0
           0           0           0           0           0           0
           0           0           0           0
Num RLSW                                   I               40
RLSW                                       R   N=          40
  1.00000000E+00  1.00000000E+00  1.00000000E+00  1.00000000E+00  1.00000000E+00
  0.00000000E+00  0.00000000E+00  1.00000000E+00  0.00000000E+00  0.00000000E+00
  0.00000000E+00  0.00000000E+00  1.00000000E+00  0.00000000E+00  0.00000000E+00
  0.00000000E+00  0.00000000E+00  1.00000000E+00  0.00000000E+00  0.00000000E+00
  0.00000000E+00  0.00000000E+00  1.00000000E+00  0.00000000E+00  0.00000000E+00
  0.00000000E+00  0.00000000E+00  1.00000000E+00  0.00000000E+00  0.00000000E+00
  0.00000000E+00  0.00000000E+00  0.00000000E+00  0.00000000E+00  0.00000000E+00
  0.00000000E+00  0.00000000E+00  0.00000000E+00  1.00000000E+00  1.00000000E+00
MxBond                                     I                4
NBond                                      I   N=          28
           4           4           4           4           4           3
           4           3           3           3           3           3
           1           1           1           1           1           1
           1           1           1           1           1           1
           1           1           1           1
IBond                                      I   N=         112
           3           4           6          13           3           5
           7          14           1           2          15          16
           1           5          17          18           2           4
          19          20           1           8           9           0
           2          21          22          23           6          10