20330734                                                                
Freq      RMP2-FC                                                     6-31G(d)            
Number of atoms                            I               19
Info1-9                                    I   N=           9
          31          29        1002           0           0         100
           6           2           1
Charge                                     I                0
Multiplicity                               I                1
Number of electrons                        I               82
Number of alpha electrons                  I               41
Number of beta electrons                   I               41
Number of basis functions                  I              172
Number of independent functions            I              172
Number of point charges in /Mol/           I                0
Number of translation vectors              I                0
Atomic numbers                             I   N=          19
          16           8           7           6           6           6
           6           6           6           6           1           1
           1           1           1           1           1           1
           1
Nuclear charges                            R   N=          19
  1.60000000E+01  8.00000000E+00  7.00000000E+00  6.00000000E+00  6.00000000E+00
  6.00000000E+00  6.00000000E+00  6.00000000E+00  6.00000000E+00  6.00000000E+00
  1.00000000E+00  1.00000000E+00  1.00000000E+00  1.00000000E+00  1.00000000E+00
  1.00000000E+00  1.00000000E+00  1.00000000E+00  1.00000000E+00
Current cartesian coordinates              R   N=          57
 -1.89932400E+00 -3.28362397E+00 -2.85861530E-02  4.02386798E+00  3.05314255E+00
 -1.13867863E-01  2.70760193E+00 -1.07959775E+00 -4.23127501E-04 -3.91410930E+00
  1.15550236E+00  1.92953364E-02  9.10956551E-02 -6.70133598E-01  5.23445693E-03
 -1.24727805E+00  1.55995497E+00  2.47174134E-02 -4.53592293E+00 -1.36412141E+00
 -4.91368980E-03 -5.81055945E+00  3.26559945E+00  4.05831946E-02  4.52679434E+00
  7.85133464E-01 -4.75026194E-02  7.21049414E+00 -2.02569803E-01  8.58078180E-02
 -3.37975912E-01  3.39037391E+00  3.82642968E-02 -6.40014340E+00 -2.20818809E+00
 -8.23626248E-03  3.30731255E+00 -2.89652863E+00  5.67282574E-02 -5.58592169E+00
  4.48238123E+00 -1.61696616E+00 -7.73949531E+00  2.52486979E+00  3.48782341E-02
 -5.58392417E+00  4.45139365E+00  1.72018628E+00  7.42926814E+00 -2.04609582E+00
 -8.20816148E-01  7.78775029E+00 -3.68942605E-01  2.06434944E+00  8.44506980E+00
  1.16457131E+00 -8.36436152E-01
Force Field                                I                0
Int Atom Types                             I   N=          19
           0           0           0           0           0           0
           0           0           0           0           0           0
           0           0           0           0           0           0
           0
MM charges                                 R   N=          19
  0.00000000E+00  0.00000000E+00  0.00000000E+00  0.00000000E+00  0.00000000E+00
  0.00000000E+00  0.00000000E+00  0.00000000E+00  0.00000000E+00  0.00000000E+00
  0.00000000E+00  0.00000000E+00  0.00000000E+00  0.00000000E+00  0.00000000E+00
  0.00000000E+00  0.00000000E+00  0.00000000E+00  0.00000000E+00
Integer atomic weights                     I   N=          19
          32          16          14          12          12          12
          12          12          12          12           1           1
           1           1           1           1           1           1
           1
Real atomic weights                        R   N=          19
  3.19720718E+01  1.59949146E+01  1.40030740E+01  1.20000000E+01  1.20000000E+01
  1.20000000E+01  1.20000000E+01  1.20000000E+01  1.20000000E+01  1.20000000E+01
  1.00782504E+00  1.00782504E+00  1.00782504E+00  1.00782504E+00  1.00782504E+00
  1.00782504E+00  1.00782504E+00  1.00782504E+00  1.00782504E+00
Atom fragment info                         I   N=          19
           0           0           0           0           0           0
           0           0           0           0           0           0
           0           0           0           0           0           0
           0
Atom residue num                           I   N=          19
           0           0           0           0           0           0
           0           0           0           0           0           0
           0           0           0           0           0           0
           0
Nuclear spins                              I   N=          19
           0           0           2           0           0           0
           0           0           0           0           1           1
           1           1           1           1           1           1
           1
Nuclear ZEff                               R   N=          19
 -1.36000000E+01 -5.60000000E+00 -4.55000000E+00 -3.60000000E+00 -3.60000000E+00
 -3.60000000E+00 -3.60000000E+00 -3.60000000E+00 -3.60000000E+00 -3.60000000E+00
 -1.00000000E+00 -1.00000000E+00 -1.00000000E+00 -1.00000000E+00 -1.00000000E+00
 -1.00000000E+00 -1.00000000E+00 -1.00000000E+00 -1.00000000E+00
Nuclear QMom                               R   N=          19
  0.00000000E+00  0.00000000E+00  2.04400000E+00  0.00000000E+00  0.00000000E+00
  0.00000000E+00  0.00000000E+00  0.00000000E+00  0.00000000E+00  0.00000000E+00
  0.00000000E+00  0.00000000E+00  0.00000000E+00  0.00000000E+00  0.00000000E+00
  0.00000000E+00  0.00000000E+00  0.00000000E+00  0.00000000E+00
Nuclear GFac                               R   N=          19
  0.00000000E+00  0.00000000E+00  4.03761000E-01  0.00000000E+00  0.00000000E+00
  0.00000000E+00  0.00000000E+00  0.00000000E+00  0.00000000E+00  0.00000000E+00
  2.79284600E+00  2.79284600E+00  2.79284600E+00  2.79284600E+00  2.79284600E+00
  2.79284600E+00  2.79284600E+00  2.79284600E+00  2.79284600E+00
MicOpt                                     I   N=          19
          -1          -1          -1          -1          -1          -1
          -1          -1          -1          -1          -1          -1
          -1          -1          -1          -1          -1          -1
          -1
Number of contracted shells                I               59
Number of primitive shells                 I              152
Pure/Cartesian d shells                    I                1
Pure/Cartesian f shells                    I                0
Highest angular momentum                   I                2
Largest degree of contraction              I                6
Shell types                                I   N=          59
           0          -1          -1          -1           2           0
          -1          -1           2           0          -1          -1
           2           0          -1          -1           2           0
          -1          -1           2           0          -1          -1
           2           0          -1          -1           2           0
          -1          -1           2           0          -1          -1
           2           0          -1          -1           2           0
           0           0           0           0           0           0
           0           0           0           0           0           0
           0           0           0           0           0
Number of primitives per shell             I   N=          59
           6           6           3           1           1           6
           3           1           1           6           3           1
           1           6           3           1           1           6
           3           1           1           6           3           1
           1           6           3           1           1           6
           3           1           1           6           3           1
           1           6           3           1           1           3
           1           3           1           3           1           3
           1           3           1           3           1           3
           1           3           1           3           1
Shell to atom map                          I   N=          59
           1           1           1           1           1           2
           2           2           2           3           3           3
           3           4           4           4           4           5
           5           5           5           6           6           6
           6           7           7           7           7           8
           8           8           8           9           9           9
           9          10          10          10          10          11
          11          12          12          13          13          14
          14          15          15          16          16          17
          17          18          18          19          19
Primitive exponents                        R   N=         152
  2.19171000E+04  3.30149000E+03  7.54146000E+02  2.12711000E+02  6.79896000E+01
  2.30515000E+01  4.23735000E+02  1.00710000E+02  3.21599000E+01  1.18079000E+01
  4.63110000E+00  1.87025000E+00  2.61584000E+00  9.22167000E-01  3.41287000E-01
  1.17167000E-01  6.50000000E-01  5.48467166E+03  8.25234946E+02  1.88046958E+02
  5.29645000E+01  1.68975704E+01  5.79963534E+00  1.55396162E+01  3.59993359E+00
  1.01376175E+00  2.70005823E-01  8.00000000E-01  4.17351146E+03  6.27457911E+02
  1.42902093E+02  4.02343293E+01  1.28202129E+01  4.39043701E+00  1.16263619E+01
  2.71627981E+00  7.72218397E-01  2.12031498E-01  8.00000000E-01  3.04752488E+03
  4.57369518E+02  1.03948685E+02  2.92101553E+01  9.28666296E+00  3.16392696E+00
  7.86827235E+00  1.88128854E+00  5.44249258E-01  1.68714478E-01  8.00000000E-01
  3.04752488E+03  4.57369518E+02  1.03948685E+02  2.92101553E+01  9.28666296E+00
  3.16392696E+00  7.86827235E+00  1.88128854E+00  5.44249258E-01  1.68714478E-01
  8.00000000E-01  3.04752488E+03  4.57369518E+02  1.03948685E+02  2.92101553E+01
  9.28666296E+00  3.16392696E+00  7.86827235E+00  1.88128854E+00  5.44249258E-01
  1.68714478E-01  8.00000000E-01  3.04752488E+03  4.57369518E+02  1.03948685E+02
  2.92101553E+01  9.28666296E+00  3.16392696E+00  7.86827235E+00  1.88128854E+00
  5.44249258E-01  1.68714478E-01  8.00000000E-01  3.04752488E+03  4.57369518E+02
  1.03948685E+02  2.92101553E+01  9.28666296E+00  3.16392696E+00  7.86827235E+00
  1.88128854E+00  5.44249258E-01  1.68714478E-01  8.00000000E-01  3.04752488E+03
  4.57369518E+02  1.03948685E+02  2.92101553E+01  9.28666296E+00  3.16392696E+00
  7.86827235E+00  1.88128854E+00  5.44249258E-01  1.68714478E-01  8.00000000E-01
  3.04752488E+03  4.57369518E+02  1.03948685E+02  2.92101553E+01  9.28666296E+00
  3.16392696E+00  7.86827235E+00  1.88128854E+00  5.44249258E-01  1.68714478E-01
  8.00000000E-01  1.87311370E+01  2.82539436E+00  6.40121692E-01  1.61277759E-01
  1.87311370E+01  2.82539436E+00  6.40121692E-01  1.61277759E-01  1.87311370E+01
  2.82539436E+00  6.40121692E-01  1.61277759E-01  1.87311370E+01  2.82539436E+00
  6.40121692E-01  1.61277759E-01  1.87311370E+01  2.82539436E+00  6.40121692E-01
  1.61277759E-01  1.87311370E+01  2.82539436E+00  6.40121692E-01  1.61277759E-01
  1.87311370E+01  2.82539436E+00  6.40121692E-01  1.61277759E-01  1.87311370E+01
  2.82539436E+00  6.40121692E-01  1.61277759E-01  1.87311370E+01  2.82539436E+00
  6.40121692E-01  1.61277759E-01
Contraction coefficients                   R   N=         152
  1.86924085E-03  1.42303065E-02  6.96962317E-02  2.38487108E-01  4.83307220E-01
  3.38074154E-01 -2.37677050E-03 -3.16930067E-02 -1.13317024E-01  5.60900118E-02
  5.92255124E-01  4.55006095E-01 -2.50373114E-01  6.69567631E-02  1.05450627E+00
  1.00000000E+00  1.00000000E+00  1.83107443E-03  1.39501722E-02  6.84450781E-02
  2.32714336E-01  4.70192898E-01  3.58520853E-01 -1.10777550E-01 -1.48026263E-01
  1.13076702E+00  1.00000000E+00  1.00000000E+00  1.83477216E-03  1.39946270E-02
  6.85865518E-02  2.32240873E-01  4.69069948E-01  3.60455199E-01 -1.14961182E-01
 -1.69117479E-01  1.14585195E+00  1.00000000E+00  1.00000000E+00  1.83473713E-03
  1.40373228E-02  6.88426223E-02  2.32184443E-01  4.67941348E-01  3.62311985E-01
 -1.19332420E-01 -1.60854152E-01  1.14345644E+00  1.00000000E+00  1.00000000E+00
  1.83473713E-03  1.40373228E-02  6.88426223E-02  2.32184443E-01  4.67941348E-01
  3.62311985E-01 -1.19332420E-01 -1.60854152E-01  1.14345644E+00  1.00000000E+00
  1.00000000E+00  1.83473713E-03  1.40373228E-02  6.88426223E-02  2.32184443E-01
  4.67941348E-01  3.62311985E-01 -1.19332420E-01 -1.60854152E-01  1.14345644E+00
  1.00000000E+00  1.00000000E+00  1.83473713E-03  1.40373228E-02  6.88426223E-02
  2.32184443E-01  4.67941348E-01  3.62311985E-01 -1.19332420E-01 -1.60854152E-01
  1.14345644E+00  1.00000000E+00  1.00000000E+00  1.83473713E-03  1.40373228E-02
  6.88426223E-02  2.32184443E-01  4.67941348E-01  3.62311985E-01 -1.19332420E-01
 -1.60854152E-01  1.14345644E+00  1.00000000E+00  1.00000000E+00  1.83473713E-03
  1.40373228E-02  6.88426223E-02  2.32184443E-01  4.67941348E-01  3.62311985E-01
 -1.19332420E-01 -1.60854152E-01  1.14345644E+00  1.00000000E+00  1.00000000E+00
  1.83473713E-03  1.40373228E-02  6.88426223E-02  2.32184443E-01  4.67941348E-01
  3.62311985E-01 -1.19332420E-01 -1.60854152E-01  1.14345644E+00  1.00000000E+00
  1.00000000E+00  3.34946043E-02  2.34726953E-01  8.13757326E-01  1.00000000E+00
  3.34946043E-02  2.34726953E-01  8.13757326E-01  1.00000000E+00  3.34946043E-02
  2.34726953E-01  8.13757326E-01  1.00000000E+00  3.34946043E-02  2.34726953E-01
  8.13757326E-01  1.00000000E+00  3.34946043E-02  2.34726953E-01  8.13757326E-01
  1.00000000E+00  3.34946043E-02  2.34726953E-01  8.13757326E-01  1.00000000E+00
  3.34946043E-02  2.34726953E-01  8.13757326E-01  1.00000000E+00  3.34946043E-02
  2.34726953E-01  8.13757326E-01  1.00000000E+00  3.34946043E-02  2.34726953E-01
  8.13757326E-01  1.00000000E+00
P(S=P) Contraction coefficients            R   N=         152
  0.00000000E+00  0.00000000E+00  0.00000000E+00  0.00000000E+00  0.00000000E+00
  0.00000000E+00  4.06100998E-03  3.06812999E-02  1.30451999E-01  3.27204999E-01
  4.52850998E-01  2.56041999E-01 -1.45104895E-02  3.10262776E-01  7.54482456E-01
  1.00000000E+00  0.00000000E+00  0.00000000E+00  0.00000000E+00  0.00000000E+00
  0.00000000E+00  0.00000000E+00  0.00000000E+00  7.08742682E-02  3.39752839E-01
  7.27158577E-01  1.00000000E+00  0.00000000E+00  0.00000000E+00  0.00000000E+00
  0.00000000E+00  0.00000000E+00  0.00000000E+00  0.00000000E+00  6.75797439E-02
  3.23907296E-01  7.40895140E-01  1.00000000E+00  0.00000000E+00  0.00000000E+00
  0.00000000E+00  0.00000000E+00  0.00000000E+00  0.00000000E+00  0.00000000E+00
  6.89990666E-02  3.16423961E-01  7.44308291E-01  1.00000000E+00  0.00000000E+00
  0.00000000E+00  0.00000000E+00  0.00000000E+00  0.00000000E+00  0.00000000E+00
  0.00000000E+00  6.89990666E-02  3.16423961E-01  7.44308291E-01  1.00000000E+00
  0.00000000E+00  0.00000000E+00  0.00000000E+00  0.00000000E+00  0.00000000E+00
  0.00000000E+00  0.00000000E+00  6.89990666E-02  3.16423961E-01  7.44308291E-01
  1.00000000E+00  0.00000000E+00  0.00000000E+00  0.00000000E+00  0.00000000E+00
  0.00000000E+00  0.00000000E+00  0.00000000E+00  6.89990666E-02  3.16423961E-01
  7.44308291E-01  1.00000000E+00  0.00000000E+00  0.00000000E+00  0.00000000E+00
  0.00000000E+00  0.00000000E+00  0.00000000E+00  0.00000000E+00  6.89990666E-02
  3.16423961E-01  7.44308291E-01  1.00000000E+00  0.00000000E+00  0.00000000E+00
  0.00000000E+00  0.00000000E+00  0.00000000E+00  0.00000000E+00  0.00000000E+00
  6.89990666E-02  3.16423961E-01  7.44308291E-01  1.00000000E+00  0.00000000E+00
  0.00000000E+00  0.00000000E+00  0.00000000E+00  0.00000000E+00  0.00000000E+00
  0.00000000E+00  6.89990666E-02  3.16423961E-01  7.44308291E-01  1.00000000E+00
  0.00000000E+00  0.00000000E+00  0.00000000E+00  0.00000000E+00  0.00000000E+00
  0.00000000E+00  0.00000000E+00  0.00000000E+00  0.00000000E+00  0.00000000E+00
  0.00000000E+00  0.00000000E+00  0.00000000E+00  0.00000000E+00  0.00000000E+00
  0.00000000E+00  0.00000000E+00  0.00000000E+00  0.00000000E+00  0.00000000E+00
  0.00000000E+00  0.00000000E+00  0.00000000E+00  0.00000000E+00  0.00000000E+00
  0.00000000E+00  0.00000000E+00  0.00000000E+00  0.00000000E+00  0.00000000E+00
  0.00000000E+00  0.00000000E+00  0.00000000E+00  0.00000000E+00  0.00000000E+00
  0.00000000E+00  0.00000000E+00
Coordinates of each shell                  R   N=         177
 -1.89932400E+00 -3.28362397E+00 -2.85861530E-02 -1.89932400E+00 -3.28362397E+00
 -2.85861530E-02 -1.89932400E+00 -3.28362397E+00 -2.85861530E-02 -1.89932400E+00
 -3.28362397E+00 -2.85861530E-02 -1.89932400E+00 -3.28362397E+00 -2.85861530E-02
  4.02386798E+00  3.05314255E+00 -1.13867863E-01  4.02386798E+00  3.05314255E+00
 -1.13867863E-01  4.02386798E+00  3.05314255E+00 -1.13867863E-01  4.02386798E+00
  3.05314255E+00 -1.13867863E-01  2.70760193E+00 -1.07959775E+00 -4.23127501E-04
  2.70760193E+00 -1.07959775E+00 -4.23127501E-04  2.70760193E+00 -1.07959775E+00
 -4.23127501E-04  2.70760193E+00 -1.07959775E+00 -4.23127501E-04 -3.91410930E+00
  1.15550236E+00  1.92953364E-02 -3.91410930E+00  1.15550236E+00  1.92953364E-02
 -3.91410930E+00  1.15550236E+00  1.92953364E-02 -3.91410930E+00  1.15550236E+00
  1.92953364E-02  9.10956551E-02 -6.70133598E-01  5.23445693E-03  9.10956551E-02
 -6.70133598E-01  5.23445693E-03  9.10956551E-02 -6.70133598E-01  5.23445693E-03
  9.10956551E-02 -6.70133598E-01  5.23445693E-03 -1.24727805E+00  1.55995497E+00
  2.47174134E-02 -1.24727805E+00  1.55995497E+00  2.47174134E-02 -1.24727805E+00
  1.55995497E+00  2.47174134E-02 -1.24727805E+00  1.55995497E+00  2.47174134E-02
 -4.53592293E+00 -1.36412141E+00 -4.91368980E-03 -4.53592293E+00 -1.36412141E+00
 -4.91368980E-03 -4.53592293E+00 -1.36412141E+00 -4.91368980E-03 -4.53592293E+00
 -1.36412141E+00 -4.91368980E-03 -5.81055945E+00  3.26559945E+00  4.05831946E-02
 -5.81055945E+00  3.26559945E+00  4.05831946E-02 -5.81055945E+00  3.26559945E+00
  4.05831946E-02 -5.81055945E+00  3.26559945E+00  4.05831946E-02  4.52679434E+00
  7.85133464E-01 -4.75026194E-02  4.52679434E+00  7.85133464E-01 -4.75026194E-02
  4.52679434E+00  7.85133464E-01 -4.75026194E-02  4.52679434E+00  7.85133464E-01
 -4.75026194E-02  7.21049414E+00 -2.02569803E-01  8.58078180E-02  7.21049414E+00
 -2.02569803E-01  8.58078180E-02  7.21049414E+00 -2.02569803E-01  8.58078180E-02
  7.21049414E+00 -2.02569803E-01  8.58078180E-02 -3.37975912E-01  3.39037391E+00
  3.82642968E-02 -3.37975912E-01  3.39037391E+00  3.82642968E-02 -6.40014340E+00
 -2.20818809E+00 -8.23626248E-03 -6.40014340E+00 -2.20818809E+00 -8.23626248E-03
  3.30731255E+00 -2.89652863E+00  5.67282574E-02  3.30731255E+00 -2.89652863E+00
  5.67282574E-02 -5.58592169E+00  4.48238123E+00 -1.61696616E+00 -5.58592169E+00
  4.48238123E+00 -1.61696616E+00 -7.73949531E+00  2.52486979E+00  3.48782341E-02
 -7.73949531E+00  2.52486979E+00  3.48782341E-02 -5.58392417E+00  4.45139365E+00
  1.72018628E+00 -5.58392417E+00  4.45139365E+00  1.72018628E+00  7.42926814E+00
 -2.04609582E+00 -8.20816148E-01  7.42926814E+00 -2.04609582E+00 -8.20816148E-01
  7.78775029E+00 -3.68942605E-01  2.06434944E+00  7.78775029E+00 -3.68942605E-01
  2.06434944E+00  8.44506980E+00  1.16457131E+00 -8.36436152E-01  8.44506980E+00
  1.16457131E+00 -8.36436152E-01
Constraint Structure                       R   N=          57
 -1.89932400E+00 -3.28362397E+00 -2.85861530E-02  4.02386798E+00  3.05314255E+00
 -1.13867863E-01  2.70760193E+00 -1.07959775E+00 -4.23127501E-04 -3.91410930E+00
  1.15550236E+00  1.92953364E-02  9.10956551E-02 -6.70133598E-01  5.23445693E-03
 -1.24727805E+00  1.55995497E+00  2.47174134E-02 -4.53592293E+00 -1.36412141E+00
 -4.91368980E-03 -5.81055945E+00  3.26559945E+00  4.05831946E-02  4.52679434E+00
  7.85133464E-01 -4.75026194E-02  7.21049414E+00 -2.02569803E-01  8.58078180E-02
 -3.37975912E-01  3.39037391E+00  3.82642968E-02 -6.40014340E+00 -2.20818809E+00
 -8.23626248E-03  3.30731255E+00 -2.89652863E+00  5.67282574E-02 -5.58592169E+00
  4.48238123E+00 -1.61696616E+00 -7.73949531E+00  2.52486979E+00  3.48782341E-02
 -5.58392417E+00  4.45139365E+00  1.72018628E+00  7.42926814E+00 -2.04609582E+00
 -8.20816148E-01  7.78775029E+00 -3.68942605E-01  2.06434944E+00  8.44506980E+00
  1.16457131E+00 -8.36436152E-01
Num ILSW                                   I              100
ILSW                                       I   N=         100
           0           1           0           0           2           0
           0           0           0           0           0          -1
           0           0           0           0           0           0
           0           0           0           0           1           0
           1           0           0           0           0           0
           0           0      100000           0          -1           0
           0           0           0           0           0           0
           0           0           0           1           1           0
           0           0           1           0           0           0
           0           0           4          40           0           0
           0           0           0           0           0           0
           0           0           0           0           0           0
           0           0           0           0           0           0
           0           0           0           0           0           0
           0           0           0           0           0           0
           0           0           0           0           0           0
           0           0           0           0
Num RLSW                                   I               40
RLSW                                       R   N=          40
  1.00000000E+00  1.00000000E+00  1.00000000E+00  1.00000000E+00  1.00000000E+00
  0.00000000E+00  0.00000000E+00  1.00000000E+00  0.00000000E+00  0.00000000E+00
  0.00000000E+00  0.00000000E+00  1.00000000E+00  0.00000000E+00  0.00000000E+00
  0.00000000E+00  0.00000000E+00  1.00000000E+00  0.00000000E+00  0.00000000E+00
  0.00000000E+00  0.00000000E+00  1.00000000E+00  0.00000000E+00  0.00000000E+00
  0.00000000E+00  0.00000000E+00  1.00000000E+00  0.00000000E+00  0.00000000E+00
  0.00000000E+00  0.00000000E+00  0.00000000E+00  0.00000000E+00  0.00000000E+00
  0.00000000E+00  0.00000000E+00  0.00000000E+00  1.00000000E+00  1.00000000E+00
MxBond                                     I                4
NBond                                      I   N=          19
           2           1           3           3           3           3
           3           4           3           4           1           1
           1           1           1           1           1           1
           1
IBond                                      I   N=          76
           5           7           0           0           9           0
           0           0           5           9          13           0
           6           7           8           0           1           3
           6           0           4           5          11           0
           1           4          12           0           4          14
          15          16           2           3          10           0
           9          17          18          19           6           0
           0           0           7           0           0           0
           3           0           0           0           8           0
           0           0           8           0           0           0
           8           0           0           0          10           0
           0           0          10           0           0           0
          10           0           0           0
RBond                                      R   N=          76
  1.00000000E+00  1.00000000E+00  0.00000000E+00  0.00000000E+00  2.00000000E+00
  0.00000000E+00  0.00000000E+00  0.00000000E+00  1.50000000E+00  1.00000000E+00
  1.00000000E+00  0.00000000E+00  1.50000000E+00  1.50000000E+00  1.00000000E+00
  0.00000000E+00  1.00000000E+00  1.50000000E+00  1.50000000E+00  0.00000000E+00
  1.50000000E+00  1.50000000E+00  1.00000000E+00  0.00000000E+00  1.00000000E+00
  1.50000000E+00  1.00000000E+00  0.00000000E+00  1.00000000E+00  1.00000000E+00
  1.00000000E+00  1.00000000E+00  2.00000000E+00  1.00000000E+00  1.00000000E+00
  0.00000000E+00  1.00000000E+00  1.00000000E+00  1.00000000E+00  1.00000000E+00
  1.00000000E+00  0.00000000E+00  0.00000000E+00  0.00000000E+00  1.00000000E+00
  0.00000000E+00  0.00000000E+00  0.00000000E+00  1.00000000E+00  0.00000000E+00
  0.00000000E+00  0.00000000E+00  1.00000000E+00  0.00000000E+00  0.00000000E+00
  0.00000000E+00  1.00000000E+00  0.00000000E+00  0.00000000E+00  0.00000000E+00
  1.00000000E+00  0.00000000E+00  0.00000000E+00  0.00000000E+00  1.00000000E+00
  0.00000000E+00  0.00000000E+00  0.00000000E+00  1.00000000E+00  0.00000000E+00
  0.00000000E+00  0.00000000E+00  1.00000000E+00  0.00000000E+00  0.00000000E+00
  0.00000000E+00
Virial Ratio                               R      2.001426343962111E+00
SCF Energy                                 R     -7.971372663627742E+02
MP2 Energy                                 R     -7.985011409810182E+02
Total Energy                               R     -7.985011409810182E+02
Post-SCF wavefunction norm                 R      1.719275175666547E+00
RMS Force                                  R      2.207827216618317E-07
RMS Density                                R      1.098882391555653E-09
External E-field                           R   N=          35
  0.00000000E+00  0.00000000E+00  0.00000000E+00  0.00000000E+00  0.00000000E+00
  0.00000000E+00  0.00000000E+00  0.00000000E+00  0.00000000E+00  0.00000000E+00
  0.00000000E+00  0.00000000E+00  0.00000000E+00  0.00000000E+00  0.00000000E+00
  0.00000000E+00  0.00000000E+00  0.00000000E+00  0.00000000E+00  0.00000000E+00
  0.00000000E+00  0.00000000E+00  0.00000000E+00  0.00000000E+00  0.00000000E+00
  0.00000000E+00  0.00000000E+00  0.00000000E+00  0.00000000E+00  0.00000000E+00
  0.00000000E+00  0.00000000E+00  0.00000000E+00  0.00000000E+00  0.00000000E+00
IOpCl                                      I                0
IROHF                                      I                0
Alpha Orbital Energies                     R   N=         172
 -9.19695953E+01 -2.05386394E+01 -1.56218355E+01 -1.13710882E+01 -1.13098295E+01
 -1.12492650E+01 -1.12486316E+01 -1.12425848E+01 -1.12249397E+01 -1.12200497E+01
 -8.98027908E+00 -6.66303694E+00 -6.66202958E+00 -6.66022335E+00 -1.38548744E+00
 -1.26186332E+00 -1.15718713E+00 -1.03654665E+00 -1.01088135E+00 -9.68882564E-01
 -9.10831300E-01 -8.23461843E-01 -7.82362636E-01 -7.24206780E-01 -6.85372751E-01
 -6.69840447E-01 -6.29906440E-01 -6.07238625E-01 -5.89271202E-01 -5.77982377E-01
 -5.75908222E-01 -5.58753874E-01 -5.55529651E-01 -5.20817080E-01 -5.13009679E-01
 -4.98295513E-01 -4.70639591E-01 -4.36404835E-01 -4.27399636E-01 -3.35941258E-01
 -2.89783831E-01  1.29816431E-01  1.60136815E-01  1.93684175E-01  2.24480215E-01
  2.44368353E-01  2.48036125E-01  2.67238587E-01  2.81001767E-01  2.86364992E-01
  2.93899145E-01  3.22589426E-01  3.33461146E-01  3.46959445E-01  3.52138128E-01
  3.68290597E-01  4.06654112E-01  4.31472258E-01  4.61235656E-01  4.80409308E-01
  4.88843718E-01  5.22216914E-01  5.40109057E-01  5.89725881E-01  6.16200542E-01
  6.42673421E-01  6.57068446E-01  7.21516191E-01  7.30666024E-01  7.39356330E-01
  7.47063652E-01  7.69749878E-01  7.77890795E-01  7.93284730E-01  8.16764324E-01
  8.32870948E-01  8.58782938E-01  8.74865101E-01  9.00144697E-01  9.25201499E-01
  9.29462934E-01  9.63243183E-01  9.77067995E-01  1.01196526E+00  1.02124235E+00
  1.03872535E+00  1.05427838E+00  1.06500376E+00  1.09720029E+00  1.11741516E+00
  1.12015109E+00  1.13146500E+00  1.13538630E+00  1.14835140E+00  1.15678956E+00
  1.16156262E+00  1.17714337E+00  1.19807777E+00  1.20718568E+00  1.22510605E+00
  1.23112432E+00  1.27686309E+00  1.28677028E+00  1.31510874E+00  1.32697503E+00
  1.34166441E+00  1.37696320E+00  1.43053260E+00  1.50007547E+00  1.50921377E+00
  1.54019543E+00  1.57322845E+00  1.59125572E+00  1.64487133E+00  1.65644391E+00
  1.67662529E+00  1.67865453E+00  1.75648917E+00  1.76133811E+00  1.81356578E+00
  1.84749564E+00  1.90759745E+00  1.93093210E+00  2.05996285E+00  2.08458095E+00
  2.09719193E+00  2.10158887E+00  2.11906283E+00  2.13692542E+00  2.17612029E+00
  2.21239984E+00  2.23063863E+00  2.23779161E+00  2.26367965E+00  2.30255069E+00
  2.38752574E+00  2.39507271E+00  2.46473961E+00  2.48456199E+00  2.50422598E+00
  2.51760766E+00  2.52680667E+00  2.56634013E+00  2.62257877E+00  2.64477832E+00
  2.66211926E+00  2.71096613E+00  2.73058421E+00  2.74290179E+00  2.78062902E+00
  2.82860869E+00  2.83745997E+00  2.90579235E+00  2.96705383E+00  3.02562910E+00
  3.06506449E+00  3.16740653E+00  3.25109382E+00  3.31520021E+00  3.34354217E+00
  3.44630288E+00  3.64138382E+00  4.37291152E+00  4.43345439E+00  4.51856059E+00
  4.54688428E+00  4.55707648E+00  4.61112887E+00  4.68360314E+00  4.77571359E+00
  4.90996179E+00  5.01363595E+00
Alpha MO coefficients                      R   N=       29584
  9.96254499E-01  1.42585451E-02 -3.40150995E-06  9.30022575E-05  1.50973679E-06
 -1.99907817E-02 -1.89151200E-05 -1.94262914E-04 -2.62941332E-06  2.18671649E-03
 -9.48235676E-06 -2.00147618E-05 -3.99513777E-07  6.89483344E-03  6.88291598E-03
  6.91557610E-03  6.09974577E-07 -7.04741155E-08 -6.09028041E-07  1.01018085E-07
  1.43869205E-06 -5.53510570E-07  7.86959539E-07 -4.25580019E-07 -2.22339283E-05
  1.56896799E-05 -3.54687955E-06  2.55857734E-06 -1.39188980E-06  3.74994569E-06
 -1.27978889E-06 -3.76331903E-06  1.12351047E-07 -5.33941952E-07 -1.37324293E-05