opt=Tight                                                               
Freq      RMP2-FC                                                     6-31G(d)            
Number of atoms                            I                7
Info1-9                                    I   N=           9
          16          16        1002           0           0         100
           6           2           1
Charge                                     I                0
Multiplicity                               I                1
Number of electrons                        I               18
Number of alpha electrons                  I                9
Number of beta electrons                   I                9
Number of basis functions                  I               40
Number of independent functions            I               40
Number of point charges in /Mol/           I                0
Number of translation vectors              I                0
Atomic numbers                             I   N=           7
           7           1           1           6           1           1
           1
Nuclear charges                            R   N=           7
  7.00000000E+00  1.00000000E+00  1.00000000E+00  6.00000000E+00  1.00000000E+00
  1.00000000E+00  1.00000000E+00
Current cartesian coordinates              R   N=          21
  1.42017832E+00  5.66917840E-06 -2.38370054E-01  2.15422354E+00  1.53523052E+00
  6.57998860E-01  2.15423299E+00 -1.53525697E+00  6.57925161E-01 -1.33560363E+00
 -6.05335458E-07  3.34311450E-02 -2.09879787E+00 -1.66477502E+00 -9.19083423E-01
 -2.03849104E+00 -7.74787714E-05  1.99012728E+00 -2.09879976E+00  1.66484494E+00
 -9.18956811E-01
Force Field                                I                0
Int Atom Types                             I   N=           7
           0           0           0           0           0           0
           0
MM charges                                 R   N=           7
  0.00000000E+00  0.00000000E+00  0.00000000E+00  0.00000000E+00  0.00000000E+00
  0.00000000E+00  0.00000000E+00
Integer atomic weights                     I   N=           7
          14           1           1          12           1           1
           1
Real atomic weights                        R   N=           7
  1.40030740E+01  1.00782504E+00  1.00782504E+00  1.20000000E+01  1.00782504E+00
  1.00782504E+00  1.00782504E+00
Atom fragment info                         I   N=           7
           0           0           0           0           0           0
           0
Atom residue num                           I   N=           7
           0           0           0           0           0           0
           0
Nuclear spins                              I   N=           7
           2           1           1           0           1           1
           1
Nuclear ZEff                               R   N=           7
 -4.55000000E+00 -1.00000000E+00 -1.00000000E+00 -3.60000000E+00 -1.00000000E+00
 -1.00000000E+00 -1.00000000E+00
Nuclear QMom                               R   N=           7
  2.04400000E+00  0.00000000E+00  0.00000000E+00  0.00000000E+00  0.00000000E+00
  0.00000000E+00  0.00000000E+00
Nuclear GFac                               R   N=           7
  4.03761000E-01  2.79284600E+00  2.79284600E+00  0.00000000E+00  2.79284600E+00
  2.79284600E+00  2.79284600E+00
MicOpt                                     I   N=           7
          -1          -1          -1          -1          -1          -1
          -1
Number of contracted shells                I               18
Number of primitive shells                 I               42
Pure/Cartesian d shells                    I                1
Pure/Cartesian f shells                    I                0
Highest angular momentum                   I                2
Largest degree of contraction              I                6
Shell types                                I   N=          18
           0          -1          -1           2           0           0
           0           0           0          -1          -1           2
           0           0           0           0           0           0
Number of primitives per shell             I   N=          18
           6           3           1           1           3           1
           3           1           6           3           1           1
           3           1           3           1           3           1
Shell to atom map                          I   N=          18
           1           1           1           1           2           2
           3           3           4           4           4           4
           5           5           6           6           7           7
Primitive exponents                        R   N=          42
  4.17351146E+03  6.27457911E+02  1.42902093E+02  4.02343293E+01  1.28202129E+01
  4.39043701E+00  1.16263619E+01  2.71627981E+00  7.72218397E-01  2.12031498E-01
  8.00000000E-01  1.87311370E+01  2.82539436E+00  6.40121692E-01  1.61277759E-01
  1.87311370E+01  2.82539436E+00  6.40121692E-01  1.61277759E-01  3.04752488E+03
  4.57369518E+02  1.03948685E+02  2.92101553E+01  9.28666296E+00  3.16392696E+00
  7.86827235E+00  1.88128854E+00  5.44249258E-01  1.68714478E-01  8.00000000E-01
  1.87311370E+01  2.82539436E+00  6.40121692E-01  1.61277759E-01  1.87311370E+01
  2.82539436E+00  6.40121692E-01  1.61277759E-01  1.87311370E+01  2.82539436E+00
  6.40121692E-01  1.61277759E-01
Contraction coefficients                   R   N=          42
  1.83477216E-03  1.39946270E-02  6.85865518E-02  2.32240873E-01  4.69069948E-01
  3.60455199E-01 -1.14961182E-01 -1.69117479E-01  1.14585195E+00  1.00000000E+00
  1.00000000E+00  3.34946043E-02  2.34726953E-01  8.13757326E-01  1.00000000E+00
  3.34946043E-02  2.34726953E-01  8.13757326E-01  1.00000000E+00  1.83473713E-03
  1.40373228E-02  6.88426223E-02  2.32184443E-01  4.67941348E-01  3.62311985E-01
 -1.19332420E-01 -1.60854152E-01  1.14345644E+00  1.00000000E+00  1.00000000E+00
  3.34946043E-02  2.34726953E-01  8.13757326E-01  1.00000000E+00  3.34946043E-02
  2.34726953E-01  8.13757326E-01  1.00000000E+00  3.34946043E-02  2.34726953E-01
  8.13757326E-01  1.00000000E+00
P(S=P) Contraction coefficients            R   N=          42
  0.00000000E+00  0.00000000E+00  0.00000000E+00  0.00000000E+00  0.00000000E+00
  0.00000000E+00  6.75797439E-02  3.23907296E-01  7.40895140E-01  1.00000000E+00
  0.00000000E+00  0.00000000E+00  0.00000000E+00  0.00000000E+00  0.00000000E+00
  0.00000000E+00  0.00000000E+00  0.00000000E+00  0.00000000E+00  0.00000000E+00
  0.00000000E+00  0.00000000E+00  0.00000000E+00  0.00000000E+00  0.00000000E+00
  6.89990666E-02  3.16423961E-01  7.44308291E-01  1.00000000E+00  0.00000000E+00
  0.00000000E+00  0.00000000E+00  0.00000000E+00  0.00000000E+00  0.00000000E+00
  0.00000000E+00  0.00000000E+00  0.00000000E+00  0.00000000E+00  0.00000000E+00
  0.00000000E+00  0.00000000E+00
Coordinates of each shell                  R   N=          54
  1.42017864E+00  5.64433147E-06 -2.38370474E-01  1.42017864E+00  5.64433147E-06
 -2.38370474E-01  1.42017864E+00  5.64433147E-06 -2.38370474E-01  1.42017864E+00
  5.64433147E-06 -2.38370474E-01  2.15422376E+00  1.53523054E+00  6.57998440E-01
  2.15422376E+00  1.53523054E+00  6.57998440E-01  2.15423340E+00 -1.53525695E+00
  6.57924741E-01  2.15423340E+00 -1.53525695E+00  6.57924741E-01 -1.33560331E+00
 -8.01580052E-07  3.34307251E-02 -1.33560331E+00 -8.01580052E-07  3.34307251E-02
 -1.33560331E+00 -8.01580052E-07  3.34307251E-02 -1.33560331E+00 -8.01580052E-07
  3.34307251E-02 -2.09879745E+00 -1.66477527E+00 -9.19083842E-01 -2.09879745E+00
 -1.66477527E+00 -9.19083842E-01 -2.03849073E+00 -7.77187326E-05  1.99012686E+00
 -2.03849073E+00 -7.77187326E-05  1.99012686E+00 -2.09879955E+00  1.66484470E+00
 -9.18957231E-01 -2.09879955E+00  1.66484470E+00 -9.18957231E-01
Constraint Structure                       R   N=          21
  1.42017864E+00  5.64433147E-06 -2.38370474E-01  2.15422376E+00  1.53523054E+00
  6.57998440E-01  2.15423340E+00 -1.53525695E+00  6.57924741E-01 -1.33560331E+00
 -8.01580052E-07  3.34307251E-02 -2.09879745E+00 -1.66477527E+00 -9.19083842E-01
 -2.03849073E+00 -7.77187326E-05  1.99012686E+00 -2.09879955E+00  1.66484470E+00
 -9.18957231E-01
Num ILSW                                   I              100
ILSW                                       I   N=         100
           0           1           0           0           2           0
           0           0           0           0           0          -1
           0           0           0           0           0           0
           0           0           0           0           1           0
           1           0           0           0           0           0
           0           0      100000           0          -1           0
           0           0           0           0           0           0
           0           0           0           1           1           0
           0           0           1           0           0           0
           0           0           4          40           0           0
           0           0           0           0           0           0
           0           0           0           0           0           0
           0           0           0           0           0           0
           0           0           0           0           0           0
           0           0           0           0           0           0
           0           0           0           0           0           0
           0           0           0           0
Num RLSW                                   I               40
RLSW                                       R   N=          40
  1.00000000E+00  1.00000000E+00  1.00000000E+00  1.00000000E+00  1.00000000E+00
  0.00000000E+00  0.00000000E+00  1.00000000E+00  0.00000000E+00  0.00000000E+00
  0.00000000E+00  0.00000000E+00  1.00000000E+00  0.00000000E+00  0.00000000E+00
  0.00000000E+00  0.00000000E+00  1.00000000E+00  0.00000000E+00  0.00000000E+00
  0.00000000E+00  0.00000000E+00  1.00000000E+00  0.00000000E+00  0.00000000E+00
  0.00000000E+00  0.00000000E+00  1.00000000E+00  0.00000000E+00  0.00000000E+00
  0.00000000E+00  0.00000000E+00  0.00000000E+00  0.00000000E+00  0.00000000E+00
  0.00000000E+00  0.00000000E+00  0.00000000E+00  1.00000000E+00  1.00000000E+00
MxBond                                     I                4
NBond                                      I   N=           7
           3           1           1           4           1           1
           1
IBond                                      I   N=          28
           2           3           4           0           1           0
           0           0           1           0           0           0
           1           5           6           7           4           0
           0           0           4           0           0           0
           4           0           0           0
RBond                                      R   N=          28
  1.00000000E+00  1.00000000E+00  1.00000000E+00  0.00000000E+00  1.00000000E+00
  0.00000000E+00  0.00000000E+00  0.00000000E+00  1.00000000E+00  0.00000000E+00
  0.00000000E+00  0.00000000E+00  1.00000000E+00  1.00000000E+00  1.00000000E+00
  1.00000000E+00  1.00000000E+00  0.00000000E+00  0.00000000E+00  0.00000000E+00
  1.00000000E+00  0.00000000E+00  0.00000000E+00  0.00000000E+00  1.00000000E+00
  0.00000000E+00  0.00000000E+00  0.00000000E+00
Virial Ratio                               R      2.002247140214196E+00
SCF Energy                                 R     -9.520907838734951E+01
MP2 Energy                                 R     -9.550653086731452E+01
Total Energy                               R     -9.550653086731452E+01
Post-SCF wavefunction norm                 R      1.478513307238709E+00
RMS Force                                  R      2.643855762801140E-06
RMS Density                                R      3.062550470650843E-10
External E-field                           R   N=          35
  0.00000000E+00  0.00000000E+00  0.00000000E+00  0.00000000E+00  0.00000000E+00
  0.00000000E+00  0.00000000E+00  0.00000000E+00  0.00000000E+00  0.00000000E+00
  0.00000000E+00  0.00000000E+00  0.00000000E+00  0.00000000E+00  0.00000000E+00
  0.00000000E+00  0.00000000E+00  0.00000000E+00  0.00000000E+00  0.00000000E+00
  0.00000000E+00  0.00000000E+00  0.00000000E+00  0.00000000E+00  0.00000000E+00
  0.00000000E+00  0.00000000E+00  0.00000000E+00  0.00000000E+00  0.00000000E+00
  0.00000000E+00  0.00000000E+00  0.00000000E+00  0.00000000E+00  0.00000000E+00
IOpCl                                      I                0
IROHF                                      I                0
Alpha Orbital Energies                     R   N=          40
 -1.55411739E+01 -1.12419135E+01 -1.16534165E+00 -8.92584196E-01 -6.57572294E-01
 -6.00553057E-01 -5.51267056E-01 -5.14691741E-01 -3.87757418E-01  2.25713163E-01
  2.85337801E-01  3.05920336E-01  3.28874223E-01  3.34000618E-01  4.15947776E-01
  7.67502385E-01  7.75883688E-01  7.93010354E-01  9.69679837E-01  9.96377089E-01
  1.05431923E+00  1.13297873E+00  1.18848946E+00  1.20504981E+00  1.22094692E+00
  1.24471329E+00  1.28336294E+00  1.63320878E+00  1.80204673E+00  1.83108164E+00
  2.19036024E+00  2.35854530E+00  2.38512587E+00  2.49887973E+00  2.65168059E+00
  2.69915541E+00  2.79645906E+00  3.01225362E+00  4.18012495E+00  4.66922103E+00
Alpha MO coefficients                      R   N=        1600
  9.95035594E-01  2.48033956E-02 -4.16470667E-04 -3.57245203E-08  1.46801965E-03
 -2.38700696E-03  5.47611267E-04  2.50150013E-08 -1.04799281E-03 -3.42879966E-03
 -3.38458831E-03 -3.17204027E-03  1.13080982E-10 -2.26829772E-05 -6.49171942E-09
  2.85005843E-04  5.78957179E-04  2.85004675E-04  5.78958062E-04 -1.66396433E-05
  2.09312153E-04  2.49980081E-04  5.52799355E-10 -2.28523590E-05  1.45728260E-03
  4.73673399E-04 -6.01199542E-09  2.03261185E-04 -1.99043400E-04 -1.06207644E-04
 -6.75354328E-05 -9.05027359E-10  3.12310522E-05 -1.70080715E-09 -6.73881688E-05
 -1.05696141E-04 -1.31487602E-04 -1.92793672E-04 -6.73879058E-05 -1.05698270E-04
 -2.06035097E-04  9.69232858E-05  2.50686548E-05 -7.73296925E-10  2.71314250E-05
  2.35806059E-03 -9.44278980E-04 -2.68184021E-09 -6.16205498E-06 -6.37628082E-04
 -9.05077081E-05 -7.80359632E-05 -1.17537515E-09  4.52867357E-05 -1.05123370E-09
 -5.93036058E-05  2.49199922E-04 -5.93050294E-05  2.49196116E-04  9.95749805E-01
  2.78544239E-02  3.29166420E-04  1.93612791E-09 -2.28921401E-05 -1.35361379E-02
 -5.50753623E-05 -1.02674621E-09  1.96628866E-04 -1.78653850E-03 -1.80690480E-03
 -1.82295944E-03 -1.48581705E-10 -5.28610030E-06 -3.01956164E-10  1.23242846E-04
  2.59348783E-03  8.92379046E-05  2.46475333E-03  1.23240294E-04  2.59348455E-03
 -1.81967187E-01  3.77271840E-01 -3.91181172E-02 -1.60504265E-06  7.08216551E-02
  3.89765110E-01 -1.59676238E-02 -9.01402849E-07  4.12147789E-02  9.88697046E-03
  1.29292628E-02  4.11327331E-05 -1.79477422E-07  4.33175482E-03  3.90683388E-07
  1.17041922E-01  4.24924679E-03  1.17041886E-01  4.24926776E-03 -9.49825899E-02
  1.76973307E-01  9.27493640E-02  1.66192886E-07 -5.26196528E-03  1.06292768E-01
  3.01955956E-03 -7.16955844E-08  2.64231741E-03  2.13634379E-02 -1.70693706E-03
 -2.77064133E-03  2.91271293E-08 -1.34846151E-03  2.95309666E-08  4.27399320E-02
  7.08299194E-03  4.14896132E-02  3.72199851E-03  4.27399591E-02  7.08304404E-03
  7.64503622E-02 -1.58618092E-01 -1.57536028E-01  1.44525066E-06 -5.64989288E-02
 -2.23009781E-01 -6.70937759E-02  9.04384371E-07 -3.47686350E-02  1.50886371E-02
 -1.35983366E-02 -4.60796546E-03  3.71361886E-07 -1.24446607E-02 -2.31746744E-07
 -9.75737514E-02 -2.44016465E-02 -9.75742253E-02 -2.44017056E-02 -1.66639743E-01
  3.17540604E-01 -9.23355521E-02  2.16129880E-07 -7.52162337E-03  3.36939246E-01
 -3.48525867E-02 -3.07829952E-07  9.57258162E-03 -7.19493754E-03  1.37854952E-02
  1.23260341E-02 -2.19031781E-08 -9.70281065E-05  2.19116451E-08  1.37392797E-01
  4.41758720E-02  1.30603202E-01  3.66512377E-02  1.37392943E-01  4.41759658E-02
  8.75007755E-09 -3.50323659E-08 -1.48057215E-06  4.02907309E-01  9.39650332E-06
  3.17699049E-08 -8.61096979E-07  2.27948234E-01  5.23979902E-06 -4.90951538E-08
 -1.40099028E-06  1.44682974E-06  8.59303217E-03  8.83969634E-08  3.59215799E-02
  1.96389790E-01  1.07230829E-01 -1.96390042E-01 -1.07230867E-01  1.33186983E-07
 -2.36087861E-07  9.28996266E-07  2.29344369E-01  5.01970433E-06 -6.54600365E-07
  3.75683678E-07  1.12095471E-01  2.94867507E-06  1.09550170E-07  1.00722570E-06
 -1.14300989E-06  1.06072802E-03  2.83142013E-08 -1.31259984E-02 -1.05139264E-01
 -6.10122077E-02 -2.38285531E-06 -1.86668767E-06  1.05140603E-01  6.10135565E-02
  2.95662494E-02 -7.01112231E-02  2.37530544E-01 -4.36187731E-06  2.22340535E-01
 -1.01205656E-01  1.33745624E-01 -2.85716631E-06  1.44017046E-01 -1.77073166E-02
  7.18144473E-03  1.62995309E-02 -2.11350586E-07  6.54876625E-03 -2.01926816E-07
  9.10951551E-02  5.71729614E-02  9.10948089E-02  5.71727702E-02 -5.71684852E-03
  4.17415696E-03 -2.06714295E-01 -6.61541070E-06  3.17752956E-01  3.56591134E-02
 -7.62683100E-02 -2.55888740E-06  1.38364423E-01 -1.89727301E-02 -5.70597707E-03
  2.68879189E-02  8.02854701E-08 -4.53908385E-03 -1.81164586E-06 -3.60306375E-02
 -2.91884705E-02  2.30451917E-01  1.85465892E-01 -3.60252068E-02 -2.91846835E-02
 -2.13787247E-03  7.16480953E-03  3.46199592E-01 -3.39643585E-07 -6.01536261E-02
 -1.86428346E-03  2.26214902E-01 -3.37610551E-07 -4.01415005E-02 -1.33387641E-02
  1.62680765E-02  1.44384431E-03 -8.44154443E-07  2.51730144E-02  2.22373690E-07
  7.75690940E-02  6.07825063E-02  7.75720697E-02  6.07842347E-02  6.63173707E-03
 -1.79511207E-02 -3.13306884E-01  1.06099052E-05 -2.52184509E-01  2.12796568E-02
 -1.33640922E-01  5.70574848E-06 -1.43604731E-01 -2.36918409E-02  2.96201912E-02
 -2.13830544E-03 -6.83356729E-07  1.53931478E-02  1.32562436E-06  1.46789342E-01
  1.18223634E-01 -9.74134721E-02 -8.16786620E-02  1.46790701E-01  1.18224937E-01
 -3.58755187E-09 -1.26302842E-08 -4.13084638E-06 -2.45002949E-01 -5.23971647E-06
  9.08234884E-08 -2.88667107E-06 -1.70205164E-01 -3.65016035E-06  2.47356476E-07
  7.75220416E-07 -1.08709933E-06 -1.95961735E-02 -7.53331064E-07 -2.44734915E-02
 -1.39550977E-01 -1.11146568E-01  1.39548824E-01  1.11144763E-01 -1.59296374E-07
  4.33362809E-07  3.84370169E-06  3.81586577E-01  1.16376983E-05 -1.26282191E-07
  1.86811192E-06  2.11895489E-01  6.61372028E-06  3.12554589E-07  1.70247767E-06
 -2.07927267E-06 -2.90693438E-02 -8.67682875E-07 -2.60784243E-02 -2.15469595E-01
 -1.90103475E-01 -2.85462915E-06 -2.47061985E-06  2.15470007E-01  1.90103967E-01
  5.53905266E-02 -1.31743418E-01 -1.21177771E-01 -1.25040993E-05  5.06113105E-01
 -2.37007156E-01 -1.23451108E-01 -1.14294408E-05  4.59470217E-01 -4.70213345E-03
 -6.26016855E-03  2.32359182E-02  1.07348401E-07 -3.82372670E-03 -7.66863517E-07
  6.61202846E-02  5.47789639E-02  6.61202728E-02  5.47786419E-02 -1.06693487E-02
  2.58248312E-02  6.72277895E-02  3.69774428E-06 -1.71176885E-01 -7.17863868E-03
  1.30072037E-02  1.74232454E-06 -8.52046291E-02  5.83996706E-03  1.16345994E-02
 -1.87277342E-02 -7.02894844E-07  3.02137743E-02  1.52913380E-06  6.66467034E-02
  7.28859875E-02 -1.58731040E-01 -1.95612485E-01  6.66427557E-02  7.28813221E-02
 -1.00818891E-01  8.75665303E-02  7.69173743E-02 -2.55754408E-06  1.26184684E-01
  1.58848617E+00  2.35729278E-01 -9.98883225E-06  4.52965510E-01 -2.86913158E-02
 -2.95394884E-02 -2.91782315E-02 -1.93780416E-07  4.95249095E-03  3.26691269E-08
 -2.61545970E-02 -9.99786257E-01 -2.61543897E-02 -9.99785575E-01 -5.72703551E-02
  3.83123581E-02 -1.30577730E-01 -1.49781272E-07  3.04448964E-02  1.02552193E+00
 -5.74386184E-01  3.89613685E-06 -2.32760931E-02  3.11160192E-03 -1.23186797E-02
 -9.52607092E-03 -8.29704388E-08  2.03314121E-03 -7.59120254E-08  5.38913306E-04
 -5.55101663E-01  5.71035829E-03 -5.96290580E-01  5.38857345E-04 -5.55109486E-01
  7.55718611E-02 -4.33463485E-02  1.49292130E-02  3.86001753E-06 -9.30870508E-02
 -1.31147642E+00  2.04244593E-01  1.22893655E-05 -3.04276594E-01  3.08715373E-02
  2.23408190E-02  2.06936428E-02 -7.14605330E-08  5.02680331E-04  1.19505808E-07
  2.29419806E-02  6.13207357E-01  2.29427028E-02  6.13222429E-01 -1.41501051E-01
  9.79736852E-02 -6.20865899E-02  7.65789130E-07 -1.19678646E-03  2.59671338E+00
 -1.09307877E-01  1.07181858E-06 -2.09706020E-02 -1.19978043E-02 -3.90386670E-03
 -7.38462059E-03  1.70450766E-07 -2.63747422E-03  9.95216876E-08  2.62313276E-04
 -1.10159780E+00  3.28955298E-03 -1.05388783E+00  2.62127073E-04 -1.10160365E+00
  1.10892814E-07  6.06462236E-07  1.69777666E-06 -2.60359758E-01 -8.01554198E-06
 -4.20280493E-06  3.32050238E-06 -7.96823822E-01 -3.00802841E-05  9.06261273E-08
  1.09709382E-06 -8.78501344E-07  1.58838864E-02 -3.90770584E-08 -1.35347394E-02
  4.60498252E-02  1.22679233E+00 -4.60499836E-02 -1.22678914E+00 -8.19667252E-07
  1.58784244E-07 -5.06131491E-07 -2.20189651E-01  5.21284669E-06  1.68837144E-05
  1.61401907E-06 -7.20966226E-01  2.93552667E-05 -1.80301776E-07  4.77272463E-07
 -5.40003640E-07 -1.39205008E-02 -3.97877450E-07 -9.11538867E-06 -2.96024685E-02
 -9.23838347E-01 -1.93204902E-06 -7.87164146E-05  2.96043655E-02  9.23895728E-01
 -3.14936312E-03 -3.85188038E-03 -6.11541548E-02  1.33312464E-05  4.25386605E-02
  7.57238130E-02 -9.61403087E-02  6.60292489E-05  2.94547591E-01  2.27884446E-04
 -7.52176729E-03  7.20646370E-03  1.48559767E-06  1.39378800E-02 -4.71038078E-07
  1.25493396E-02  3.82116444E-02  1.25489944E-02  3.83278188E-02  6.62451191E-03
  7.34677647E-04 -3.47718431E-02 -2.58323225E-05 -3.49649426E-01 -8.31524893E-02
 -2.29081780E-01 -1.43038910E-04 -1.50472217E+00  5.89383590E-03 -1.10313078E-02
  7.46101687E-03 -1.26526482E-07 -1.93230516E-03 -2.85332919E-06 -2.19774138E-02
 -9.79079760E-01  3.99719170E-02  1.86217602E+00 -2.19630710E-02 -9.78664455E-01
 -4.79020375E-08 -9.03231421E-07 -6.57173045E-06 -2.03889195E-01 -4.81082320E-07
  4.06575694E-06 -7.72384473E-06 -8.77299955E-01  1.23641065E-05  4.89774377E-08
 -9.00267492E-07  9.18745765E-07 -1.13086566E-02  1.49051215E-06 -6.27185444E-03
  6.28229675E-03  8.82076046E-01 -6.27954277E-03 -8.82063331E-01  5.95179848E-07
  1.26431836E-07 -4.00781852E-06  2.40789407E-01 -3.51892110E-05 -4.78602792E-06
 -2.50832640E-05  1.38718664E+00 -1.39780807E-04  6.29031591E-07 -2.23854670E-06
  1.91111025E-06 -2.97760526E-03 -3.13445183E-07  1.63523281E-02  4.83112754E-02
  1.37593409E+00  4.49025958E-06  2.37574498E-04 -4.83162061E-02 -1.37618569E+00
  4.80524092E-02 -4.32584418E-02  3.33152308E-01 -1.73331420E-06  6.58086353E-02
 -9.77723341E-01  1.44461928E+00 -5.22258417E-06  1.81755065E-01 -3.70013996E-03
  6.42269685E-04  1.80907097E-02 -3.12032156E-07  1.44382065E-02 -6.55811994E-07
 -2.18616646E-02 -6.31115612E-01 -2.18608027E-02 -6.31124026E-01 -5.97191369E-02
  3.03256069E-02  1.98872722E-01 -1.63924219E-07 -4.00620930E-02  1.13785981E+00
  1.86420407E+00  6.83927647E-06 -4.24316556E-01 -2.28700428E-02  1.62307944E-02
  1.82397576E-02 -2.90819877E-07  1.07388897E-02 -1.27078587E-07  6.83529188E-02
  6.45714013E-02  5.16478170E-02  5.49646151E-01  6.83526707E-02  6.45898172E-02
  9.70507517E-07 -4.79935724E-06  1.50705960E-07  1.86705175E-02 -1.13675660E-06
  1.99357207E-05  9.13227674E-06 -1.92744644E-02  2.22087900E-06  5.54379889E-06
 -2.44488973E-06 -2.71513555E-06 -4.47305944E-02 -1.34911811E-06 -2.44882470E-02
 -2.20529724E-01 -5.52252507E-02  2.20521035E-01  5.52314152E-02 -8.59538084E-07
  1.14042727E-05  3.29763811E-05 -6.71777100E-01 -1.87487177E-05 -6.66579615E-06
 -4.24413102E-05  1.38972945E+00  3.82188065E-05  8.62050999E-07 -6.72325487E-06
  7.53256960E-06  6.93119625E-02  2.08006879E-06  9.37465133E-02  4.58010549E-01
  1.11085231E-01  4.66755388E-07  8.31601080E-07 -4.58024022E-01 -1.11089906E-01
 -2.53166358E-02  1.25088446E-01 -7.78662395E-03  1.65056313E-08  5.91129171E-02
 -5.36463281E-01 -3.48131783E-01 -5.42965685E-07 -1.12141835E-01 -1.57784317E-01
  8.36608965E-02  5.66531846E-02 -1.99399319E-06  1.83588790E-02  8.95611441E-08
  1.67367934E-01 -9.54185377E-02  1.67379237E-01 -9.54085090E-02  2.30934631E-02
 -3.41760342E-01 -9.40712437E-01 -2.62841865E-05  7.98618376E-02  1.70623424E-01
  1.14733797E+00  5.49481723E-05 -1.21161397E-01 -3.17768304E-02 -2.40647577E-02
  3.24148507E-04  2.70641460E-06 -1.55802378E-02  2.05047740E-06  7.48672486E-02
  4.94067985E-02  1.94654910E-01  1.73598999E-02  7.48371687E-02  4.93963105E-02
 -1.88192337E-02  1.08955996E-01  1.03118362E-01  9.77899440E-06 -2.00889014E-01
  3.45088444E-02 -1.81531099E-01 -2.26899475E-06 -1.43474203E-01  1.25515336E-02
  2.97828056E-02  1.60259614E-02  9.83717412E-07 -1.97424253E-02  1.31530958E-06
 -7.03665222E-02 -1.71914708E-02 -7.03726748E-02 -1.71812579E-02  1.98565588E-03
 -5.94473220E-02 -1.57598114E-01  1.34645176E-05 -6.82744204E-01 -2.84018230E-02
  1.07631527E-01 -3.30256101E-05  1.58431923E+00 -1.86709666E-02  8.78654682E-02
 -9.68104442E-02 -1.16195567E-06  4.19299692E-02  9.97552347E-06  2.60114883E-01
  1.39657083E-01 -5.11951225E-01 -2.94144609E-01  2.60101953E-01  1.39650059E-01
  1.80168471E-07 -5.07483366E-06 -9.22939029E-06  3.24626550E-01  2.47541688E-05
  3.82496422E-06  2.11269607E-05 -1.22392237E+00 -4.46415678E-05 -1.50225203E-06
 -7.92956181E-06  4.88439737E-06  1.10685560E-01  2.35819102E-06  1.36390008E-01
  6.02774790E-01 -1.93465248E-01 -6.02778074E-01  1.93461414E-01  1.42729425E-07
 -1.66334204E-06  2.31833804E-06 -5.35280306E-01 -1.50345091E-05  1.60853823E-05
  2.70150602E-06  1.41604971E+00  3.24188771E-05  2.25693364E-06 -3.89683261E-06
  2.56816561E-06 -9.83356195E-02 -2.66190000E-06  4.11300028E-02 -1.14538788E-01
  6.81218513E-01  2.08362305E-06  1.09471300E-05  1.14535381E-01 -6.81233347E-01
 -1.49897227E-02  2.15498414E-02 -5.74579355E-01 -2.36079926E-05  7.31312246E-01
 -2.66759879E-01  1.09420842E+00  4.09464375E-05 -7.31229610E-01 -5.93857356E-02
 -6.42461795E-02  1.68170575E-02 -4.22524116E-07 -5.41329185E-02 -4.90738313E-06
 -2.56278248E-01 -1.14101033E-02 -2.56256071E-01 -1.14167896E-02  2.57651866E-02
 -1.53527289E-01 -2.11728675E-01  1.15354675E-05 -9.97919840E-02  7.39220451E-01
  5.86100607E-01 -3.46864765E-05  3.50721418E-01  1.55773320E-01 -2.27569349E-02
 -7.32242731E-02  9.94882386E-07  2.94937988E-02  1.93517816E-06  4.81232792E-02
  4.11841174E-02 -1.07645233E-01 -2.43912153E-02  4.81166723E-02  4.12096822E-02
  3.09670006E-02 -3.96971232E-01  4.26790071E-01 -1.06660327E-05  5.45697394E-01
  6.94228236E-01 -1.04806485E+00  2.73414299E-05 -1.04893725E+00 -6.11349259E-02
  1.54606083E-02 -1.36414725E-01 -2.71835537E-06  3.33294843E-02  3.92159507E-06
  3.94895368E-01  8.08095656E-02  3.94902085E-01  8.08054362E-02 -4.08468190E-02
  2.71193477E-02  2.36654237E-01  2.17660845E-05 -4.65303201E-01 -2.23134427E-01
 -7.59938368E-01 -4.82939302E-05  1.18368222E+00 -1.25759637E-01  2.71809718E-02
  1.63285922E-02  2.87913411E-06 -4.70590026E-02  4.83375154E-07 -1.88332956E-01
  2.10851119E-01  9.42195559E-02 -8.81596860E-01 -1.88337163E-01  2.10861030E-01
 -1.95008429E-02 -3.02600531E-01  3.92570177E-01 -7.49698264E-06  1.75519454E-01
  7.24935004E-01 -6.87156939E-01  4.61439355E-06 -9.24300971E-02 -1.10811999E-01
 -7.56596862E-02 -1.07224933E-02  3.77561458E-06 -1.08000342E-01 -1.83532785E-06
 -1.12764003E-01  1.40552735E-01 -1.12768499E-01  1.40559576E-01 -5.40421960E-02
 -1.10116402E-01 -4.78556870E-02 -2.04030797E-05  7.24820161E-01  1.34128967E-01
 -5.03556865E-01  2.94567772E-05 -1.01999055E+00 -5.60802185E-02  8.54879965E-02
 -1.20641196E-01 -4.37112384E-06  1.47004423E-01  1.07043224E-05  3.08852512E-02
 -6.98943010E-01 -8.78705237E-01  1.18779407E+00  3.08731769E-02 -6.98920096E-01
  6.33414259E-08  3.42098979E-06 -4.19318188E-06  9.47104464E-02 -2.55456185E-07
 -8.36435785E-06  1.05868480E-05 -5.13127382E-01 -6.88706952E-06  6.55981474E-07
 -3.90212352E-06  5.18458144E-06 -2.90193802E-02 -1.15171526E-06  1.15230873E-01
  2.90576657E-01  3.89474134E-02 -2.90576956E-01 -3.89504043E-02  4.96277730E-07
 -6.32607472E-07  1.17888893E-06  7.96255817E-01  2.67072478E-05  5.36244579E-06
  5.03397255E-06 -8.81475569E-01 -3.87714951E-05  6.57495226E-07 -1.49903367E-05
  1.51256355E-05  9.55818203E-02  2.92810334E-06  2.07925467E-01  6.67026539E-01
 -1.17466897E+00  9.67830986E-06 -4.30519584E-06 -6.67027432E-01  1.17467100E+00
  1.68852137E-02 -3.87556738E-01 -3.59743750E-01 -3.18045253E-06 -1.18722181E-01
  5.90926204E-01  3.64249471E-01  1.07365877E-05 -3.15304160E-02 -1.33910421E-01
  4.41593182E-02 -1.11960935E-01  2.73942739E-07 -3.03901811E-03  4.22765601E-06
  4.22817378E-01 -4.41395258E-01  4.22817166E-01 -4.41385329E-01  3.78373986E-02
 -8.44713576E-01  3.92143597E-01 -9.81177093E-06  2.55266749E-01  1.76951401E+00
 -3.19576143E-01  7.61928405E-06 -2.05378360E-01 -9.63387480E-02  7.51344288E-02
 -9.63492237E-02 -1.13642894E-06  1.88800966E-02  7.62023226E-06  5.96028263E-01
 -8.70810847E-01  9.47794552E-02 -1.72139930E-01  5.96026870E-01 -8.70810405E-01
 -1.74846667E-07 -2.38614265E-07  4.04091284E-06 -1.04544511E+00 -2.39284249E-05
  1.69503933E-06 -4.52384904E-06  1.44690848E+00  3.22877204E-05 -2.56787545E-07
 -3.46774272E-06  3.51570869E-06  1.03164803E-01  2.20999485E-06  7.92121085E-02
  4.16157103E-01 -1.18215049E+00 -4.16161623E-01  1.18215157E+00 -4.47025278E-07
 -3.32287924E-06 -3.93147893E-07 -1.00809054E-01 -1.17332140E-05  7.48545430E-06
 -1.22094117E-06  9.66561238E-02  2.17965625E-05 -8.14800450E-07 -2.38350613E-06
  2.07463197E-06 -4.00494560E-02 -1.09945822E-06  1.47843486E-02  4.16286510E-02
  9.14788140E-02  4.44977814E-06 -1.88200318E-05 -4.16380200E-02 -9.14635384E-02
 -2.26245829E-02  5.57395205E-01  4.45398779E-01 -2.30172630E-06  2.60272836E-01
 -1.24025974E+00 -5.36445157E-01 -2.15851781E-07 -2.40041368E-01  8.91825459E-02