
    -----------------------------------------------------------------------
          Psi4: An Open-Source Ab Initio Electronic Structure Package
                               Psi4 1.3.2 release

                         Git: Rev {HEAD} ecbda83 


    R. M. Parrish, L. A. Burns, D. G. A. Smith, A. C. Simmonett,
    A. E. DePrince III, E. G. Hohenstein, U. Bozkaya, A. Yu. Sokolov,
    R. Di Remigio, R. M. Richard, J. F. Gonthier, A. M. James,
    H. R. McAlexander, A. Kumar, M. Saitow, X. Wang, B. P. Pritchard,
    P. Verma, H. F. Schaefer III, K. Patkowski, R. A. King, E. F. Valeev,
    F. A. Evangelista, J. M. Turney, T. D. Crawford, and C. D. Sherrill,
    J. Chem. Theory Comput. 13(7) pp 3185--3197 (2017).
    (doi: 10.1021/acs.jctc.7b00174)


                         Additional Contributions by
    P. Kraus, H. Kruse, M. H. Lechner, M. C. Schieber, R. A. Shaw,
    A. Alenaizan, R. Galvelis, Z. L. Glick, S. Lehtola, and J. P. Misiewicz

    -----------------------------------------------------------------------


    Psi4 started on: Monday, 09 November 2020 12:00AM

    Process ID: 117743
    Host:       node59.bme.utexas.edu
    PSIDATADIR: /home/xy3866/psi4conda/share/psi4
    Memory:     500.0 MiB
    Threads:    8
    
  ==> Input File <==

--------------------------------------------------------------------------
#psi4
#
memory 32 gb

molecule  {
1 1
  C        0.0002390     0.0000000     0.0000070
  N        1.3351690    -0.0037410     0.0000090
  N       -0.6645470     1.1579100     0.0000060
  N       -0.6710310    -1.1541680    -0.0000370
  H       -1.6824900    -1.1797440    -0.0000320
  H       -0.1917480    -2.0454120     0.0002210
  H        1.8634770    -0.8669560    -0.0001490
  H        1.8683040     0.8565010     0.0001050
  H       -0.1802750     2.0464480    -0.0001350
  H       -1.6758206     1.1891809     0.2001080
units angstrom
no_reorient  #important for SAPT in psi4, default
symmetry c1  #important for SAPT in psi4, default
}

set PROPERTIES_ORIGIN ["COM"]
properties('MP2/aug-cc-pvtz', properties = ['dipole'])
--------------------------------------------------------------------------

  Memory set to  29.802 GiB by Python driver.
    SCF Algorithm Type (re)set to DF.

*** tstart() called on node59.bme.utexas.edu
*** at Mon Nov  9 00:00:26 2020

   => Loading Basis Set <=

    Name: AUG-CC-PVTZ
    Role: ORBITAL
    Keyword: BASIS
    atoms 1    entry C          line   235 file /home/xy3866/psi4conda/share/psi4/basis/aug-cc-pvtz.gbs 
    atoms 2-4  entry N          line   281 file /home/xy3866/psi4conda/share/psi4/basis/aug-cc-pvtz.gbs 
    atoms 5-10 entry H          line    36 file /home/xy3866/psi4conda/share/psi4/basis/aug-cc-pvtz.gbs 


         ---------------------------------------------------------
                                   SCF
               by Justin Turney, Rob Parrish, Andy Simmonett
                          and Daniel G. A. Smith
                              RHF Reference
                        8 Threads,  30517 MiB Core
         ---------------------------------------------------------

  ==> Geometry <==

    Molecular point group: c1
    Full point group: C1

    Geometry (in Angstrom), charge = 1, multiplicity = 1:

       Center              X                  Y                   Z               Mass       
    ------------   -----------------  -----------------  -----------------  -----------------
         C            0.000262320356    -0.000000533553    -0.003347523853    12.000000000000
         N            1.335192320356    -0.003741533553    -0.003345523853    14.003074004430
         N           -0.664523679644     1.157909466447    -0.003348523853    14.003074004430
         N           -0.671007679644    -1.154168533553    -0.003391523853    14.003074004430
         H           -1.682466679644    -1.179744533553    -0.003386523853     1.007825032230
         H           -0.191724679644    -2.045412533553    -0.003133523853     1.007825032230
         H            1.863500320356    -0.866956533553    -0.003503523853     1.007825032230
         H            1.868327320356     0.856500466447    -0.003249523853     1.007825032230
         H           -0.180251679644     2.046447466447    -0.003489523853     1.007825032230
         H           -1.675797279644     1.189180366447     0.196753476147     1.007825032230

  Running in c1 symmetry.

  Rotational constants: A =      0.33562  B =      0.33540  C =      0.16788 [cm^-1]
  Rotational constants: A =  10061.76326  B =  10054.96314  C =   5032.81321 [MHz]
  Nuclear repulsion =  133.177765966866133

  Charge       = 1
  Multiplicity = 1
  Electrons    = 32
  Nalpha       = 16
  Nbeta        = 16

  ==> Algorithm <==

  SCF Algorithm Type is DF.
  DIIS enabled.
  MOM disabled.
  Fractional occupation disabled.
  Guess Type is SAD.
  Energy threshold   = 1.00e-10
  Density threshold  = 1.00e-10
  Integral threshold = 0.00e+00

  ==> Primary Basis <==

  Basis Set: AUG-CC-PVTZ
    Blend: AUG-CC-PVTZ
    Number of shells: 110
    Number of basis function: 322
    Number of Cartesian functions: 370
    Spherical Harmonics?: true
    Max angular momentum: 3

   => Loading Basis Set <=

    Name: (AUG-CC-PVTZ AUX)
    Role: JKFIT
    Keyword: DF_BASIS_SCF
    atoms 1    entry C          line   162 file /home/xy3866/psi4conda/share/psi4/basis/aug-cc-pvtz-jkfit.gbs 
    atoms 2-4  entry N          line   224 file /home/xy3866/psi4conda/share/psi4/basis/aug-cc-pvtz-jkfit.gbs 
    atoms 5-10 entry H          line    70 file /home/xy3866/psi4conda/share/psi4/basis/aug-cc-pvtz-jkfit.gbs 

  ==> Pre-Iterations <==

   -------------------------------------------------------
    Irrep   Nso     Nmo     Nalpha   Nbeta   Ndocc  Nsocc
   -------------------------------------------------------
     A        322     322       0       0       0       0
   -------------------------------------------------------
    Total     322     322      16      16      16       0
   -------------------------------------------------------

  ==> Integral Setup <==

  DFHelper Memory: AOs need 0.562 GiB; user supplied 22.352 GiB. Using in-core AOs.

  ==> MemDFJK: Density-Fitted J/K Matrices <==

    J tasked:                   Yes
    K tasked:                   Yes
    wK tasked:                   No
    OpenMP threads:               8
    Memory [MiB]:             22888
    Algorithm:                 Core
    Schwarz Cutoff:           1E-12
    Mask sparsity (%):       0.5227
    Fitting Condition:        1E-10

   => Auxiliary Basis Set <=

  Basis Set: (AUG-CC-PVTZ AUX)
    Blend: AUG-CC-PVTZ-JKFIT
    Number of shells: 204
    Number of basis function: 692
    Number of Cartesian functions: 854
    Spherical Harmonics?: true
    Max angular momentum: 4

  Minimum eigenvalue in the overlap matrix is 3.1982154174E-05.
  Using Symmetric Orthogonalization.

  SCF Guess: Superposition of Atomic Densities via on-the-fly atomic UHF.

  ==> Iterations <==

                           Total Energy        Delta E     RMS |[F,P]|

   @DF-RHF iter SAD:  -204.34255605405036   -2.04343e+02   0.00000e+00 
   @DF-RHF iter   1:  -204.46985266033218   -1.27297e-01   1.71664e-03 DIIS
   @DF-RHF iter   2:  -204.59000394176229   -1.20151e-01   7.41419e-04 DIIS
   @DF-RHF iter   3:  -204.61145793242494   -2.14540e-02   1.31165e-04 DIIS
   @DF-RHF iter   4:  -204.61287051158678   -1.41258e-03   2.06926e-05 DIIS
   @DF-RHF iter   5:  -204.61290848404724   -3.79725e-05   9.33195e-06 DIIS
   @DF-RHF iter   6:  -204.61291496885647   -6.48481e-06   2.10708e-06 DIIS
   @DF-RHF iter   7:  -204.61291562231318   -6.53457e-07   4.17594e-07 DIIS
   @DF-RHF iter   8:  -204.61291564167942   -1.93662e-08   7.39551e-08 DIIS
   @DF-RHF iter   9:  -204.61291564206229   -3.82869e-10   3.10783e-08 DIIS
   @DF-RHF iter  10:  -204.61291564211234   -5.00506e-11   4.75136e-09 DIIS
   @DF-RHF iter  11:  -204.61291564211430   -1.96110e-12   1.07696e-09 DIIS
   @DF-RHF iter  12:  -204.61291564211555   -1.25056e-12   2.98934e-10 DIIS
   @DF-RHF iter  13:  -204.61291564211484    7.10543e-13   1.01689e-10 DIIS
   @DF-RHF iter  14:  -204.61291564211498   -1.42109e-13   2.14031e-11 DIIS
  Energy and wave function converged.


  ==> Post-Iterations <==

    Orbital Energies [Eh]
    ---------------------

    Doubly Occupied:                                                      

       1A    -15.800341     2A    -15.799832     3A    -15.799570  
       4A    -11.611546     5A     -1.546857     6A     -1.400121  
       7A     -1.398078     8A     -1.077996     9A     -0.982234  
      10A     -0.979697    11A     -0.867772    12A     -0.867366  
      13A     -0.864302    14A     -0.814106    15A     -0.631795  
      16A     -0.631572  

    Virtual:                                                              

      17A     -0.104044    18A     -0.079888    19A     -0.079713  
      20A     -0.057744    21A     -0.052936    22A     -0.051986  
      23A     -0.021454    24A     -0.017518    25A     -0.013466  
      26A     -0.004561    27A      0.000775    28A      0.001420  
      29A      0.003514    30A      0.003890    31A      0.021311  
      32A      0.036101    33A      0.036505    34A      0.039146  
      35A      0.039356    36A      0.076178    37A      0.082523  
      38A      0.088915    39A      0.092324    40A      0.104027  
      41A      0.106038    42A      0.133796    43A      0.163292  
      44A      0.164654    45A      0.174111    46A      0.175228  
      47A      0.176297    48A      0.184786    49A      0.206983  
      50A      0.214077    51A      0.215390    52A      0.223768  
      53A      0.225453    54A      0.225762    55A      0.243799  
      56A      0.244358    57A      0.246320    58A      0.266894  
      59A      0.269025    60A      0.279040    61A      0.283511  
      62A      0.286836    63A      0.295297    64A      0.297833  
      65A      0.327048    66A      0.343668    67A      0.356322  
      68A      0.364364    69A      0.383435    70A      0.387935  
      71A      0.408536    72A      0.412562    73A      0.451554  
      74A      0.464824    75A      0.475509    76A      0.481640  
      77A      0.483154    78A      0.496512    79A      0.523294  
      80A      0.523874    81A      0.535356    82A      0.541974  
      83A      0.553241    84A      0.556392    85A      0.573827  
      86A      0.574019    87A      0.577247    88A      0.664195  
      89A      0.672446    90A      0.675042    91A      0.702478  
      92A      0.722908    93A      0.723658    94A      0.735773  
      95A      0.736088    96A      0.742869    97A      0.792151  
      98A      0.794702    99A      0.810036   100A      0.815570  
     101A      0.823188   102A      0.825865   103A      0.828734  
     104A      0.834324   105A      0.841063   106A      0.852629  
     107A      0.878133   108A      0.889820   109A      0.893515  
     110A      0.900433   111A      0.904506   112A      0.913579  
     113A      0.924785   114A      0.951390   115A      0.965143  
     116A      0.968394   117A      0.981207   118A      1.042195  
     119A      1.054318   120A      1.062828   121A      1.068316  
     122A      1.073130   123A      1.075984   124A      1.086158  
     125A      1.101549   126A      1.122677   127A      1.123543  
     128A      1.133743   129A      1.141555   130A      1.146459  
     131A      1.151285   132A      1.172276   133A      1.183195  
     134A      1.193559   135A      1.202267   136A      1.212275  
     137A      1.227351   138A      1.229773   139A      1.233298  
     140A      1.268281   141A      1.295448   142A      1.310143  
     143A      1.333932   144A      1.348945   145A      1.360642  
     146A      1.373073   147A      1.382056   148A      1.386536  
     149A      1.397558   150A      1.412015   151A      1.478854  
     152A      1.483324   153A      1.545028   154A      1.581843  
     155A      1.615390   156A      1.621859   157A      1.642447  
     158A      1.647417   159A      1.654600   160A      1.813000  
     161A      1.823097   162A      1.828115   163A      1.839361  
     164A      1.848254   165A      1.854564   166A      1.865693  
     167A      1.868623   168A      1.879504   169A      1.906053  
     170A      1.941476   171A      1.973130   172A      1.983645  
     173A      1.991790   174A      2.022512   175A      2.033402  
     176A      2.108853   177A      2.146079   178A      2.152307  
     179A      2.206875   180A      2.214863   181A      2.221582  
     182A      2.257444   183A      2.261773   184A      2.267876  
     185A      2.299607   186A      2.311013   187A      2.348895  
     188A      2.361443   189A      2.372037   190A      2.399602  
     191A      2.404371   192A      2.427706   193A      2.433231  
     194A      2.456168   195A      2.518757   196A      2.533920  
     197A      2.648163   198A      2.675634   199A      2.702421  
     200A      2.706818   201A      2.837435   202A      2.895904  
     203A      2.940272   204A      2.961871   205A      2.978714  
     206A      3.248084   207A      3.251474   208A      3.434819  
     209A      3.440365   210A      3.487852   211A      3.529823  
     212A      3.572069   213A      3.582093   214A      3.590558  
     215A      3.597084   216A      3.608033   217A      3.751263  
     218A      3.770316   219A      3.787102   220A      3.819713  
     221A      3.853772   222A      3.860975   223A      3.871718  
     224A      3.908929   225A      3.932029   226A      3.934346  
     227A      3.945545   228A      3.955349   229A      4.043970  
     230A      4.079270   231A      4.093222   232A      4.094697  
     233A      4.103693   234A      4.109308   235A      4.114915  
     236A      4.158177   237A      4.204457   238A      4.217443  
     239A      4.259254   240A      4.269382   241A      4.300505  
     242A      4.303534   243A      4.315598   244A      4.329226  
     245A      4.361149   246A      4.366777   247A      4.402611  
     248A      4.409295   249A      4.486392   250A      4.494605  
     251A      4.520853   252A      4.569663   253A      4.577321  
     254A      4.662185   255A      4.669346   256A      4.676950  
     257A      4.692538   258A      4.713797   259A      4.739998  
     260A      4.763942   261A      4.796806   262A      4.810415  
     263A      4.847563   264A      4.867353   265A      4.928491  
     266A      4.944881   267A      4.955892   268A      5.008159  
     269A      5.033462   270A      5.074095   271A      5.075427  
     272A      5.197104   273A      5.198884   274A      5.232023  
     275A      5.250167   276A      5.285169   277A      5.298833  
     278A      5.328889   279A      5.352979   280A      5.375762  
     281A      5.398477   282A      5.404515   283A      5.407078  
     284A      5.449168   285A      5.509828   286A      5.520380  
     287A      5.543818   288A      5.558327   289A      5.727387  
     290A      5.749884   291A      5.759028   292A      5.809045  
     293A      5.816714   294A      5.819914   295A      5.874980  
     296A      5.892522   297A      5.902522   298A      5.947883  
     299A      6.072834   300A      6.101891   301A      6.128300  
     302A      6.163083   303A      6.180457   304A      6.353826  
     305A      6.406115   306A      6.446656   307A      6.597997  
     308A      6.619360   309A      6.676040   310A      6.827928  
     311A      6.836029   312A      7.227780   313A      7.308236  
     314A      7.323933   315A      7.484510   316A      7.562898  
     317A      7.594046   318A      7.870354   319A     16.702215  
     320A     17.517606   321A     17.726016   322A     18.634347  

    Final Occupation by Irrep:
              A 
    DOCC [    16 ]

  @DF-RHF Final Energy:  -204.61291564211498

   => Energetics <=

    Nuclear Repulsion Energy =            133.1777659668661329
    One-Electron Energy =                -533.4349941511433144
    Two-Electron Energy =                 195.6443125421622256
    Total Energy =                       -204.6129156421149844

Computation Completed

*** tstop() called on node59.bme.utexas.edu at Mon Nov  9 00:00:31 2020
Module time:
	user time   =      28.90 seconds =       0.48 minutes
	system time =       1.28 seconds =       0.02 minutes
	total time  =          5 seconds =       0.08 minutes
Total time:
	user time   =      28.90 seconds =       0.48 minutes
	system time =       1.28 seconds =       0.02 minutes
	total time  =          5 seconds =       0.08 minutes
   => Loading Basis Set <=

    Name: (AUG-CC-PVTZ AUX)
    Role: RIFIT
    Keyword: DF_BASIS_MP2
    atoms 1    entry C          line   148 file /home/xy3866/psi4conda/share/psi4/basis/aug-cc-pvtz-ri.gbs 
    atoms 2-4  entry N          line   206 file /home/xy3866/psi4conda/share/psi4/basis/aug-cc-pvtz-ri.gbs 
    atoms 5-10 entry H          line    30 file /home/xy3866/psi4conda/share/psi4/basis/aug-cc-pvtz-ri.gbs 


*** tstart() called on node59.bme.utexas.edu
*** at Mon Nov  9 00:00:31 2020


  //>>>>>>>>>>>>>>>>>>>>>>>>>>>>>>>>>>>//
  //               DFMP2               //
  //<<<<<<<<<<<<<<<<<<<<<<<<<<<<<<<<<<<//

	 --------------------------------------------------------
	                          DF-MP2                         
	      2nd-Order Density-Fitted Moller-Plesset Theory     
	              RMP2 Wavefunction,   8 Threads             
	                                                         
	        Rob Parrish, Justin Turney, Andy Simmonett,      
	           Ed Hohenstein, and C. David Sherrill          
	 --------------------------------------------------------

   => Auxiliary Basis Set <=

  Basis Set: (AUG-CC-PVTZ AUX)
    Blend: AUG-CC-PVTZ-RI
    Number of shells: 196
    Number of basis function: 700
    Number of Cartesian functions: 874
    Spherical Harmonics?: true
    Max angular momentum: 4

	 --------------------------------------------------------
	                 NBF =   322, NAUX =   700
	 --------------------------------------------------------
	   CLASS    FOCC     OCC    AOCC    AVIR     VIR    FVIR
	   PAIRS       0      16      16     306     306       0
	 --------------------------------------------------------

  DFHelper Memory: AOs need 0.562 GiB; user supplied 22.352 GiB. Using in-core AOs.


         ------------------------------------------------------------
                                     CPHF                           
                                  Rob Parrish                       
         ------------------------------------------------------------

  ==> Geometry <==

    Molecular point group: c1
    Full point group: C1

    Geometry (in Angstrom), charge = 1, multiplicity = 1:

       Center              X                  Y                   Z               Mass       
    ------------   -----------------  -----------------  -----------------  -----------------
         C            0.000262320356    -0.000000533553    -0.003347523853    12.000000000000
         N            1.335192320356    -0.003741533553    -0.003345523853    14.003074004430
         N           -0.664523679644     1.157909466447    -0.003348523853    14.003074004430
         N           -0.671007679644    -1.154168533553    -0.003391523853    14.003074004430
         H           -1.682466679644    -1.179744533553    -0.003386523853     1.007825032230
         H           -0.191724679644    -2.045412533553    -0.003133523853     1.007825032230
         H            1.863500320356    -0.866956533553    -0.003503523853     1.007825032230
         H            1.868327320356     0.856500466447    -0.003249523853     1.007825032230
         H           -0.180251679644     2.046447466447    -0.003489523853     1.007825032230
         H           -1.675797279644     1.189180366447     0.196753476147     1.007825032230

  Nuclear repulsion =  133.177765966866133
  Reference energy  = -204.612915642114984

  ==> Basis Set <==

  Basis Set: AUG-CC-PVTZ
    Blend: AUG-CC-PVTZ
    Number of shells: 110
    Number of basis function: 322
    Number of Cartesian functions: 370
    Spherical Harmonics?: true
    Max angular momentum: 3

  ==> CGRSolver (by Rob Parrish) <==

   Number of roots    =         1
   Preconditioning    =    JACOBI
   Convergence cutoff =     1E-06
   Maximum iterations =       100

  ==> CPHFRHamiltonian (by Rob Parrish) <== 

  ==> MemDFJK: Density-Fitted J/K Matrices <==

    J tasked:                   Yes
    K tasked:                   Yes
    wK tasked:                   No
    OpenMP threads:               8
    Memory [MiB]:             22888
    Algorithm:                 Core
    Schwarz Cutoff:           1E-12
    Mask sparsity (%):       0.5227
    Fitting Condition:        1E-10

   => Auxiliary Basis Set <=

  Basis Set: (AUG-CC-PVTZ AUX)
    Blend: AUG-CC-PVTZ-JKFIT
    Number of shells: 204
    Number of basis function: 692
    Number of Cartesian functions: 854
    Spherical Harmonics?: true
    Max angular momentum: 4

  ==> CPHF Iterations <==

  => Iterations <=

             Iter  Converged  Remaining    Residual
  CGR           1          0          1   1.006E-01
  CGR           2          0          1   2.453E-02
  CGR           3          0          1   5.486E-03
  CGR           4          0          1   1.654E-03
  CGR           5          0          1   1.925E-04
  CGR           6          0          1   3.779E-05
  CGR           7          0          1   1.329E-05
  CGR           8          0          1   3.587E-06
  CGR           9          1          0   8.838E-07

    CGRSolver converged.

	-----------------------------------------------------------
	 ==================> DF-MP2 Energies <==================== 
	-----------------------------------------------------------
	 Reference Energy          =    -204.6129156421149844 [Eh]
	 Singles Energy            =      -0.0000000000000000 [Eh]
	 Same-Spin Energy          =      -0.2034055340930400 [Eh]
	 Opposite-Spin Energy      =      -0.6543796506455167 [Eh]
	 Correlation Energy        =      -0.8577851847385567 [Eh]
	 Total Energy              =    -205.4707008268535446 [Eh]
	-----------------------------------------------------------
	 ================> DF-SCS-MP2 Energies <================== 
	-----------------------------------------------------------
	 SCS Same-Spin Scale       =       0.3333333333333333 [-]
	 SCS Opposite-Spin Scale   =       1.2000000000000000 [-]
	 SCS Same-Spin Energy      =      -0.0678018446976800 [Eh]
	 SCS Opposite-Spin Energy  =      -0.7852555807746201 [Eh]
	 SCS Correlation Energy    =      -0.8530574254723001 [Eh]
	 SCS Total Energy          =    -205.4659730675872709 [Eh]
	-----------------------------------------------------------



Properties will be evaluated at   0.000000,   0.000000,   0.000000 [a0]

Properties computed using the MP2 density matrix

  Nuclear Dipole Moment: [e a0]
     X:     0.0015      Y:     0.0000      Z:     0.1688

  Electronic Dipole Moment: [e a0]
     X:     0.0058      Y:    -0.0046      Z:    -0.0521

  Dipole Moment: [e a0]
     X:     0.0073      Y:    -0.0046      Z:     0.1167     Total:     0.1170

  Dipole Moment: [D]
     X:     0.0185      Y:    -0.0116      Z:     0.2966     Total:     0.2974


*** tstop() called on node59.bme.utexas.edu at Mon Nov  9 00:00:42 2020
Module time:
	user time   =      73.77 seconds =       1.23 minutes
	system time =       2.25 seconds =       0.04 minutes
	total time  =         11 seconds =       0.18 minutes
Total time:
	user time   =     103.44 seconds =       1.72 minutes
	system time =       3.58 seconds =       0.06 minutes
	total time  =         16 seconds =       0.27 minutes

    Psi4 stopped on: Monday, 09 November 2020 12:00AM
    Psi4 wall time for execution: 0:00:16.21

*** Psi4 exiting successfully. Buy a developer a beer!
