160_AcetoneOxime Gaussian SP Calculation on g2-node38.bme.utexas.edu    
Freq      RMP2-FC                                                     6-31G(d)            
Number of atoms                            I               12
Info1-9                                    I   N=           9
          23          22        1002           0           0         100
           6           2           1
Charge                                     I                0
Multiplicity                               I                1
Number of electrons                        I               40
Number of alpha electrons                  I               20
Number of beta electrons                   I               20
Number of basis functions                  I               89
Number of independent functions            I               89
Number of point charges in /Mol/           I                0
Number of translation vectors              I                0
Atomic numbers                             I   N=          12
           8           7           6           6           6           1
           1           1           1           1           1           1
Nuclear charges                            R   N=          12
  8.00000000E+00  7.00000000E+00  6.00000000E+00  6.00000000E+00  6.00000000E+00
  1.00000000E+00  1.00000000E+00  1.00000000E+00  1.00000000E+00  1.00000000E+00
  1.00000000E+00  1.00000000E+00
Current cartesian coordinates              R   N=          36
  3.44490409E+00 -2.95320345E-01  2.35730089E-06  1.10977865E+00 -1.62205060E+00
 -3.38057299E-06 -7.51296869E-01 -4.34536897E-02 -4.07738286E-06 -3.34665536E+00
 -1.17696207E+00  1.28190066E-06 -4.10409108E-01  2.77217012E+00  4.94218931E-07
 -3.22191359E+00 -3.23592903E+00 -6.83360191E-05 -4.40776086E+00 -5.64046946E-01
  1.66815311E+00 -4.40781841E+00 -5.63930806E-01 -1.66806994E+00 -2.23383381E+00
  3.73699610E+00  3.51556824E-05  6.73862573E-01  3.36058424E+00  1.65877515E+00
  6.73801604E-01  3.36059361E+00 -1.65881126E+00  4.64614731E+00 -1.68787642E+00
  4.74160423E-06
Force Field                                I                0
Int Atom Types                             I   N=          12
           0           0           0           0           0           0
           0           0           0           0           0           0
MM charges                                 R   N=          12
  0.00000000E+00  0.00000000E+00  0.00000000E+00  0.00000000E+00  0.00000000E+00
  0.00000000E+00  0.00000000E+00  0.00000000E+00  0.00000000E+00  0.00000000E+00
  0.00000000E+00  0.00000000E+00
Integer atomic weights                     I   N=          12
          16          14          12          12          12           1
           1           1           1           1           1           1
Real atomic weights                        R   N=          12
  1.59949146E+01  1.40030740E+01  1.20000000E+01  1.20000000E+01  1.20000000E+01
  1.00782504E+00  1.00782504E+00  1.00782504E+00  1.00782504E+00  1.00782504E+00
  1.00782504E+00  1.00782504E+00
Atom fragment info                         I   N=          12
           0           0           0           0           0           0
           0           0           0           0           0           0
Atom residue num                           I   N=          12
           0           0           0           0           0           0
           0           0           0           0           0           0
Nuclear spins                              I   N=          12
           0           2           0           0           0           1
           1           1           1           1           1           1
Nuclear ZEff                               R   N=          12
 -5.60000000E+00 -4.55000000E+00 -3.60000000E+00 -3.60000000E+00 -3.60000000E+00
 -1.00000000E+00 -1.00000000E+00 -1.00000000E+00 -1.00000000E+00 -1.00000000E+00
 -1.00000000E+00 -1.00000000E+00
Nuclear QMom                               R   N=          12
  0.00000000E+00  2.04400000E+00  0.00000000E+00  0.00000000E+00  0.00000000E+00
  0.00000000E+00  0.00000000E+00  0.00000000E+00  0.00000000E+00  0.00000000E+00
  0.00000000E+00  0.00000000E+00
Nuclear GFac                               R   N=          12
  0.00000000E+00  4.03761000E-01  0.00000000E+00  0.00000000E+00  0.00000000E+00
  2.79284600E+00  2.79284600E+00  2.79284600E+00  2.79284600E+00  2.79284600E+00
  2.79284600E+00  2.79284600E+00
MicOpt                                     I   N=          12
          -1          -1          -1          -1          -1          -1
          -1          -1          -1          -1          -1          -1
Number of contracted shells                I               34
Number of primitive shells                 I               83
Pure/Cartesian d shells                    I                1
Pure/Cartesian f shells                    I                0
Highest angular momentum                   I                2
Largest degree of contraction              I                6
Shell types                                I   N=          34
           0          -1          -1           2           0          -1
          -1           2           0          -1          -1           2
           0          -1          -1           2           0          -1
          -1           2           0           0           0           0
           0           0           0           0           0           0
           0           0           0           0
Number of primitives per shell             I   N=          34
           6           3           1           1           6           3
           1           1           6           3           1           1
           6           3           1           1           6           3
           1           1           3           1           3           1
           3           1           3           1           3           1
           3           1           3           1
Shell to atom map                          I   N=          34
           1           1           1           1           2           2
           2           2           3           3           3           3
           4           4           4           4           5           5
           5           5           6           6           7           7
           8           8           9           9          10          10
          11          11          12          12
Primitive exponents                        R   N=          83
  5.48467166E+03  8.25234946E+02  1.88046958E+02  5.29645000E+01  1.68975704E+01
  5.79963534E+00  1.55396162E+01  3.59993359E+00  1.01376175E+00  2.70005823E-01
  8.00000000E-01  4.17351146E+03  6.27457911E+02  1.42902093E+02  4.02343293E+01
  1.28202129E+01  4.39043701E+00  1.16263619E+01  2.71627981E+00  7.72218397E-01
  2.12031498E-01  8.00000000E-01  3.04752488E+03  4.57369518E+02  1.03948685E+02
  2.92101553E+01  9.28666296E+00  3.16392696E+00  7.86827235E+00  1.88128854E+00
  5.44249258E-01  1.68714478E-01  8.00000000E-01  3.04752488E+03  4.57369518E+02
  1.03948685E+02  2.92101553E+01  9.28666296E+00  3.16392696E+00  7.86827235E+00
  1.88128854E+00  5.44249258E-01  1.68714478E-01  8.00000000E-01  3.04752488E+03
  4.57369518E+02  1.03948685E+02  2.92101553E+01  9.28666296E+00  3.16392696E+00
  7.86827235E+00  1.88128854E+00  5.44249258E-01  1.68714478E-01  8.00000000E-01
  1.87311370E+01  2.82539436E+00  6.40121692E-01  1.61277759E-01  1.87311370E+01
  2.82539436E+00  6.40121692E-01  1.61277759E-01  1.87311370E+01  2.82539436E+00
  6.40121692E-01  1.61277759E-01  1.87311370E+01  2.82539436E+00  6.40121692E-01
  1.61277759E-01  1.87311370E+01  2.82539436E+00  6.40121692E-01  1.61277759E-01
  1.87311370E+01  2.82539436E+00  6.40121692E-01  1.61277759E-01  1.87311370E+01
  2.82539436E+00  6.40121692E-01  1.61277759E-01
Contraction coefficients                   R   N=          83
  1.83107443E-03  1.39501722E-02  6.84450781E-02  2.32714336E-01  4.70192898E-01
  3.58520853E-01 -1.10777550E-01 -1.48026263E-01  1.13076702E+00  1.00000000E+00
  1.00000000E+00  1.83477216E-03  1.39946270E-02  6.85865518E-02  2.32240873E-01
  4.69069948E-01  3.60455199E-01 -1.14961182E-01 -1.69117479E-01  1.14585195E+00
  1.00000000E+00  1.00000000E+00  1.83473713E-03  1.40373228E-02  6.88426223E-02
  2.32184443E-01  4.67941348E-01  3.62311985E-01 -1.19332420E-01 -1.60854152E-01
  1.14345644E+00  1.00000000E+00  1.00000000E+00  1.83473713E-03  1.40373228E-02
  6.88426223E-02  2.32184443E-01  4.67941348E-01  3.62311985E-01 -1.19332420E-01
 -1.60854152E-01  1.14345644E+00  1.00000000E+00  1.00000000E+00  1.83473713E-03
  1.40373228E-02  6.88426223E-02  2.32184443E-01  4.67941348E-01  3.62311985E-01
 -1.19332420E-01 -1.60854152E-01  1.14345644E+00  1.00000000E+00  1.00000000E+00
  3.34946043E-02  2.34726953E-01  8.13757326E-01  1.00000000E+00  3.34946043E-02
  2.34726953E-01  8.13757326E-01  1.00000000E+00  3.34946043E-02  2.34726953E-01
  8.13757326E-01  1.00000000E+00  3.34946043E-02  2.34726953E-01  8.13757326E-01
  1.00000000E+00  3.34946043E-02  2.34726953E-01  8.13757326E-01  1.00000000E+00
  3.34946043E-02  2.34726953E-01  8.13757326E-01  1.00000000E+00  3.34946043E-02
  2.34726953E-01  8.13757326E-01  1.00000000E+00
P(S=P) Contraction coefficients            R   N=          83
  0.00000000E+00  0.00000000E+00  0.00000000E+00  0.00000000E+00  0.00000000E+00
  0.00000000E+00  7.08742682E-02  3.39752839E-01  7.27158577E-01  1.00000000E+00
  0.00000000E+00  0.00000000E+00  0.00000000E+00  0.00000000E+00  0.00000000E+00
  0.00000000E+00  0.00000000E+00  6.75797439E-02  3.23907296E-01  7.40895140E-01
  1.00000000E+00  0.00000000E+00  0.00000000E+00  0.00000000E+00  0.00000000E+00
  0.00000000E+00  0.00000000E+00  0.00000000E+00  6.89990666E-02  3.16423961E-01
  7.44308291E-01  1.00000000E+00  0.00000000E+00  0.00000000E+00  0.00000000E+00
  0.00000000E+00  0.00000000E+00  0.00000000E+00  0.00000000E+00  6.89990666E-02
  3.16423961E-01  7.44308291E-01  1.00000000E+00  0.00000000E+00  0.00000000E+00
  0.00000000E+00  0.00000000E+00  0.00000000E+00  0.00000000E+00  0.00000000E+00
  6.89990666E-02  3.16423961E-01  7.44308291E-01  1.00000000E+00  0.00000000E+00
  0.00000000E+00  0.00000000E+00  0.00000000E+00  0.00000000E+00  0.00000000E+00
  0.00000000E+00  0.00000000E+00  0.00000000E+00  0.00000000E+00  0.00000000E+00
  0.00000000E+00  0.00000000E+00  0.00000000E+00  0.00000000E+00  0.00000000E+00
  0.00000000E+00  0.00000000E+00  0.00000000E+00  0.00000000E+00  0.00000000E+00
  0.00000000E+00  0.00000000E+00  0.00000000E+00  0.00000000E+00  0.00000000E+00
  0.00000000E+00  0.00000000E+00  0.00000000E+00
Coordinates of each shell                  R   N=         102
  3.44490409E+00 -2.95320345E-01  2.35730089E-06  3.44490409E+00 -2.95320345E-01
  2.35730089E-06  3.44490409E+00 -2.95320345E-01  2.35730089E-06  3.44490409E+00
 -2.95320345E-01  2.35730089E-06  1.10977865E+00 -1.62205060E+00 -3.38057299E-06
  1.10977865E+00 -1.62205060E+00 -3.38057299E-06  1.10977865E+00 -1.62205060E+00
 -3.38057299E-06  1.10977865E+00 -1.62205060E+00 -3.38057299E-06 -7.51296869E-01
 -4.34536897E-02 -4.07738286E-06 -7.51296869E-01 -4.34536897E-02 -4.07738286E-06
 -7.51296869E-01 -4.34536897E-02 -4.07738286E-06 -7.51296869E-01 -4.34536897E-02
 -4.07738286E-06 -3.34665536E+00 -1.17696207E+00  1.28190066E-06 -3.34665536E+00
 -1.17696207E+00  1.28190066E-06 -3.34665536E+00 -1.17696207E+00  1.28190066E-06
 -3.34665536E+00 -1.17696207E+00  1.28190066E-06 -4.10409108E-01  2.77217012E+00
  4.94218931E-07 -4.10409108E-01  2.77217012E+00  4.94218931E-07 -4.10409108E-01
  2.77217012E+00  4.94218931E-07 -4.10409108E-01  2.77217012E+00  4.94218931E-07
 -3.22191359E+00 -3.23592903E+00 -6.83360191E-05 -3.22191359E+00 -3.23592903E+00
 -6.83360191E-05 -4.40776086E+00 -5.64046946E-01  1.66815311E+00 -4.40776086E+00
 -5.64046946E-01  1.66815311E+00 -4.40781841E+00 -5.63930806E-01 -1.66806994E+00
 -4.40781841E+00 -5.63930806E-01 -1.66806994E+00 -2.23383381E+00  3.73699610E+00
  3.51556824E-05 -2.23383381E+00  3.73699610E+00  3.51556824E-05  6.73862573E-01
  3.36058424E+00  1.65877515E+00  6.73862573E-01  3.36058424E+00  1.65877515E+00
  6.73801604E-01  3.36059361E+00 -1.65881126E+00  6.73801604E-01  3.36059361E+00
 -1.65881126E+00  4.64614731E+00 -1.68787642E+00  4.74160423E-06  4.64614731E+00
 -1.68787642E+00  4.74160423E-06
Constraint Structure                       R   N=          36
  3.44490409E+00 -2.95320345E-01  2.35730089E-06  1.10977865E+00 -1.62205060E+00
 -3.38057299E-06 -7.51296869E-01 -4.34536897E-02 -4.07738286E-06 -3.34665536E+00
 -1.17696207E+00  1.28190066E-06 -4.10409108E-01  2.77217012E+00  4.94218931E-07
 -3.22191359E+00 -3.23592903E+00 -6.83360191E-05 -4.40776086E+00 -5.64046946E-01
  1.66815311E+00 -4.40781841E+00 -5.63930806E-01 -1.66806994E+00 -2.23383381E+00
  3.73699610E+00  3.51556824E-05  6.73862573E-01  3.36058424E+00  1.65877515E+00
  6.73801604E-01  3.36059361E+00 -1.65881126E+00  4.64614731E+00 -1.68787642E+00
  4.74160423E-06
Num ILSW                                   I              100
ILSW                                       I   N=         100
           0           1           0           0           2           0
           0           0           0           0           0          -1
           0           0           0           0           0           0
           0           0           0           0           1           0
           1           0           0           0           0           0
           0           0      100000           0          -1           0
           0           0           0           0           0           0
           0           0           0           1           1           0
           0           0           1           0           0           0
           0           0           4          40           0           0
           0           0           0           0           0           0
           0           0           0           0           0           0
           0           0           0           0           0           0
           0           0           0           0           0           0
           0           0           0           0           0           0
           0           0           0           0           0           0
           0           0           0           0
Num RLSW                                   I               40
RLSW                                       R   N=          40
  1.00000000E+00  1.00000000E+00  1.00000000E+00  1.00000000E+00  1.00000000E+00
  0.00000000E+00  0.00000000E+00  1.00000000E+00  0.00000000E+00  0.00000000E+00
  0.00000000E+00  0.00000000E+00  1.00000000E+00  0.00000000E+00  0.00000000E+00
  0.00000000E+00  0.00000000E+00  1.00000000E+00  0.00000000E+00  0.00000000E+00
  0.00000000E+00  0.00000000E+00  1.00000000E+00  0.00000000E+00  0.00000000E+00
  0.00000000E+00  0.00000000E+00  1.00000000E+00  0.00000000E+00  0.00000000E+00
  0.00000000E+00  0.00000000E+00  0.00000000E+00  0.00000000E+00  0.00000000E+00
  0.00000000E+00  0.00000000E+00  0.00000000E+00  1.00000000E+00  1.00000000E+00
MxBond                                     I                4
NBond                                      I   N=          12
           2           2           3           4           4           1
           1           1           1           1           1           1
IBond                                      I   N=          48
           2          12           0           0           1           3
           0           0           2           4           5           0
           3           6           7           8           3           9
          10          11           4           0           0           0
           4           0           0           0           4           0
           0           0           5           0           0           0
           5           0           0           0           5           0
           0           0           1           0           0           0
RBond                                      R   N=          48
  1.00000000E+00  1.00000000E+00  0.00000000E+00  0.00000000E+00  1.00000000E+00
  2.00000000E+00  0.00000000E+00  0.00000000E+00  2.00000000E+00  1.00000000E+00
  1.00000000E+00  0.00000000E+00  1.00000000E+00  1.00000000E+00  1.00000000E+00
  1.00000000E+00  1.00000000E+00  1.00000000E+00  1.00000000E+00  1.00000000E+00
  1.00000000E+00  0.00000000E+00  0.00000000E+00  0.00000000E+00  1.00000000E+00
  0.00000000E+00  0.00000000E+00  0.00000000E+00  1.00000000E+00  0.00000000E+00
  0.00000000E+00  0.00000000E+00  1.00000000E+00  0.00000000E+00  0.00000000E+00
  0.00000000E+00  1.00000000E+00  0.00000000E+00  0.00000000E+00  0.00000000E+00
  1.00000000E+00  0.00000000E+00  0.00000000E+00  0.00000000E+00  1.00000000E+00
  0.00000000E+00  0.00000000E+00  0.00000000E+00
Virial Ratio                               R      2.002638798389858E+00
SCF Energy                                 R     -2.469213058397461E+02
MP2 Energy                                 R     -2.476584856733619E+02
Total Energy                               R     -2.476584856733619E+02
Post-SCF wavefunction norm                 R      1.574311375515738E+00
RMS Force                                  R      5.833457133665335E-07
RMS Density                                R      2.058114851525313E-09
External E-field                           R   N=          35
  0.00000000E+00  0.00000000E+00  0.00000000E+00  0.00000000E+00  0.00000000E+00
  0.00000000E+00  0.00000000E+00  0.00000000E+00  0.00000000E+00  0.00000000E+00
  0.00000000E+00  0.00000000E+00  0.00000000E+00  0.00000000E+00  0.00000000E+00
  0.00000000E+00  0.00000000E+00  0.00000000E+00  0.00000000E+00  0.00000000E+00
  0.00000000E+00  0.00000000E+00  0.00000000E+00  0.00000000E+00  0.00000000E+00
  0.00000000E+00  0.00000000E+00  0.00000000E+00  0.00000000E+00  0.00000000E+00
  0.00000000E+00  0.00000000E+00  0.00000000E+00  0.00000000E+00  0.00000000E+00
IOpCl                                      I                0
IROHF                                      I                0
Alpha Orbital Energies                     R   N=          89
 -2.05894974E+01 -1.56120217E+01 -1.12811412E+01 -1.12313020E+01 -1.12284373E+01
 -1.39928066E+00 -1.15868984E+00 -9.90337761E-01 -9.57151573E-01 -7.26427733E-01
 -6.82978000E-01 -6.42702621E-01 -6.14566007E-01 -5.67698753E-01 -5.58305021E-01
 -5.45104283E-01 -5.40973925E-01 -5.18059492E-01 -4.27643991E-01 -3.68753133E-01
  1.74922843E-01  2.35596590E-01  2.44571390E-01  2.91025450E-01  3.03753645E-01
  3.12690311E-01  3.16553298E-01  3.59224162E-01  3.70585154E-01  4.09185664E-01
  4.76638267E-01  5.50833596E-01  7.24968298E-01  7.54334785E-01  8.03446371E-01
  8.14659369E-01  8.43232600E-01  9.03718165E-01  9.12790104E-01  9.33768711E-01
  9.79876889E-01  1.01662769E+00  1.04765635E+00  1.06412684E+00  1.07741249E+00
  1.12946261E+00  1.14863537E+00  1.15134579E+00  1.18569830E+00  1.19303726E+00
  1.22133860E+00  1.23400669E+00  1.25266241E+00  1.27309108E+00  1.42354716E+00
  1.51724626E+00  1.61152940E+00  1.64874787E+00  1.66241496E+00  1.71996115E+00
  1.81393840E+00  1.81558360E+00  1.98552041E+00  2.05985847E+00  2.08772650E+00
  2.16967514E+00  2.21422831E+00  2.23886801E+00  2.28957781E+00  2.39375695E+00
  2.44573054E+00  2.48825628E+00  2.55018222E+00  2.62453791E+00  2.62821241E+00
  2.69429709E+00  2.77738676E+00  2.79023527E+00  2.80730657E+00  2.89131383E+00
  3.00415009E+00  3.10551290E+00  3.32500190E+00  3.41039234E+00  4.07920442E+00
  4.34924852E+00  4.52995641E+00  4.69516257E+00  4.86806794E+00
Alpha MO coefficients                      R   N=        7921
  9.94693858E-01  2.10745239E-02 -2.24575299E-04 -1.33818855E-03 -1.01759723E-09
  3.68344546E-03  1.12226611E-04  7.76644839E-04  9.00465381E-10 -4.19964470E-03
 -4.02951109E-03 -3.79957746E-03 -6.80154005E-05 -1.18659640E-09 -1.11468549E-10
  6.19886691E-06  1.84695365E-04  2.61871580E-04  1.77582984E-04  4.84195802E-10
 -2.78948352E-05  2.51000025E-04 -1.24432090E-05  1.77408295E-09  8.48070630E-05
  1.70886637E-05 -4.26095373E-05  4.06569043E-05  1.49063095E-10  3.04012632E-10
 -1.80559281E-06  1.73492766E-05 -2.93790275E-05  2.13028734E-05  1.40814185E-10
  3.36879886E-04  1.40304628E-05 -1.82005122E-05 -4.35788096E-09 -7.47158991E-05
  5.49707619E-06 -1.95257049E-05  2.50694636E-05 -1.47770193E-11 -3.33291817E-10
 -4.92058113E-07 -3.79805043E-07 -4.28032942E-06  3.19129695E-06 -5.61088545E-10
 -7.25981711E-05  3.80108194E-06 -2.92274780E-05  4.30044980E-09  6.74341834E-06
  5.19711705E-06 -8.24040111E-06  1.10931127E-06 -1.59082789E-10  5.70508309E-10
  1.27380484E-05  8.45071841E-05  5.82428420E-05 -3.23224301E-05 -1.89749107E-09
 -1.23978412E-04 -3.34127943E-04  2.74710676E-04  1.29889251E-08  9.75179701E-06
 -1.01470118E-05  5.93463648E-06  1.01018704E-05 -7.39981518E-10  3.81757262E-10
 -7.20779371E-06  1.40479058E-05  5.45427199E-06  1.09208337E-05  5.45468838E-06
  1.09268546E-05 -2.92424349E-05 -2.17995301E-04  7.89239876E-05 -5.54413768E-05
  7.89224901E-05 -5.54239685E-05  4.43815789E-04 -1.81687916E-04 -1.10795092E-04
  1.67735282E-04 -2.51545216E-04 -1.25228300E-04 -4.84897559E-10  1.16184279E-03
 -1.46484029E-04 -8.84072742E-05 -6.47697990E-10 -3.54665693E-04 -1.45512897E-04
  4.25554326E-05 -2.48001112E-04 -9.97605858E-10 -8.03208450E-10  9.95305193E-01
  2.41547864E-02  2.36632114E-04  2.18597812E-03  3.28269267E-09 -4.44751189E-03
  2.19648761E-04 -2.29146278E-03 -2.58622214E-09 -2.76773800E-03 -2.70231648E-03
 -3.02999054E-03 -2.92627138E-04 -1.52284357E-10  3.80807336E-10  2.37143991E-05
  2.19586421E-04 -1.09915177E-04  3.73217810E-05 -3.78284015E-10  2.93048520E-03
  2.12915091E-03 -5.17389877E-04  3.36102511E-09 -4.16998043E-04 -2.49054675E-04
 -6.80755988E-05  2.75035675E-04 -4.74344434E-11  3.47865530E-10 -9.82906843E-06
 -6.16385504E-05  1.14222761E-05 -4.07001987E-06 -7.90074340E-10  6.53216103E-04
 -5.29732302E-05  4.52841710E-04  6.13394545E-10 -4.68524286E-05  3.20157429E-05
 -1.45229963E-05  5.93254058E-05  1.02527778E-09 -2.91062549E-09 -1.22642867E-05
 -4.04013658E-05 -3.51842739E-05  8.96240248E-05  1.45077234E-09 -2.46614885E-04
 -2.83604881E-04  2.39767903E-04 -7.13635444E-09  2.92243211E-05 -6.21554199E-05
 -7.53639433E-05  6.30928815E-05 -6.19321181E-10  1.86075887E-10  3.12228485E-05
  4.35710087E-05 -2.11145728E-05 -1.35318485E-04 -2.11188972E-05 -1.35321223E-04
 -1.40874724E-05 -6.60618252E-05  1.71755098E-05 -3.96881218E-05  1.71753973E-05
 -3.97000352E-05 -1.00571956E-04 -7.62024033E-05  1.13441730E-05 -7.05458479E-05
 -4.07224357E-05 -2.85766030E-05  1.85205585E-10  9.39965062E-05 -2.13616540E-04
  1.20090530E-04 -1.98798020E-09  2.05847647E-04 -3.25110505E-05  1.71897334E-05
  2.60484815E-05  8.02162279E-10 -4.86065085E-11 -4.14221173E-04  2.37255171E-04
 -2.61389783E-06 -1.70197361E-06 -3.39473613E-10 -6.76811211E-04  6.20130875E-04
 -5.79990206E-04  5.03801756E-09 -3.60668614E-04 -2.36419495E-04  1.70502204E-04
  3.05114935E-05 -1.38683427E-09  2.11119071E-10  9.95660315E-01  2.71483153E-02
  1.26729550E-04 -1.42648237E-04  2.28005119E-09 -1.02069350E-02  2.29144266E-03
 -1.94533149E-03 -1.03138389E-08 -1.40553413E-03 -1.47160965E-03 -2.34883399E-03
 -3.27881913E-04 -1.48557131E-09 -9.47687037E-10  6.59816969E-03  3.20906333E-04
 -1.49380587E-04  1.72142394E-06  5.22376617E-09  2.83002770E-03  1.37859322E-03
  9.96753166E-04 -2.77761281E-08 -5.61809038E-04 -1.77332971E-04 -5.52714800E-05
 -1.05176531E-04  2.94221111E-09 -2.44333691E-09  6.20045396E-03  2.73036951E-04
  9.56764288E-05  9.05782265E-05 -2.61299987E-09  3.23392579E-03 -1.25507216E-03
 -1.54353711E-03  1.66692581E-08 -1.01930599E-04 -5.74422772E-04 -1.12030329E-04
 -7.17677924E-06 -2.05437408E-09 -1.02427964E-09 -5.19109818E-05  1.49942520E-04
 -1.54982579E-04  2.79396021E-04 -1.54979868E-04  2.79348192E-04 -1.44322056E-04
 -4.89522518E-04 -1.15247302E-04  4.74513967E-04 -1.15251630E-04  4.74529741E-04
  4.80472291E-05 -9.56218154E-05 -2.68174877E-05 -1.06373710E-04  2.98492224E-05
 -2.13232757E-06  7.05457377E-10  5.09546998E-04 -2.53578901E-04 -1.90025505E-05
 -3.42940663E-09 -4.64022051E-05 -7.58122231E-05 -9.18840053E-05  3.29785769E-06
  7.35802601E-10  3.66304253E-10 -2.22153257E-05 -1.90270023E-04  4.02974279E-05
  6.72608130E-06 -1.78519133E-09  5.24363130E-04 -4.00565116E-04  2.83677376E-04
  8.17943254E-09  1.90917086E-05  9.13764777E-07 -1.31780986E-04 -6.82608752E-05
 -1.82124941E-09 -3.17575956E-10 -6.88132617E-03 -5.30655894E-05  2.56629262E-05
  8.00866731E-05  7.85111954E-10  3.36321348E-03 -2.67187141E-03 -1.11938987E-03
 -2.90904488E-09 -4.73832729E-04 -2.62201018E-04 -1.20984256E-04 -1.33470014E-04
 -5.88546926E-10  3.57612782E-10  9.95702515E-01  2.86638711E-02  1.48772244E-04
  1.96867072E-04  6.12916610E-09 -1.59405779E-02 -1.05769724E-03 -6.46666995E-04
 -1.18522478E-08 -1.87538442E-03 -1.83555768E-03 -1.85348988E-03 -9.49451338E-06
  7.42449321E-10  7.44249372E-10 -3.83109586E-03 -3.03073790E-04  6.40133467E-05
  5.02224160E-05 -1.38155687E-09  7.44818486E-04  2.13809736E-04 -4.49934311E-04
  6.97561254E-09 -5.03122362E-06  4.83153174E-05 -1.03753810E-04 -3.31488267E-05
 -8.02996623E-10 -4.70975377E-11  1.77419109E-04  2.42855139E-03  1.66699773E-04
  2.57672343E-03  1.66699725E-04  2.57671337E-03 -8.32250601E-05  2.39056289E-04
  1.43354894E-05 -9.52509454E-05  1.43368372E-05 -9.52433545E-05 -1.26890841E-06
  6.92986397E-05 -5.11932519E-05 -2.54876961E-04  1.08138065E-04 -6.03515588E-05
  1.61884113E-09  1.06643494E-03 -6.26381255E-04  1.25089666E-04 -6.68415497E-09
 -8.61868634E-05 -1.35915231E-04 -2.39961260E-04 -3.53504863E-05  1.13873388E-09
 -1.18052696E-09 -6.91046124E-06 -9.77334385E-05 -2.26315149E-05 -4.51085120E-05
 -3.25051710E-11  2.51782701E-04 -8.13998775E-04 -2.75150014E-04 -6.84012096E-10
  7.72022921E-05 -3.93370382E-05 -7.16236660E-05 -1.03603797E-04  7.50365403E-10
  2.91322883E-11 -6.53850935E-03 -4.76918328E-05  2.75777855E-05 -2.44868556E-05
 -8.72316468E-10  3.87784082E-03  1.06928174E-04  3.06237024E-03  2.43735814E-09
 -1.61211471E-04 -5.91139387E-04 -1.12107001E-04  1.46371564E-05  1.07981294E-10
 -1.01220078E-09  3.73894012E-03 -3.18581308E-05 -3.48322297E-05 -1.02372720E-04
 -8.91403697E-10  3.59308317E-04  2.29026705E-04 -7.67027377E-05  4.81848587E-09
  2.14692474E-05 -5.39397002E-05 -7.83906613E-05 -3.34726961E-05 -1.47674949E-10
 -7.53209448E-10  9.95714266E-01  2.87330739E-02  6.06647198E-06 -2.86200209E-04
 -6.46624365E-09 -1.62966983E-02 -1.57322400E-04  1.42863364E-03  2.12633707E-08
 -1.80668552E-03 -1.84833938E-03 -1.83429632E-03 -1.89549162E-05  1.31361555E-10
  6.06368496E-10  2.74494936E-06  2.50558042E-05 -3.22702289E-05 -1.70292172E-05
 -3.22744622E-05 -1.70156156E-05  1.35902697E-04  2.36544485E-03  2.29249926E-04
  2.60710852E-03  2.29248202E-04  2.60712626E-03  6.23951829E-05  1.51579373E-04
 -1.82126286E-01  4.14635666E-01 -3.82078708E-02 -7.88125710E-02 -8.60943152E-08
  3.67662440E-01 -1.89430683E-02 -4.26048657E-02 -2.57907017E-08  2.40244304E-02
  1.71737604E-02 -2.58368564E-03  1.28285486E-04  6.50018435E-08  6.59923564E-09
 -1.02454696E-01  2.12633373E-01  5.67939921E-02  7.65407838E-02  2.26799746E-07
  1.62823188E-01  1.28798066E-03  2.31615030E-02  2.41220952E-08  1.60859663E-02
  4.31523369E-03 -1.00779877E-02  1.11887692E-02  6.63219876E-08  4.34109578E-08
 -4.27747821E-02  8.35794326E-02  5.48655738E-02 -2.96601770E-02  5.52688794E-08
  2.37368532E-02 -1.93781383E-02  1.19894476E-02  3.65095530E-08  6.96248942E-03
 -3.74539820E-04 -4.42026920E-03 -7.43986620E-03  4.61900194E-09 -8.99554797E-09
 -6.11335223E-03  1.30056638E-02  9.47998593E-03  1.72891855E-03 -1.05355998E-08
 -4.44320115E-03 -2.22853650E-03 -6.51810605E-03 -5.49954817E-08  2.52978190E-03
  1.07161346E-05  1.26305609E-05  3.03435411E-04 -1.31744815E-08  1.73562712E-08
 -9.46490164E-03  1.91779567E-02  3.83760209E-03 -1.31540655E-02  2.20338007E-09
  2.31918167E-04  5.98678657E-03  4.47782339E-04 -1.26676706E-08  1.79265279E-04
  3.42700847E-03  4.26397040E-04 -6.64872957E-04  1.30999288E-08  6.58987823E-10
  3.14367828E-03 -1.76011922E-03  2.16468732E-03  6.04898658E-04  2.16468259E-03
  6.04869093E-04  2.75174739E-03  1.64603335E-03  4.88221288E-03  1.69065475E-03
  4.88208586E-03  1.69061235E-03  1.01176827E-01 -6.64445209E-03  9.39819391E-02
 -2.15224515E-01 -8.46395470E-02  3.28070926E-02 -1.67133545E-07 -2.43871272E-01
 -3.77340695E-02  2.14116018E-02 -5.13642379E-08  1.65656300E-03 -9.80775541E-03
 -9.98333533E-04  1.38378304E-02  2.18804312E-09  2.81592138E-08 -1.13946405E-01
  2.41877014E-01 -1.45139209E-01  8.07495191E-02 -5.50045711E-08  2.57989708E-01
 -5.14767122E-02  3.89580536E-02 -5.01981210E-08 -3.35263169E-03  4.16915717E-03
 -6.07543689E-03 -2.00721091E-02 -2.88837607E-08 -1.30288977E-08 -1.40856208E-01
  2.76305235E-01  6.67496200E-02 -7.13229544E-02  1.60570173E-07  1.35723679E-01
 -3.03536608E-02  2.36585591E-02  5.74893657E-08  9.24441109E-03  8.46194047E-03
 -1.39148217E-02 -1.03080962E-02 -1.58676423E-08 -7.43117713E-09 -6.02725492E-02
  1.13433831E-01  5.18125611E-02  1.55041295E-02 -8.84035480E-08  7.62851437E-02
  3.96542516E-03 -8.29204410E-03 -8.17806988E-08  9.46113902E-03  1.63758459E-03
 -9.54665277E-05  3.33339808E-03 -4.30000944E-08  3.74900274E-08 -5.07218746E-02
  9.72815753E-02 -3.20709490E-03 -4.79168804E-02 -1.00815870E-07  5.73397916E-02
  3.67756031E-03  2.80597151E-03  1.00788063E-07 -3.83826981E-04  9.64086976E-03
  7.46211668E-04  4.93512917E-04  1.08329955E-08  2.12152263E-08  3.13085328E-02
 -1.34941367E-03  2.76907869E-02  2.67905156E-03  2.76907118E-02  2.67904273E-03
  2.38318183E-02  1.17381577E-03  2.42994996E-02 -7.10222035E-04  2.42995629E-02
 -7.09939704E-04 -8.42966838E-02 -2.13725587E-03  4.35691679E-02 -1.01145929E-01
 -1.00674575E-01 -1.22113234E-02 -2.58335582E-07 -1.30709699E-01 -5.29475265E-02