opt=Tight                                                               
Freq      RMP2-FC                                                     6-31G(d)            
Number of atoms                            I               11
Info1-9                                    I   N=           9
          20          20        1002           0           0         100
           6           2           1
Charge                                     I               -1
Multiplicity                               I                1
Number of electrons                        I               48
Number of alpha electrons                  I               24
Number of beta electrons                   I               24
Number of basis functions                  I              100
Number of independent functions            I              100
Number of point charges in /Mol/           I                0
Number of translation vectors              I                0
Atomic numbers                             I   N=          11
           8           8           8           6           6           6
           1           1           1           1           1
Nuclear charges                            R   N=          11
  8.00000000E+00  8.00000000E+00  8.00000000E+00  6.00000000E+00  6.00000000E+00
  6.00000000E+00  1.00000000E+00  1.00000000E+00  1.00000000E+00  1.00000000E+00
  1.00000000E+00
Current cartesian coordinates              R   N=          33
  2.20754235E+00  2.39681366E+00 -3.65802587E-01 -2.46188693E+00  1.98837353E+00
  7.79212886E-01 -2.81614471E+00 -2.13449075E+00 -4.24002984E-01  1.21025442E+00
 -7.66133026E-02 -7.90683513E-01  2.66315471E+00 -2.02424553E+00  7.46819286E-01
 -1.63089991E+00 -9.87595548E-02 -9.29892048E-02  1.37205249E+00 -5.43555870E-01
 -2.81172684E+00  2.46802226E+00 -1.60072321E+00  2.76230684E+00  1.91968275E+00
 -3.91630658E+00  3.88325674E-01  4.67398200E+00 -1.98848467E+00  2.66295059E-01
  6.75119602E-01  3.24120919E+00  3.00661336E-01
Force Field                                I                0
Int Atom Types                             I   N=          11
           0           0           0           0           0           0
           0           0           0           0           0
MM charges                                 R   N=          11
  0.00000000E+00  0.00000000E+00  0.00000000E+00  0.00000000E+00  0.00000000E+00
  0.00000000E+00  0.00000000E+00  0.00000000E+00  0.00000000E+00  0.00000000E+00
  0.00000000E+00
Integer atomic weights                     I   N=          11
          16          16          16          12          12          12
           1           1           1           1           1
Real atomic weights                        R   N=          11
  1.59949146E+01  1.59949146E+01  1.59949146E+01  1.20000000E+01  1.20000000E+01
  1.20000000E+01  1.00782504E+00  1.00782504E+00  1.00782504E+00  1.00782504E+00
  1.00782504E+00
Atom fragment info                         I   N=          11
           0           0           0           0           0           0
           0           0           0           0           0
Atom residue num                           I   N=          11
           0           0           0           0           0           0
           0           0           0           0           0
Nuclear spins                              I   N=          11
           0           0           0           0           0           0
           1           1           1           1           1
Nuclear ZEff                               R   N=          11
 -5.60000000E+00 -5.60000000E+00 -5.60000000E+00 -3.60000000E+00 -3.60000000E+00
 -3.60000000E+00 -1.00000000E+00 -1.00000000E+00 -1.00000000E+00 -1.00000000E+00
 -1.00000000E+00
Nuclear QMom                               R   N=          11
  0.00000000E+00  0.00000000E+00  0.00000000E+00  0.00000000E+00  0.00000000E+00
  0.00000000E+00  0.00000000E+00  0.00000000E+00  0.00000000E+00  0.00000000E+00
  0.00000000E+00
Nuclear GFac                               R   N=          11
  0.00000000E+00  0.00000000E+00  0.00000000E+00  0.00000000E+00  0.00000000E+00
  0.00000000E+00  2.79284600E+00  2.79284600E+00  2.79284600E+00  2.79284600E+00
  2.79284600E+00
MicOpt                                     I   N=          11
          -1          -1          -1          -1          -1          -1
          -1          -1          -1          -1          -1
Number of contracted shells                I               34
Number of primitive shells                 I               86
Pure/Cartesian d shells                    I                1
Pure/Cartesian f shells                    I                0
Highest angular momentum                   I                2
Largest degree of contraction              I                6
Shell types                                I   N=          34
           0          -1          -1           2           0          -1
          -1           2           0          -1          -1           2
           0          -1          -1           2           0          -1
          -1           2           0          -1          -1           2
           0           0           0           0           0           0
           0           0           0           0
Number of primitives per shell             I   N=          34
           6           3           1           1           6           3
           1           1           6           3           1           1
           6           3           1           1           6           3
           1           1           6           3           1           1
           3           1           3           1           3           1
           3           1           3           1
Shell to atom map                          I   N=          34
           1           1           1           1           2           2
           2           2           3           3           3           3
           4           4           4           4           5           5
           5           5           6           6           6           6
           7           7           8           8           9           9
          10          10          11          11
Primitive exponents                        R   N=          86
  5.48467166E+03  8.25234946E+02  1.88046958E+02  5.29645000E+01  1.68975704E+01
  5.79963534E+00  1.55396162E+01  3.59993359E+00  1.01376175E+00  2.70005823E-01
  8.00000000E-01  5.48467166E+03  8.25234946E+02  1.88046958E+02  5.29645000E+01
  1.68975704E+01  5.79963534E+00  1.55396162E+01  3.59993359E+00  1.01376175E+00
  2.70005823E-01  8.00000000E-01  5.48467166E+03  8.25234946E+02  1.88046958E+02
  5.29645000E+01  1.68975704E+01  5.79963534E+00  1.55396162E+01  3.59993359E+00
  1.01376175E+00  2.70005823E-01  8.00000000E-01  3.04752488E+03  4.57369518E+02
  1.03948685E+02  2.92101553E+01  9.28666296E+00  3.16392696E+00  7.86827235E+00
  1.88128854E+00  5.44249258E-01  1.68714478E-01  8.00000000E-01  3.04752488E+03
  4.57369518E+02  1.03948685E+02  2.92101553E+01  9.28666296E+00  3.16392696E+00
  7.86827235E+00  1.88128854E+00  5.44249258E-01  1.68714478E-01  8.00000000E-01
  3.04752488E+03  4.57369518E+02  1.03948685E+02  2.92101553E+01  9.28666296E+00
  3.16392696E+00  7.86827235E+00  1.88128854E+00  5.44249258E-01  1.68714478E-01
  8.00000000E-01  1.87311370E+01  2.82539436E+00  6.40121692E-01  1.61277759E-01
  1.87311370E+01  2.82539436E+00  6.40121692E-01  1.61277759E-01  1.87311370E+01
  2.82539436E+00  6.40121692E-01  1.61277759E-01  1.87311370E+01  2.82539436E+00
  6.40121692E-01  1.61277759E-01  1.87311370E+01  2.82539436E+00  6.40121692E-01
  1.61277759E-01
Contraction coefficients                   R   N=          86
  1.83107443E-03  1.39501722E-02  6.84450781E-02  2.32714336E-01  4.70192898E-01
  3.58520853E-01 -1.10777550E-01 -1.48026263E-01  1.13076702E+00  1.00000000E+00
  1.00000000E+00  1.83107443E-03  1.39501722E-02  6.84450781E-02  2.32714336E-01
  4.70192898E-01  3.58520853E-01 -1.10777550E-01 -1.48026263E-01  1.13076702E+00
  1.00000000E+00  1.00000000E+00  1.83107443E-03  1.39501722E-02  6.84450781E-02
  2.32714336E-01  4.70192898E-01  3.58520853E-01 -1.10777550E-01 -1.48026263E-01
  1.13076702E+00  1.00000000E+00  1.00000000E+00  1.83473713E-03  1.40373228E-02
  6.88426223E-02  2.32184443E-01  4.67941348E-01  3.62311985E-01 -1.19332420E-01
 -1.60854152E-01  1.14345644E+00  1.00000000E+00  1.00000000E+00  1.83473713E-03
  1.40373228E-02  6.88426223E-02  2.32184443E-01  4.67941348E-01  3.62311985E-01
 -1.19332420E-01 -1.60854152E-01  1.14345644E+00  1.00000000E+00  1.00000000E+00
  1.83473713E-03  1.40373228E-02  6.88426223E-02  2.32184443E-01  4.67941348E-01
  3.62311985E-01 -1.19332420E-01 -1.60854152E-01  1.14345644E+00  1.00000000E+00
  1.00000000E+00  3.34946043E-02  2.34726953E-01  8.13757326E-01  1.00000000E+00
  3.34946043E-02  2.34726953E-01  8.13757326E-01  1.00000000E+00  3.34946043E-02
  2.34726953E-01  8.13757326E-01  1.00000000E+00  3.34946043E-02  2.34726953E-01
  8.13757326E-01  1.00000000E+00  3.34946043E-02  2.34726953E-01  8.13757326E-01
  1.00000000E+00
P(S=P) Contraction coefficients            R   N=          86
  0.00000000E+00  0.00000000E+00  0.00000000E+00  0.00000000E+00  0.00000000E+00
  0.00000000E+00  7.08742682E-02  3.39752839E-01  7.27158577E-01  1.00000000E+00
  0.00000000E+00  0.00000000E+00  0.00000000E+00  0.00000000E+00  0.00000000E+00
  0.00000000E+00  0.00000000E+00  7.08742682E-02  3.39752839E-01  7.27158577E-01
  1.00000000E+00  0.00000000E+00  0.00000000E+00  0.00000000E+00  0.00000000E+00
  0.00000000E+00  0.00000000E+00  0.00000000E+00  7.08742682E-02  3.39752839E-01
  7.27158577E-01  1.00000000E+00  0.00000000E+00  0.00000000E+00  0.00000000E+00
  0.00000000E+00  0.00000000E+00  0.00000000E+00  0.00000000E+00  6.89990666E-02
  3.16423961E-01  7.44308291E-01  1.00000000E+00  0.00000000E+00  0.00000000E+00
  0.00000000E+00  0.00000000E+00  0.00000000E+00  0.00000000E+00  0.00000000E+00
  6.89990666E-02  3.16423961E-01  7.44308291E-01  1.00000000E+00  0.00000000E+00
  0.00000000E+00  0.00000000E+00  0.00000000E+00  0.00000000E+00  0.00000000E+00
  0.00000000E+00  6.89990666E-02  3.16423961E-01  7.44308291E-01  1.00000000E+00
  0.00000000E+00  0.00000000E+00  0.00000000E+00  0.00000000E+00  0.00000000E+00
  0.00000000E+00  0.00000000E+00  0.00000000E+00  0.00000000E+00  0.00000000E+00
  0.00000000E+00  0.00000000E+00  0.00000000E+00  0.00000000E+00  0.00000000E+00
  0.00000000E+00  0.00000000E+00  0.00000000E+00  0.00000000E+00  0.00000000E+00
  0.00000000E+00
Coordinates of each shell                  R   N=         102
  2.20754235E+00  2.39681366E+00 -3.65802587E-01  2.20754235E+00  2.39681366E+00
 -3.65802587E-01  2.20754235E+00  2.39681366E+00 -3.65802587E-01  2.20754235E+00
  2.39681366E+00 -3.65802587E-01 -2.46188693E+00  1.98837353E+00  7.79212886E-01
 -2.46188693E+00  1.98837353E+00  7.79212886E-01 -2.46188693E+00  1.98837353E+00
  7.79212886E-01 -2.46188693E+00  1.98837353E+00  7.79212886E-01 -2.81614471E+00
 -2.13449075E+00 -4.24002984E-01 -2.81614471E+00 -2.13449075E+00 -4.24002984E-01
 -2.81614471E+00 -2.13449075E+00 -4.24002984E-01 -2.81614471E+00 -2.13449075E+00
 -4.24002984E-01  1.21025442E+00 -7.66133026E-02 -7.90683513E-01  1.21025442E+00
 -7.66133026E-02 -7.90683513E-01  1.21025442E+00 -7.66133026E-02 -7.90683513E-01
  1.21025442E+00 -7.66133026E-02 -7.90683513E-01  2.66315471E+00 -2.02424553E+00
  7.46819286E-01  2.66315471E+00 -2.02424553E+00  7.46819286E-01  2.66315471E+00
 -2.02424553E+00  7.46819286E-01  2.66315471E+00 -2.02424553E+00  7.46819286E-01
 -1.63089991E+00 -9.87595548E-02 -9.29892048E-02 -1.63089991E+00 -9.87595548E-02
 -9.29892048E-02 -1.63089991E+00 -9.87595548E-02 -9.29892048E-02 -1.63089991E+00
 -9.87595548E-02 -9.29892048E-02  1.37205249E+00 -5.43555870E-01 -2.81172684E+00
  1.37205249E+00 -5.43555870E-01 -2.81172684E+00  2.46802226E+00 -1.60072321E+00
  2.76230684E+00  2.46802226E+00 -1.60072321E+00  2.76230684E+00  1.91968275E+00
 -3.91630658E+00  3.88325674E-01  1.91968275E+00 -3.91630658E+00  3.88325674E-01
  4.67398200E+00 -1.98848467E+00  2.66295059E-01  4.67398200E+00 -1.98848467E+00
  2.66295059E-01  6.75119602E-01  3.24120919E+00  3.00661336E-01  6.75119602E-01
  3.24120919E+00  3.00661336E-01
Constraint Structure                       R   N=          33
  2.20754235E+00  2.39681366E+00 -3.65802587E-01 -2.46188693E+00  1.98837353E+00
  7.79212886E-01 -2.81614471E+00 -2.13449075E+00 -4.24002984E-01  1.21025442E+00
 -7.66133026E-02 -7.90683513E-01  2.66315471E+00 -2.02424553E+00  7.46819286E-01
 -1.63089991E+00 -9.87595548E-02 -9.29892048E-02  1.37205249E+00 -5.43555870E-01
 -2.81172684E+00  2.46802226E+00 -1.60072321E+00  2.76230684E+00  1.91968275E+00
 -3.91630658E+00  3.88325674E-01  4.67398200E+00 -1.98848467E+00  2.66295059E-01
  6.75119602E-01  3.24120919E+00  3.00661336E-01
Num ILSW                                   I              100
ILSW                                       I   N=         100
           0           1           0           0           2           0
           0           0           0           0           0          -1
           0           0           0           0           0           0
           0           0           0           0           1           0
           1           0           0           0           0           0
           0           0      100000           0          -1           0
           0           0           0           0           0           0
           0           0           0           1           1           0
           0           0           1           0           0           0
           0           0           4          40           0           0
           0           0           0           0           0           0
           0           0           0           0           0           0
           0           0           0           0           0           0
           0           0           0           0           0           0
           0           0           0           0           0           0
           0           0           0           0           0           0
           0           0           0           0
Num RLSW                                   I               40
RLSW                                       R   N=          40
  1.00000000E+00  1.00000000E+00  1.00000000E+00  1.00000000E+00  1.00000000E+00
  0.00000000E+00  0.00000000E+00  1.00000000E+00  0.00000000E+00  0.00000000E+00
  0.00000000E+00  0.00000000E+00  1.00000000E+00  0.00000000E+00  0.00000000E+00
  0.00000000E+00  0.00000000E+00  1.00000000E+00  0.00000000E+00  0.00000000E+00
  0.00000000E+00  0.00000000E+00  1.00000000E+00  0.00000000E+00  0.00000000E+00
  0.00000000E+00  0.00000000E+00  1.00000000E+00  0.00000000E+00  0.00000000E+00
  0.00000000E+00  0.00000000E+00  0.00000000E+00  0.00000000E+00  0.00000000E+00
  0.00000000E+00  0.00000000E+00  0.00000000E+00  1.00000000E+00  1.00000000E+00
MxBond                                     I                4
NBond                                      I   N=          11
           2           1           1           4           4           3
           1           1           1           1           1
IBond                                      I   N=          44
           4          11           0           0           6           0
           0           0           6           0           0           0
           1           5           6           7           4           8
           9          10           2           3           4           0
           4           0           0           0           5           0
           0           0           5           0           0           0
           5           0           0           0           1           0
           0           0
RBond                                      R   N=          44
  1.00000000E+00  1.00000000E+00  0.00000000E+00  0.00000000E+00  2.00000000E+00
  0.00000000E+00  0.00000000E+00  0.00000000E+00  2.00000000E+00  0.00000000E+00
  0.00000000E+00  0.00000000E+00  1.00000000E+00  1.00000000E+00  1.00000000E+00
  1.00000000E+00  1.00000000E+00  1.00000000E+00  1.00000000E+00  1.00000000E+00
  2.00000000E+00  2.00000000E+00  1.00000000E+00  0.00000000E+00  1.00000000E+00
  0.00000000E+00  0.00000000E+00  0.00000000E+00  1.00000000E+00  0.00000000E+00
  0.00000000E+00  0.00000000E+00  1.00000000E+00  0.00000000E+00  0.00000000E+00
  0.00000000E+00  1.00000000E+00  0.00000000E+00  0.00000000E+00  0.00000000E+00
  1.00000000E+00  0.00000000E+00  0.00000000E+00  0.00000000E+00
Virial Ratio                               R      2.002785629917061E+00
SCF Energy                                 R     -3.412267015016142E+02
MP2 Energy                                 R     -3.421549097802638E+02
Total Energy                               R     -3.421549097802638E+02
Post-SCF wavefunction norm                 R      1.598227000120288E+00
RMS Force                                  R      5.936869563110444E-06
RMS Density                                R      2.148607782472804E-09
External E-field                           R   N=          35
  0.00000000E+00  0.00000000E+00  0.00000000E+00  0.00000000E+00  0.00000000E+00
  0.00000000E+00  0.00000000E+00  0.00000000E+00  0.00000000E+00  0.00000000E+00
  0.00000000E+00  0.00000000E+00  0.00000000E+00  0.00000000E+00  0.00000000E+00
  0.00000000E+00  0.00000000E+00  0.00000000E+00  0.00000000E+00  0.00000000E+00
  0.00000000E+00  0.00000000E+00  0.00000000E+00  0.00000000E+00  0.00000000E+00
  0.00000000E+00  0.00000000E+00  0.00000000E+00  0.00000000E+00  0.00000000E+00
  0.00000000E+00  0.00000000E+00  0.00000000E+00  0.00000000E+00  0.00000000E+00
IOpCl                                      I                0
IROHF                                      I                0
Alpha Orbital Energies                     R   N=         100
 -2.05325446E+01 -2.04853615E+01 -2.04777169E+01 -1.13176487E+01 -1.12592219E+01
 -1.12062756E+01 -1.35926996E+00 -1.31666808E+00 -1.24460352E+00 -1.00113871E+00
 -8.43947660E-01 -7.16043867E-01 -6.54011079E-01 -6.23914962E-01 -5.88557181E-01
 -5.52986391E-01 -5.43422410E-01 -5.20412323E-01 -5.11503305E-01 -5.02275430E-01
 -4.20962962E-01 -3.92823163E-01 -3.76950678E-01 -3.72461470E-01  2.34832436E-01
  2.82367515E-01  3.07160076E-01  3.26944773E-01  3.37390351E-01  3.47640801E-01
  4.26429860E-01  4.40911356E-01  4.93430388E-01  5.48855545E-01  6.47397764E-01
  7.71063065E-01  7.79883125E-01  8.10110373E-01  8.63034539E-01  8.75026180E-01
  8.95719910E-01  9.61393265E-01  9.85295186E-01  1.00200165E+00  1.04687283E+00
  1.08332871E+00  1.13853501E+00  1.15354275E+00  1.15935401E+00  1.18527449E+00
  1.23048095E+00  1.24930111E+00  1.28395847E+00  1.29211547E+00  1.32582257E+00
  1.36354667E+00  1.42362522E+00  1.42458455E+00  1.45806441E+00  1.56868364E+00
  1.60472092E+00  1.64843540E+00  1.76571298E+00  1.80742569E+00  1.84520652E+00
  1.93860922E+00  2.00223287E+00  2.04898098E+00  2.11999825E+00  2.12416582E+00
  2.14214361E+00  2.17985627E+00  2.19090310E+00  2.22394976E+00  2.26485766E+00
  2.30647954E+00  2.32830470E+00  2.38606149E+00  2.45049658E+00  2.48817200E+00
  2.54644602E+00  2.56826506E+00  2.67308726E+00  2.72627071E+00  2.81047352E+00
  2.88772262E+00  2.92169958E+00  2.98038308E+00  3.10656631E+00  3.15506809E+00
  3.26460856E+00  3.29892603E+00  3.40510983E+00  3.54048318E+00  4.22812446E+00
  4.38839100E+00  4.59809776E+00  4.74434685E+00  4.76435971E+00  5.03433272E+00
Alpha MO coefficients                      R   N=       10000
  9.94659725E-01  2.11812979E-02 -1.07855438E-03 -4.48540999E-04  1.66045798E-04
  3.83664666E-03  5.59826019E-04  3.01311442E-04 -7.70870517E-05 -4.03877196E-03
 -4.16553815E-03 -3.87525407E-03 -4.96444435E-05  5.57410188E-05 -9.44872501E-05
 -1.25989942E-04  1.44596005E-05 -1.49179773E-05 -1.09435199E-05  9.97188697E-07
 -1.17002388E-04  1.03756521E-05  5.52483575E-05  1.81567543E-05 -1.89626802E-05
  5.34058480E-06 -5.33521897E-07 -2.07512044E-06  3.04087599E-06  9.18740467E-07
  7.88762490E-06 -5.94327063E-05 -1.71178330E-06  6.24551198E-06 -1.88900793E-07
  4.02832987E-04  1.14026076E-04  9.40016896E-05  1.19076972E-05 -3.86753074E-05
 -2.04345374E-05 -4.06373553E-05  2.27763854E-05  6.72560811E-06  2.82224563E-06
 -3.34102636E-05  1.55524090E-04  1.57275593E-04  3.34308299E-04  4.39256987E-05
  6.00708645E-04 -3.25937155E-04 -7.43982562E-05  2.33830280E-04 -2.03693931E-05
  4.18295582E-05 -7.47151181E-05  4.09951812E-05  8.77979968E-06  1.88473094E-05
  2.14009223E-06  5.37493810E-05  1.79958779E-05 -1.06875922E-05  1.41267482E-05
 -1.43843689E-04  5.22226171E-05 -1.89642425E-04 -3.48195686E-05 -1.38185395E-05
 -5.55516827E-05 -7.16693416E-06  2.19070762E-05  2.37210474E-06  7.68594013E-06
 -2.12812506E-06  4.16627160E-05 -3.24727013E-05 -2.22268717E-06  6.75154971E-06
 -4.70330478E-04 -1.73530026E-04  3.18773187E-04  1.07417184E-04 -6.73575279E-05
 -3.85287053E-05 -1.13941938E-05 -3.78831543E-05 -1.54160720E-06  1.33367909E-07
 -1.62538578E-05  1.05859105E-06  2.26570637E-05  3.04820606E-05 -2.84290151E-06
 -7.39048767E-05  2.83358306E-05 -4.23853202E-05  4.03208302E-04 -3.41338448E-04
  1.20635269E-04 -1.65833583E-05  1.40070334E-05 -1.35965120E-05 -7.38681738E-06
  1.37872878E-04 -4.00658947E-05  1.15558311E-04  3.96117426E-05 -4.03899852E-05
 -3.39034436E-05 -2.28130164E-05 -1.63488448E-05  1.78692383E-06  1.89429952E-06
  9.94678491E-01  2.09695820E-02  4.96333037E-04 -1.05377221E-03 -4.62326228E-04
  4.28748986E-03 -4.65583885E-05  1.74467536E-04  6.35831677E-05 -3.90477399E-03
 -3.87893393E-03 -4.02472990E-03 -2.32052572E-05 -5.30346432E-05  7.00944586E-05
 -2.04021947E-03 -9.12453141E-05  2.58207110E-05 -1.34309530E-05 -1.18229339E-05
  3.01964012E-04  1.05461462E-04  1.16634132E-04  1.11794067E-05  5.30505959E-05
 -6.06966212E-05 -6.74460428E-05  9.29023534E-05 -4.80059202E-06 -2.40105175E-05
 -5.55976578E-06  9.51753312E-07  3.82493692E-05 -1.31275965E-05 -1.47963063E-05
  1.01325703E-04  9.84744903E-05  3.50298629E-05  2.26154293E-05 -4.78383255E-05
 -6.22553860E-06 -3.22425165E-05  4.94648093E-05  2.24144306E-05 -8.44584228E-06
  2.80328468E-06  8.79566450E-06 -9.29701909E-06  2.06532765E-06  2.26763242E-07
 -8.01852260E-05  4.91923658E-05 -4.01002675E-05  4.67158359E-06  5.16629589E-06
  4.47685649E-06  7.79296880E-06 -7.63242850E-08 -1.33402027E-06 -1.62066391E-06
 -8.58829026E-06  4.96940471E-04 -5.26283262E-05  1.58423793E-04  6.13300396E-05
 -3.66014643E-04  2.43600912E-04 -1.07965736E-04 -9.54155678E-05 -9.00606881E-05
 -4.70972202E-04 -1.21959757E-04  1.26447796E-04  4.78048803E-05 -1.81749124E-04
  5.74789352E-06 -2.78078950E-05  7.87878948E-06  1.27484399E-05  9.91880142E-06
 -1.14964425E-05 -9.01512127E-07 -2.30143808E-05 -2.30435910E-05 -2.71672653E-04
 -1.74879442E-05  2.37033343E-05 -4.67070265E-06 -5.72956587E-06 -7.03566698E-08
 -1.29272549E-04  2.68940541E-05  5.91045857E-05  1.02586006E-06  7.79382963E-07
  1.94013757E-05  1.61823062E-05 -1.53847632E-05  2.55422432E-06  6.85333015E-06
  2.01749019E-03 -1.57320460E-05  2.56695626E-05  8.50669846E-06 -2.11126932E-06
  3.50746281E-04  9.22891658E-05 -1.11097887E-04 -6.55208002E-05  5.53217750E-06
 -7.96397504E-05 -6.51779428E-05 -9.49908448E-05 -5.90779830E-05  2.79403958E-05
  9.94687950E-01  2.10169816E-02  6.55129524E-04  1.13821067E-03  1.82153601E-04
  4.15030764E-03 -9.32114499E-05 -1.27468633E-04 -8.52002818E-06 -3.85630748E-03
 -3.80167414E-03 -4.01563194E-03  8.74898133E-05 -2.55936312E-05  6.21012571E-05
 -4.61538406E-06 -1.46086248E-07  3.31015574E-05  1.55410015E-05 -4.57723983E-06
  1.15658346E-04  9.78401796E-05  7.75360933E-05  8.15363364E-05 -5.18773836E-05
 -5.10774833E-06 -2.07757406E-05 -4.64307659E-05 -1.98573028E-06  1.17911988E-05
  4.22621648E-06  1.39061000E-05 -1.75962021E-05  7.05662294E-06  7.23370814E-06
 -5.71926810E-05  8.87941050E-05 -1.07297881E-04 -2.93235447E-05  1.11262112E-05
 -3.02062106E-07  5.42302066E-06  5.66074803E-06 -3.19622162E-06  3.73403128E-06
 -7.60141126E-06  5.10149016E-04 -5.30081098E-05 -1.11474901E-04 -2.60526702E-05
 -3.78414902E-04  2.61372244E-04  6.98374573E-05 -4.24376906E-05 -1.73086480E-04
 -5.19783289E-04 -7.32123180E-05 -2.62354927E-04 -4.87472633E-05 -9.97229289E-05
  1.78037859E-05 -1.47787716E-05  1.32239124E-05  3.68713058E-05  2.70556080E-05
 -1.02142880E-04 -6.69402378E-06 -4.89210265E-05 -1.13866834E-05 -4.52922763E-05
 -2.58581451E-05 -1.66863381E-04  5.07614456E-05  5.37928572E-05 -9.90868803E-06
  3.67569979E-04 -6.77017330E-05 -2.78997228E-04  3.69500760E-05  5.37961004E-06
 -5.46729101E-05 -1.65752469E-04  6.94789531E-05 -4.63367398E-05  4.13138013E-06
 -1.88301126E-04  5.15567413E-04 -1.56794411E-05 -1.56281125E-04 -6.43004898E-05
 -1.92285853E-03  3.28876423E-05  1.56223983E-03  5.71480985E-04  1.72470498E-04
 -2.46964052E-04  2.97951734E-04  1.39135555E-04  1.26939982E-04 -2.90092214E-04
 -2.28354019E-04  4.52166891E-04  1.60401079E-05  1.82472762E-04  6.17522419E-05
 -1.70887840E-03 -1.42652614E-04 -1.59522008E-03 -4.55810821E-04  9.50466710E-05
 -2.44822612E-04  3.12143756E-04 -2.13416902E-04  3.39988869E-06 -1.46023135E-04
  4.63616070E-03  3.47568909E-04 -2.64330812E-05 -5.00662981E-05 -8.53550716E-06
  2.66095121E-03 -2.09970785E-03  2.68648309E-04 -4.22935214E-05 -4.71383780E-04
 -2.45955526E-04 -1.50430283E-04  8.04092050E-06  8.23540956E-05  2.68714350E-05
 -9.75500210E-05 -3.28085506E-04  1.73385627E-04 -2.44273593E-05 -1.30445345E-05
  1.14525118E-03 -1.02612684E-03  3.52985945E-04 -8.93810522E-05 -3.17574054E-05
 -6.16716889E-05 -7.92927986E-05 -5.21257719E-05  1.93150059E-05 -4.10580953E-05
  9.95926905E-01  2.59243881E-02 -3.24226507E-04  5.10262699E-05  1.50322591E-04
 -6.23657542E-03 -3.83982812E-03  1.20671212E-04  8.91284809E-04 -1.34753631E-03
 -4.15039128E-04 -2.00235053E-03  2.02449142E-04 -1.73043876E-04  6.01946704E-04
 -1.75088171E-04  1.94031647E-04 -1.67963045E-04 -7.52520707E-06 -1.13637047E-04
 -1.47358017E-04  1.71407596E-05  5.34083552E-04  4.17971672E-05  2.04080448E-04
 -1.93767750E-04 -1.08911914E-04 -7.37009432E-05 -9.96647303E-05 -2.04918200E-05
  3.10557275E-03 -6.99588362E-05 -5.56354139E-04  6.59307734E-05 -2.60434878E-04
 -7.61918402E-04 -8.84625342E-05 -2.74605296E-04 -7.45636874E-05 -1.84094195E-04
 -2.33446078E-05 -1.79343829E-04 -3.40044190E-05  6.00762191E-05  1.69726499E-05
  3.09174335E-05 -2.66379570E-04 -2.79413071E-04 -1.99373158E-05 -2.23294986E-05
 -1.44252789E-05 -1.91604869E-04  8.01069489E-06 -3.28144902E-05  8.18330138E-05
 -9.34209720E-05 -4.89646299E-04 -5.19982300E-05 -5.09072469E-05  2.31038258E-05
  2.28634310E-03  1.96223582E-04  7.13493740E-04  7.14590012E-05 -2.09734839E-04
 -1.69351806E-04 -3.92920115E-04  6.13698173E-05 -4.51298218E-05  6.52586885E-05
  9.96003390E-01  2.79948602E-02  2.53004177E-04  5.61373308E-04  2.52584627E-04
 -1.85204910E-02  6.00535106E-04  3.18921514E-04 -1.73797919E-03 -1.33656458E-03
 -1.22585344E-03 -1.24705556E-03  5.70353362E-05 -1.29385126E-06  3.68025940E-05
  5.65287227E-03  7.65178862E-05 -9.62122663E-05  5.00239430E-05 -6.72103731E-05
  4.99835098E-03 -1.22383976E-03  1.92016058E-03 -8.99183473E-04 -1.99842528E-04
 -2.65002415E-04 -2.55302051E-04  7.26149883E-05 -9.91121901E-05  1.74316854E-04
 -4.94839719E-03 -2.03156102E-04  2.42944673E-04 -9.48829164E-06 -3.71904248E-05
  3.86173746E-03  3.19779788E-03  1.19130895E-03 -1.63370682E-04 -4.12918164E-04
 -2.57032766E-04 -2.13516603E-04 -7.23347008E-05  1.00250001E-04  3.05265890E-06
  2.09360353E-04  2.50249365E-03 -2.38152886E-04 -1.04439697E-04 -1.38931589E-04
  1.58313901E-04 -1.85159376E-04 -4.47769268E-06 -4.31002593E-06  2.20915475E-04
 -4.33658969E-05 -2.50149571E-04  4.95734552E-06  8.56436100E-05 -3.42581214E-05
  7.44747384E-04 -1.24279047E-04 -3.12570862E-04  6.82789244E-05 -1.69669102E-04
 -3.51284133E-05 -1.89852324E-04 -5.77789097E-06  7.07240362E-05 -6.16558377E-05
  1.11784331E-05  4.76375329E-05  4.29894939E-05 -1.85786633E-05  2.12762464E-05
 -1.59373303E-04 -2.16121269E-04  7.30850279E-05 -8.88988790E-05  1.64719893E-05
  4.80777467E-05  5.24414937E-05  3.63215300E-05 -6.11939731E-06  6.47693209E-06
  1.11892316E-05  6.32210842E-05 -1.67823424E-06 -4.05187007E-07 -2.77761210E-05
 -4.56909290E-04 -2.35574092E-04 -8.70587859E-06  5.10818239E-05 -3.15684299E-06
  6.88067344E-05  3.16263624E-06 -1.36361832E-05  1.58092396E-05  7.82737543E-06
 -5.94636192E-03  1.16944868E-04  4.00382220E-05 -9.98275391E-05  1.58729576E-05
  2.24704273E-03  1.29261718E-03 -1.26366382E-03  5.70400286E-04 -2.60135116E-04
 -3.02635192E-04 -1.84655223E-04  9.22182045E-05 -1.17605262E-04  1.38495590E-04
  9.95724911E-01  2.85031162E-02 -8.88498078E-05  8.46206023E-05 -1.16613412E-05
 -1.48863582E-02  5.02660607E-04 -4.90171313E-04  2.54861354E-04 -1.82121940E-03
 -1.81097630E-03 -1.84667250E-03  1.26282163E-05 -1.22600444E-05  2.27566229E-05
  7.73381194E-06 -3.11168079E-04 -9.83684979E-05  5.77251539E-05  7.33403633E-06
  1.54566902E-03  8.13147476E-04 -3.31664546E-04 -6.47344793E-05 -2.75355028E-05
 -5.39211420E-05 -1.30739146E-04 -2.57392018E-05  1.80737172E-05 -2.18363195E-05
 -1.02015482E-04 -2.01994857E-05  1.62846005E-04  2.60840755E-03  1.25448696E-04
  2.55527909E-03  1.11555100E-04  2.40925147E-03 -3.19226157E-05  5.64729851E-05
 -1.11631016E-01  2.48731003E-01 -5.04063945E-02 -2.49274355E-02  7.43371279E-03
  2.39888638E-01 -2.87204925E-02 -1.18933728E-02  4.86270682E-03  1.09237649E-02
  8.36734345E-03  4.92208641E-04 -8.18483456E-05 -3.98500005E-03  3.03540402E-03
 -1.14287784E-01  2.49179980E-01  3.29529097E-02 -6.58369187E-02 -2.92159486E-02
  2.37978496E-01  1.35397430E-02 -2.65646377E-02 -1.20135544E-02  1.19992895E-03
  8.74470175E-03  4.63674652E-04 -3.50724295E-03 -1.84490466E-03  4.50828594E-03
 -9.41613531E-02  2.06818052E-01  3.23770652E-02  6.11921877E-02  1.08959698E-02