
    -----------------------------------------------------------------------
          Psi4: An Open-Source Ab Initio Electronic Structure Package
                               Psi4 1.3.2 release

                         Git: Rev {HEAD} ecbda83 


    R. M. Parrish, L. A. Burns, D. G. A. Smith, A. C. Simmonett,
    A. E. DePrince III, E. G. Hohenstein, U. Bozkaya, A. Yu. Sokolov,
    R. Di Remigio, R. M. Richard, J. F. Gonthier, A. M. James,
    H. R. McAlexander, A. Kumar, M. Saitow, X. Wang, B. P. Pritchard,
    P. Verma, H. F. Schaefer III, K. Patkowski, R. A. King, E. F. Valeev,
    F. A. Evangelista, J. M. Turney, T. D. Crawford, and C. D. Sherrill,
    J. Chem. Theory Comput. 13(7) pp 3185--3197 (2017).
    (doi: 10.1021/acs.jctc.7b00174)


                         Additional Contributions by
    P. Kraus, H. Kruse, M. H. Lechner, M. C. Schieber, R. A. Shaw,
    A. Alenaizan, R. Galvelis, Z. L. Glick, S. Lehtola, and J. P. Misiewicz

    -----------------------------------------------------------------------


    Psi4 started on: Monday, 01 February 2021 11:58PM

    Process ID: 2004351
    Host:       node57.bme.utexas.edu
    PSIDATADIR: /home/xy3866/psi4conda/share/psi4
    Memory:     500.0 MiB
    Threads:    8
    
  ==> Input File <==

--------------------------------------------------------------------------
#psi4
#
memory 32 gb

molecule  {
0 1
  N        0.2222710     1.0128310     0.0000010
  N        0.7926860    -1.3208380    -0.0000020
  C       -1.5206760    -0.6557300    -0.0000030
  C       -2.4976210     0.2265170     0.7463830
  C       -2.4976210     0.2265190    -0.7463820
  C       -0.0767514    -0.3499660     0.0000013
  C        1.5276990     1.3180910     0.0000010
  C        2.0920280    -0.9819740     0.0000030
  C        2.5210310     0.3421130     0.0000010
  H       -1.7051520    -1.7251160     0.0000010
  H       -2.0735420     1.0920370     1.2438350
  H       -3.3111280    -0.2648640     1.2701610
  H       -3.3111290    -0.2648490    -1.2701700
  H       -2.0735380     1.0920430    -1.2438240
  H        1.7737980     2.3789750    -0.0000070
  H        2.8018760    -1.8077390    -0.0000100
  H        3.5748870     0.6009090    -0.0000030
units angstrom
no_reorient  #important for SAPT in psi4, default
symmetry c1  #important for SAPT in psi4, default
}

set PROPERTIES_ORIGIN ["COM"]
properties('MP2/aug-cc-pvtz', properties = ['dipole'])
--------------------------------------------------------------------------

  Memory set to  29.802 GiB by Python driver.
    SCF Algorithm Type (re)set to DF.

*** tstart() called on node57.bme.utexas.edu
*** at Mon Feb  1 23:58:11 2021

   => Loading Basis Set <=

    Name: AUG-CC-PVTZ
    Role: ORBITAL
    Keyword: BASIS
    atoms 1-2   entry N          line   281 file /home/xy3866/psi4conda/share/psi4/basis/aug-cc-pvtz.gbs 
    atoms 3-9   entry C          line   235 file /home/xy3866/psi4conda/share/psi4/basis/aug-cc-pvtz.gbs 
    atoms 10-17 entry H          line    36 file /home/xy3866/psi4conda/share/psi4/basis/aug-cc-pvtz.gbs 


         ---------------------------------------------------------
                                   SCF
               by Justin Turney, Rob Parrish, Andy Simmonett
                          and Daniel G. A. Smith
                              RHF Reference
                        8 Threads,  30517 MiB Core
         ---------------------------------------------------------

  ==> Geometry <==

    Molecular point group: c1
    Full point group: C1

    Geometry (in Angstrom), charge = 0, multiplicity = 1:

       Center              X                  Y                   Z               Mass       
    ------------   -----------------  -----------------  -----------------  -----------------
         N            0.185360326987     1.026957826340     0.000000829565    14.003074004430
         N            0.755775326987    -1.306711173660    -0.000002170435    14.003074004430
         C           -1.557586673013    -0.641603173660    -0.000003170435    12.000000000000
         C           -2.534531673013     0.240643826340     0.746382829565    12.000000000000
         C           -2.534531673013     0.240645826340    -0.746382170435    12.000000000000
         C           -0.113662073013    -0.335839173660     0.000001129565    12.000000000000
         C            1.490788326987     1.332217826340     0.000000829565    12.000000000000
         C            2.055117326987    -0.967847173660     0.000002829565    12.000000000000
         C            2.484120326987     0.356239826340     0.000000829565    12.000000000000
         H           -1.742062673013    -1.710989173660     0.000000829565     1.007825032230
         H           -2.110452673013     1.106163826340     1.243834829565     1.007825032230
         H           -3.348038673013    -0.250737173660     1.270160829565     1.007825032230
         H           -3.348039673013    -0.250722173660    -1.270170170435     1.007825032230
         H           -2.110448673013     1.106169826340    -1.243824170435     1.007825032230
         H            1.736887326987     2.393101826340    -0.000007170435     1.007825032230
         H            2.764965326987    -1.793612173660    -0.000010170435     1.007825032230
         H            3.537976326987     0.615035826340    -0.000003170435     1.007825032230

  Running in c1 symmetry.

  Rotational constants: A =      0.14647  B =      0.04004  C =      0.03394 [cm^-1]
  Rotational constants: A =   4390.95183  B =   1200.25602  C =   1017.52646 [MHz]
  Nuclear repulsion =  413.272983783915208

  Charge       = 0
  Multiplicity = 1
  Electrons    = 64
  Nalpha       = 32
  Nbeta        = 32

  ==> Algorithm <==

  SCF Algorithm Type is DF.
  DIIS enabled.
  MOM disabled.
  Fractional occupation disabled.
  Guess Type is SAD.
  Energy threshold   = 1.00e-10
  Density threshold  = 1.00e-10
  Integral threshold = 0.00e+00

  ==> Primary Basis <==

  Basis Set: AUG-CC-PVTZ
    Blend: AUG-CC-PVTZ
    Number of shells: 198
    Number of basis function: 598
    Number of Cartesian functions: 695
    Spherical Harmonics?: true
    Max angular momentum: 3

   => Loading Basis Set <=

    Name: (AUG-CC-PVTZ AUX)
    Role: JKFIT
    Keyword: DF_BASIS_SCF
    atoms 1-2   entry N          line   224 file /home/xy3866/psi4conda/share/psi4/basis/aug-cc-pvtz-jkfit.gbs 
    atoms 3-9   entry C          line   162 file /home/xy3866/psi4conda/share/psi4/basis/aug-cc-pvtz-jkfit.gbs 
    atoms 10-17 entry H          line    70 file /home/xy3866/psi4conda/share/psi4/basis/aug-cc-pvtz-jkfit.gbs 

  ==> Pre-Iterations <==

   -------------------------------------------------------
    Irrep   Nso     Nmo     Nalpha   Nbeta   Ndocc  Nsocc
   -------------------------------------------------------
     A        598     598       0       0       0       0
   -------------------------------------------------------
    Total     598     598      32      32      32       0
   -------------------------------------------------------

  ==> Integral Setup <==

  DFHelper Memory: AOs need 3.418 GiB; user supplied 22.352 GiB. Using in-core AOs.

  ==> MemDFJK: Density-Fitted J/K Matrices <==

    J tasked:                   Yes
    K tasked:                   Yes
    wK tasked:                   No
    OpenMP threads:               8
    Memory [MiB]:             22888
    Algorithm:                 Disk
    Schwarz Cutoff:           1E-12
    Mask sparsity (%):       4.6789
    Fitting Condition:        1E-10

   => Auxiliary Basis Set <=

  Basis Set: (AUG-CC-PVTZ AUX)
    Blend: AUG-CC-PVTZ-JKFIT
    Number of shells: 382
    Number of basis function: 1304
    Number of Cartesian functions: 1619
    Spherical Harmonics?: true
    Max angular momentum: 4

  Minimum eigenvalue in the overlap matrix is 2.2754438322E-06.
  Using Symmetric Orthogonalization.

  SCF Guess: Superposition of Atomic Densities via on-the-fly atomic UHF.

  ==> Iterations <==

                           Total Energy        Delta E     RMS |[F,P]|

   @DF-RHF iter SAD:  -378.27691299030334   -3.78277e+02   0.00000e+00 
   @DF-RHF iter   1:  -378.49616016480985   -2.19247e-01   1.05257e-03 DIIS
   @DF-RHF iter   2:  -378.68551016829019   -1.89350e-01   4.84683e-04 DIIS
   @DF-RHF iter   3:  -378.72420332344024   -3.86932e-02   1.03909e-04 DIIS
   @DF-RHF iter   4:  -378.72683154019364   -2.62822e-03   4.35243e-05 DIIS
   @DF-RHF iter   5:  -378.72720012806690   -3.68588e-04   9.69609e-06 DIIS
   @DF-RHF iter   6:  -378.72722873371953   -2.86057e-05   2.94929e-06 DIIS
   @DF-RHF iter   7:  -378.72723229972632   -3.56601e-06   1.11189e-06 DIIS
   @DF-RHF iter   8:  -378.72723297605046   -6.76324e-07   4.60282e-07 DIIS
   @DF-RHF iter   9:  -378.72723314146259   -1.65412e-07   2.20282e-07 DIIS
   @DF-RHF iter  10:  -378.72723318140936   -3.99468e-08   1.04019e-07 DIIS
   @DF-RHF iter  11:  -378.72723319113703   -9.72767e-09   2.83682e-08 DIIS
   @DF-RHF iter  12:  -378.72723319172093   -5.83896e-10   1.20731e-08 DIIS
   @DF-RHF iter  13:  -378.72723319177624   -5.53086e-11   3.32935e-09 DIIS
   @DF-RHF iter  14:  -378.72723319178181   -5.57066e-12   9.89810e-10 DIIS
   @DF-RHF iter  15:  -378.72723319178283   -1.02318e-12   5.02691e-10 DIIS
   @DF-RHF iter  16:  -378.72723319178192    9.09495e-13   2.08979e-10 DIIS
   @DF-RHF iter  17:  -378.72723319178220   -2.84217e-13   9.99558e-11 DIIS
  Energy and wave function converged.


  ==> Post-Iterations <==

    Orbital Energies [Eh]
    ---------------------

    Doubly Occupied:                                                      

       1A    -15.568555     2A    -15.564572     3A    -11.319236  
       4A    -11.298667     5A    -11.297641     6A    -11.242271  
       7A    -11.233744     8A    -11.228698     9A    -11.228018  
      10A     -1.306791    11A     -1.186677    12A     -1.148129  
      13A     -1.064496    14A     -0.914152    15A     -0.887700  
      16A     -0.820791    17A     -0.803853    18A     -0.715656  
      19A     -0.701863    20A     -0.652337    21A     -0.636720  
      22A     -0.608197    23A     -0.587600    24A     -0.577413  
      25A     -0.524859    26A     -0.514035    27A     -0.476309  
      28A     -0.441995    29A     -0.429968    30A     -0.417722  
      31A     -0.405397    32A     -0.348185  

    Virtual:                                                              

      33A      0.026055    34A      0.033092    35A      0.034480  
      36A      0.042947    37A      0.046400    38A      0.049650  
      39A      0.062552    40A      0.065042    41A      0.078292  
      42A      0.084505    43A      0.085315    44A      0.097373  
      45A      0.102612    46A      0.107239    47A      0.111271  
      48A      0.113796    49A      0.116668    50A      0.118879  
      51A      0.122405    52A      0.124420    53A      0.131504  
      54A      0.137102    55A      0.138785    56A      0.143736  
      57A      0.145978    58A      0.148991    59A      0.156017  
      60A      0.161063    61A      0.170638    62A      0.172337  
      63A      0.177588    64A      0.185580    65A      0.199493  
      66A      0.212975    67A      0.216287    68A      0.229133  
      69A      0.235067    70A      0.237286    71A      0.247464  
      72A      0.250653    73A      0.252617    74A      0.259770  
      75A      0.267683    76A      0.270298    77A      0.277261  
      78A      0.281001    79A      0.284709    80A      0.290542  
      81A      0.293552    82A      0.303202    83A      0.304886  
      84A      0.321739    85A      0.326075    86A      0.332020  
      87A      0.332732    88A      0.334423    89A      0.341488  
      90A      0.341814    91A      0.349482    92A      0.352439  
      93A      0.362089    94A      0.364769    95A      0.375494  
      96A      0.377853    97A      0.382808    98A      0.383836  
      99A      0.399038   100A      0.405771   101A      0.406000  
     102A      0.420341   103A      0.426276   104A      0.428785  
     105A      0.432871   106A      0.435845   107A      0.444057  
     108A      0.451179   109A      0.453597   110A      0.456094  
     111A      0.460359   112A      0.470886   113A      0.474399  
     114A      0.475443   115A      0.476535   116A      0.478066  
     117A      0.480418   118A      0.491380   119A      0.495291  
     120A      0.498584   121A      0.503497   122A      0.508912  
     123A      0.519554   124A      0.520396   125A      0.525717  
     126A      0.528618   127A      0.537646   128A      0.539269  
     129A      0.551053   130A      0.555044   131A      0.558241  
     132A      0.562146   133A      0.571960   134A      0.581241  
     135A      0.586109   136A      0.593343   137A      0.602815  
     138A      0.604141   139A      0.605920   140A      0.609568  
     141A      0.617319   142A      0.627251   143A      0.628513  
     144A      0.635254   145A      0.637709   146A      0.654031  
     147A      0.657184   148A      0.663203   149A      0.679395  
     150A      0.686860   151A      0.690009   152A      0.697962  
     153A      0.708023   154A      0.714753   155A      0.724880  
     156A      0.734718   157A      0.747127   158A      0.749138  
     159A      0.758014   160A      0.762527   161A      0.782888  
     162A      0.789849   163A      0.806300   164A      0.813595  
     165A      0.817060   166A      0.821903   167A      0.828471  
     168A      0.831551   169A      0.840543   170A      0.849997  
     171A      0.860072   172A      0.862739   173A      0.870978  
     174A      0.874836   175A      0.888276   176A      0.892773  
     177A      0.897514   178A      0.903009   179A      0.905665  
     180A      0.918973   181A      0.920479   182A      0.930594  
     183A      0.937924   184A      0.954463   185A      0.960736  
     186A      0.962060   187A      0.966176   188A      0.980410  
     189A      0.982032   190A      0.983268   191A      0.986829  
     192A      0.994944   193A      0.997074   194A      1.002878  
     195A      1.002953   196A      1.020943   197A      1.022473  
     198A      1.031014   199A      1.038181   200A      1.040781  
     201A      1.045495   202A      1.063012   203A      1.063541  
     204A      1.066828   205A      1.072160   206A      1.075481  
     207A      1.084093   208A      1.087426   209A      1.100316  
     210A      1.100694   211A      1.120626   212A      1.124379  
     213A      1.132180   214A      1.136456   215A      1.143154  
     216A      1.150005   217A      1.153380   218A      1.155461  
     219A      1.164043   220A      1.178126   221A      1.178695  
     222A      1.190234   223A      1.192586   224A      1.196878  
     225A      1.205074   226A      1.219117   227A      1.224718  
     228A      1.229468   229A      1.230510   230A      1.235216  
     231A      1.242536   232A      1.243620   233A      1.257322  
     234A      1.259367   235A      1.266842   236A      1.280204  
     237A      1.299534   238A      1.300102   239A      1.308129  
     240A      1.326766   241A      1.330983   242A      1.332018  
     243A      1.352137   244A      1.358809   245A      1.365922  
     246A      1.372964   247A      1.393505   248A      1.410573  
     249A      1.415035   250A      1.426700   251A      1.434061  
     252A      1.447259   253A      1.449050   254A      1.465900  
     255A      1.467094   256A      1.472401   257A      1.485832  
     258A      1.503765   259A      1.523799   260A      1.524318  
     261A      1.529509   262A      1.536414   263A      1.542072  
     264A      1.564596   265A      1.566586   266A      1.579786  
     267A      1.591529   268A      1.595313   269A      1.613530  
     270A      1.619090   271A      1.619373   272A      1.641218  
     273A      1.642011   274A      1.663953   275A      1.664007  
     276A      1.667189   277A      1.684826   278A      1.689391  
     279A      1.707153   280A      1.723222   281A      1.724385  
     282A      1.739417   283A      1.752887   284A      1.752919  
     285A      1.762515   286A      1.776084   287A      1.779513  
     288A      1.798954   289A      1.805664   290A      1.818467  
     291A      1.820301   292A      1.831368   293A      1.836618  
     294A      1.845486   295A      1.855782   296A      1.869803  
     297A      1.873901   298A      1.876578   299A      1.903209  
     300A      1.908955   301A      1.917158   302A      1.923638  
     303A      1.929518   304A      1.951828   305A      1.956186  
     306A      1.958601   307A      1.962683   308A      1.965802  
     309A      1.987447   310A      1.991048   311A      1.998935  
     312A      2.011791   313A      2.031377   314A      2.047236  
     315A      2.057383   316A      2.067142   317A      2.075758  
     318A      2.087398   319A      2.094293   320A      2.101209  
     321A      2.122436   322A      2.127166   323A      2.141578  
     324A      2.146051   325A      2.148205   326A      2.162735  
     327A      2.181298   328A      2.196886   329A      2.199994  
     330A      2.207982   331A      2.225806   332A      2.232994  
     333A      2.246767   334A      2.247301   335A      2.281599  
     336A      2.283958   337A      2.293046   338A      2.302451  
     339A      2.307270   340A      2.339539   341A      2.341529  
     342A      2.367031   343A      2.373477   344A      2.403835  
     345A      2.408069   346A      2.430154   347A      2.431011  
     348A      2.431948   349A      2.449721   350A      2.464956  
     351A      2.466721   352A      2.487256   353A      2.498981  
     354A      2.509285   355A      2.525516   356A      2.546451  
     357A      2.568131   358A      2.583917   359A      2.592389  
     360A      2.602419   361A      2.625898   362A      2.661204  
     363A      2.667800   364A      2.691589   365A      2.692811  
     366A      2.734861   367A      2.751981   368A      2.775399  
     369A      2.776596   370A      2.825128   371A      2.849172  
     372A      2.891491   373A      2.905336   374A      2.936484  
     375A      2.958801   376A      3.022174   377A      3.040359  
     378A      3.047108   379A      3.050024   380A      3.106399  
     381A      3.165770   382A      3.179913   383A      3.212985  
     384A      3.224633   385A      3.238365   386A      3.275349  
     387A      3.302196   388A      3.317907   389A      3.339096  
     390A      3.345485   391A      3.348332   392A      3.374623  
     393A      3.378633   394A      3.386497   395A      3.420039  
     396A      3.433399   397A      3.490177   398A      3.490216  
     399A      3.509324   400A      3.535739   401A      3.537682  
     402A      3.539296   403A      3.543894   404A      3.565646  
     405A      3.576718   406A      3.586877   407A      3.591654  
     408A      3.616109   409A      3.632793   410A      3.643551  
     411A      3.652137   412A      3.660601   413A      3.679211  
     414A      3.680943   415A      3.708293   416A      3.717001  
     417A      3.732981   418A      3.735277   419A      3.743118  
     420A      3.753219   421A      3.755276   422A      3.776443  
     423A      3.802893   424A      3.808946   425A      3.816128  
     426A      3.835724   427A      3.864708   428A      3.867338  
     429A      3.873068   430A      3.878157   431A      3.895380  
     432A      3.919740   433A      3.922497   434A      3.923369  
     435A      3.929482   436A      3.944339   437A      3.946275  
     438A      3.967324   439A      3.980554   440A      3.982262  
     441A      4.018962   442A      4.026790   443A      4.038834  
     444A      4.058371   445A      4.071828   446A      4.076259  
     447A      4.086247   448A      4.095595   449A      4.099676  
     450A      4.115925   451A      4.139099   452A      4.145880  
     453A      4.154563   454A      4.169922   455A      4.175294  
     456A      4.206483   457A      4.209898   458A      4.230590  
     459A      4.232769   460A      4.234308   461A      4.246910  
     462A      4.253802   463A      4.258906   464A      4.284922  
     465A      4.288521   466A      4.320496   467A      4.324733  
     468A      4.342586   469A      4.347179   470A      4.377394  
     471A      4.378911   472A      4.387589   473A      4.406459  
     474A      4.418499   475A      4.432598   476A      4.446854  
     477A      4.467990   478A      4.470651   479A      4.482940  
     480A      4.501855   481A      4.541126   482A      4.552923  
     483A      4.575626   484A      4.602505   485A      4.611850  
     486A      4.622672   487A      4.631606   488A      4.666883  
     489A      4.694668   490A      4.725171   491A      4.752563  
     492A      4.760063   493A      4.793054   494A      4.796630  
     495A      4.806578   496A      4.839190   497A      4.863373  
     498A      4.866343   499A      4.879599   500A      4.888951  
     501A      4.913573   502A      4.931298   503A      4.936877  
     504A      4.940710   505A      4.959449   506A      4.994063  
     507A      5.009730   508A      5.012851   509A      5.035370  
     510A      5.044497   511A      5.059661   512A      5.063303  
     513A      5.086485   514A      5.094116   515A      5.132323  
     516A      5.133861   517A      5.166635   518A      5.169379  
     519A      5.173593   520A      5.179018   521A      5.206583  
     522A      5.240285   523A      5.246086   524A      5.261527  
     525A      5.267554   526A      5.278899   527A      5.299150  
     528A      5.324941   529A      5.335543   530A      5.367125  
     531A      5.424310   532A      5.436315   533A      5.452592  
     534A      5.476979   535A      5.519959   536A      5.544792  
     537A      5.548249   538A      5.565660   539A      5.595706  
     540A      5.598150   541A      5.613381   542A      5.664017  
     543A      5.664488   544A      5.687347   545A      5.697131  
     546A      5.702386   547A      5.726971   548A      5.730597  
     549A      5.741674   550A      5.794315   551A      5.828038  
     552A      5.829863   553A      5.836447   554A      5.840870  
     555A      5.867276   556A      5.885800   557A      5.900251  
     558A      5.970446   559A      5.983597   560A      6.013334  
     561A      6.053566   562A      6.077864   563A      6.129873  
     564A      6.155606   565A      6.171746   566A      6.194834  
     567A      6.203058   568A      6.309424   569A      6.318076  
     570A      6.361152   571A      6.401950   572A      6.432563  
     573A      6.533297   574A      6.577531   575A      6.579679  
     576A      6.597193   577A      6.670858   578A      6.717813  
     579A      6.734953   580A      6.764555   581A      6.778677  
     582A      6.805195   583A      6.827405   584A      6.880559  
     585A      6.920994   586A      7.056169   587A      7.147575  
     588A      7.225197   589A      7.495362   590A     15.759120  
     591A     16.440835   592A     16.676395   593A     17.560291  
     594A     17.733067   595A     18.284148   596A     18.729020  
     597A     19.312389   598A     20.644631  

    Final Occupation by Irrep:
              A 
    DOCC [    32 ]

  @DF-RHF Final Energy:  -378.72723319178220

   => Energetics <=

    Nuclear Repulsion Energy =            413.2729837839152083
    One-Electron Energy =               -1331.6959394590139709
    Two-Electron Energy =                 539.6957224833165583
    Total Energy =                       -378.7272331917822612

Computation Completed

*** tstop() called on node57.bme.utexas.edu at Mon Feb  1 23:59:05 2021
Module time:
	user time   =     227.67 seconds =       3.79 minutes
	system time =      34.97 seconds =       0.58 minutes
	total time  =         54 seconds =       0.90 minutes
Total time:
	user time   =     227.67 seconds =       3.79 minutes
	system time =      34.97 seconds =       0.58 minutes
	total time  =         54 seconds =       0.90 minutes
   => Loading Basis Set <=

    Name: (AUG-CC-PVTZ AUX)
    Role: RIFIT
    Keyword: DF_BASIS_MP2
    atoms 1-2   entry N          line   206 file /home/xy3866/psi4conda/share/psi4/basis/aug-cc-pvtz-ri.gbs 
    atoms 3-9   entry C          line   148 file /home/xy3866/psi4conda/share/psi4/basis/aug-cc-pvtz-ri.gbs 
    atoms 10-17 entry H          line    30 file /home/xy3866/psi4conda/share/psi4/basis/aug-cc-pvtz-ri.gbs 


*** tstart() called on node57.bme.utexas.edu
*** at Mon Feb  1 23:59:06 2021


  //>>>>>>>>>>>>>>>>>>>>>>>>>>>>>>>>>>>//
  //               DFMP2               //
  //<<<<<<<<<<<<<<<<<<<<<<<<<<<<<<<<<<<//

	 --------------------------------------------------------
	                          DF-MP2                         
	      2nd-Order Density-Fitted Moller-Plesset Theory     
	              RMP2 Wavefunction,   8 Threads             
	                                                         
	        Rob Parrish, Justin Turney, Andy Simmonett,      
	           Ed Hohenstein, and C. David Sherrill          
	 --------------------------------------------------------

   => Auxiliary Basis Set <=

  Basis Set: (AUG-CC-PVTZ AUX)
    Blend: AUG-CC-PVTZ-RI
    Number of shells: 364
    Number of basis function: 1322
    Number of Cartesian functions: 1664
    Spherical Harmonics?: true
    Max angular momentum: 4

	 --------------------------------------------------------
	                 NBF =   598, NAUX =  1322
	 --------------------------------------------------------
	   CLASS    FOCC     OCC    AOCC    AVIR     VIR    FVIR
	   PAIRS       0      32      32     566     566       0
	 --------------------------------------------------------

  DFHelper Memory: AOs need 3.418 GiB; user supplied 22.352 GiB. Using in-core AOs.


         ------------------------------------------------------------
                                     CPHF                           
                                  Rob Parrish                       
         ------------------------------------------------------------

  ==> Geometry <==

    Molecular point group: c1
    Full point group: C1

    Geometry (in Angstrom), charge = 0, multiplicity = 1:

       Center              X                  Y                   Z               Mass       
    ------------   -----------------  -----------------  -----------------  -----------------
         N            0.185360326987     1.026957826340     0.000000829565    14.003074004430
         N            0.755775326987    -1.306711173660    -0.000002170435    14.003074004430
         C           -1.557586673013    -0.641603173660    -0.000003170435    12.000000000000
         C           -2.534531673013     0.240643826340     0.746382829565    12.000000000000
         C           -2.534531673013     0.240645826340    -0.746382170435    12.000000000000
         C           -0.113662073013    -0.335839173660     0.000001129565    12.000000000000
         C            1.490788326987     1.332217826340     0.000000829565    12.000000000000
         C            2.055117326987    -0.967847173660     0.000002829565    12.000000000000
         C            2.484120326987     0.356239826340     0.000000829565    12.000000000000
         H           -1.742062673013    -1.710989173660     0.000000829565     1.007825032230
         H           -2.110452673013     1.106163826340     1.243834829565     1.007825032230
         H           -3.348038673013    -0.250737173660     1.270160829565     1.007825032230
         H           -3.348039673013    -0.250722173660    -1.270170170435     1.007825032230
         H           -2.110448673013     1.106169826340    -1.243824170435     1.007825032230
         H            1.736887326987     2.393101826340    -0.000007170435     1.007825032230
         H            2.764965326987    -1.793612173660    -0.000010170435     1.007825032230
         H            3.537976326987     0.615035826340    -0.000003170435     1.007825032230

  Nuclear repulsion =  413.272983783915208
  Reference energy  = -378.727233191782204

  ==> Basis Set <==

  Basis Set: AUG-CC-PVTZ
    Blend: AUG-CC-PVTZ
    Number of shells: 198
    Number of basis function: 598
    Number of Cartesian functions: 695
    Spherical Harmonics?: true
    Max angular momentum: 3

  ==> CGRSolver (by Rob Parrish) <==

   Number of roots    =         1
   Preconditioning    =    JACOBI
   Convergence cutoff =     1E-06
   Maximum iterations =       100

  ==> CPHFRHamiltonian (by Rob Parrish) <== 

  ==> MemDFJK: Density-Fitted J/K Matrices <==

    J tasked:                   Yes
    K tasked:                   Yes
    wK tasked:                   No
    OpenMP threads:               8
    Memory [MiB]:             22888
    Algorithm:                 Disk
    Schwarz Cutoff:           1E-12
    Mask sparsity (%):       4.6789
    Fitting Condition:        1E-10

   => Auxiliary Basis Set <=

  Basis Set: (AUG-CC-PVTZ AUX)
    Blend: AUG-CC-PVTZ-JKFIT
    Number of shells: 382
    Number of basis function: 1304
    Number of Cartesian functions: 1619
    Spherical Harmonics?: true
    Max angular momentum: 4

  ==> CPHF Iterations <==

  => Iterations <=

             Iter  Converged  Remaining    Residual
  CGR           1          0          1   1.130E-01
  CGR           2          0          1   4.974E-02
  CGR           3          0          1   2.463E-02
  CGR           4          0          1   8.436E-03
  CGR           5          0          1   2.725E-03
  CGR           6          0          1   8.264E-04
  CGR           7          0          1   3.548E-04
  CGR           8          0          1   1.481E-04
  CGR           9          0          1   6.377E-05
  CGR          10          0          1   2.502E-05
  CGR          11          0          1   6.986E-06
  CGR          12          0          1   2.933E-06
  CGR          13          1          0   8.798E-07

    CGRSolver converged.

	-----------------------------------------------------------
	 ==================> DF-MP2 Energies <==================== 
	-----------------------------------------------------------
	 Reference Energy          =    -378.7272331917822044 [Eh]
	 Singles Energy            =      -0.0000000000000000 [Eh]
	 Same-Spin Energy          =      -0.4130800637912436 [Eh]
	 Opposite-Spin Energy      =      -1.2908058981926684 [Eh]
	 Correlation Energy        =      -1.7038859619839120 [Eh]
	 Total Energy              =    -380.4311191537661330 [Eh]
	-----------------------------------------------------------
	 ================> DF-SCS-MP2 Energies <================== 
	-----------------------------------------------------------
	 SCS Same-Spin Scale       =       0.3333333333333333 [-]
	 SCS Opposite-Spin Scale   =       1.2000000000000000 [-]
	 SCS Same-Spin Energy      =      -0.1376933545970812 [Eh]
	 SCS Opposite-Spin Energy  =      -1.5489670778312021 [Eh]
	 SCS Correlation Energy    =      -1.6866604324282832 [Eh]
	 SCS Total Energy          =    -380.4138936242104592 [Eh]
	-----------------------------------------------------------



Properties will be evaluated at  -0.000000,   0.000000,  -0.000000 [a0]

Properties computed using the MP2 density matrix

  Nuclear Dipole Moment: [e a0]
     X:    -4.3331      Y:     1.1393      Z:    -0.0000

  Electronic Dipole Moment: [e a0]
     X:     4.8992      Y:    -0.9102      Z:     0.0000

  Dipole Moment: [e a0]
     X:     0.5661      Y:     0.2291      Z:    -0.0000     Total:     0.6107

  Dipole Moment: [D]
     X:     1.4389      Y:     0.5823      Z:    -0.0000     Total:     1.5522


*** tstop() called on node57.bme.utexas.edu at Tue Feb  2 00:01:12 2021
Module time:
	user time   =     671.25 seconds =      11.19 minutes
	system time =      74.13 seconds =       1.24 minutes
	total time  =        126 seconds =       2.10 minutes
Total time:
	user time   =     899.07 seconds =      14.98 minutes
	system time =     109.10 seconds =       1.82 minutes
	total time  =        181 seconds =       3.02 minutes

    Psi4 stopped on: Tuesday, 02 February 2021 12:01AM
    Psi4 wall time for execution: 0:03:01.18

*** Psi4 exiting successfully. Buy a developer a beer!
