opt=Tight                                                               
Freq      RMP2-FC                                                     6-31G(d)            
Number of atoms                            I               13
Info1-9                                    I   N=           9
          22          22        1002           0           0         100
           6           2           1
Charge                                     I               -1
Multiplicity                               I                1
Number of electrons                        I               66
Number of alpha electrons                  I               33
Number of beta electrons                   I               33
Number of basis functions                  I              121
Number of independent functions            I              121
Number of point charges in /Mol/           I                0
Number of translation vectors              I                0
Atomic numbers                             I   N=          13
          15           8           8           8           8           6
           6           1           1           1           1           1
           1
Nuclear charges                            R   N=          13
  1.50000000E+01  8.00000000E+00  8.00000000E+00  8.00000000E+00  8.00000000E+00
  6.00000000E+00  6.00000000E+00  1.00000000E+00  1.00000000E+00  1.00000000E+00
  1.00000000E+00  1.00000000E+00  1.00000000E+00
Current cartesian coordinates              R   N=          39
 -1.75325276E+00  1.81626776E-01  1.84503237E-01  1.22147324E+00  1.12198365E+00
 -7.61141868E-02 -2.03505565E+00 -1.63135122E+00 -2.37110009E+00 -3.31222178E+00
  2.52193409E+00 -2.25085319E-01 -2.04613462E+00 -1.50156479E+00  2.47018370E+00
  3.13963373E+00 -7.75891752E-01  2.44915959E-01  5.68336559E+00  4.64858369E-01
 -1.68372149E-01  3.00119087E+00 -1.58385473E+00  2.14431502E+00  2.83882981E+00
 -2.30137774E+00 -1.12515006E+00  5.80171133E+00  1.25114717E+00 -2.07391419E+00
  5.96822655E+00  1.99096845E+00  1.19321596E+00  7.20152456E+00 -9.18425989E-01
  6.82323969E-02 -2.07517701E+00 -3.38467235E+00 -1.81658338E+00
Force Field                                I                0
Int Atom Types                             I   N=          13
           0           0           0           0           0           0
           0           0           0           0           0           0
           0
MM charges                                 R   N=          13
  0.00000000E+00  0.00000000E+00  0.00000000E+00  0.00000000E+00  0.00000000E+00
  0.00000000E+00  0.00000000E+00  0.00000000E+00  0.00000000E+00  0.00000000E+00
  0.00000000E+00  0.00000000E+00  0.00000000E+00
Integer atomic weights                     I   N=          13
          31          16          16          16          16          12
          12           1           1           1           1           1
           1
Real atomic weights                        R   N=          13
  3.09737634E+01  1.59949146E+01  1.59949146E+01  1.59949146E+01  1.59949146E+01
  1.20000000E+01  1.20000000E+01  1.00782504E+00  1.00782504E+00  1.00782504E+00
  1.00782504E+00  1.00782504E+00  1.00782504E+00
Atom fragment info                         I   N=          13
           0           0           0           0           0           0
           0           0           0           0           0           0
           0
Atom residue num                           I   N=          13
           0           0           0           0           0           0
           0           0           0           0           0           0
           0
Nuclear spins                              I   N=          13
           1           0           0           0           0           0
           0           1           1           1           1           1
           1
Nuclear ZEff                               R   N=          13
 -1.29400000E+01 -5.60000000E+00 -5.60000000E+00 -5.60000000E+00 -5.60000000E+00
 -3.60000000E+00 -3.60000000E+00 -1.00000000E+00 -1.00000000E+00 -1.00000000E+00
 -1.00000000E+00 -1.00000000E+00 -1.00000000E+00
Nuclear QMom                               R   N=          13
  0.00000000E+00  0.00000000E+00  0.00000000E+00  0.00000000E+00  0.00000000E+00
  0.00000000E+00  0.00000000E+00  0.00000000E+00  0.00000000E+00  0.00000000E+00
  0.00000000E+00  0.00000000E+00  0.00000000E+00
Nuclear GFac                               R   N=          13
  1.13160000E+00  0.00000000E+00  0.00000000E+00  0.00000000E+00  0.00000000E+00
  0.00000000E+00  0.00000000E+00  2.79284600E+00  2.79284600E+00  2.79284600E+00
  2.79284600E+00  2.79284600E+00  2.79284600E+00
MicOpt                                     I   N=          13
          -1          -1          -1          -1          -1          -1
          -1          -1          -1          -1          -1          -1
          -1
Number of contracted shells                I               41
Number of primitive shells                 I              107
Pure/Cartesian d shells                    I                1
Pure/Cartesian f shells                    I                0
Highest angular momentum                   I                2
Largest degree of contraction              I                6
Shell types                                I   N=          41
           0          -1          -1          -1           2           0
          -1          -1           2           0          -1          -1
           2           0          -1          -1           2           0
          -1          -1           2           0          -1          -1
           2           0          -1          -1           2           0
           0           0           0           0           0           0
           0           0           0           0           0
Number of primitives per shell             I   N=          41
           6           6           3           1           1           6
           3           1           1           6           3           1
           1           6           3           1           1           6
           3           1           1           6           3           1
           1           6           3           1           1           3
           1           3           1           3           1           3
           1           3           1           3           1
Shell to atom map                          I   N=          41
           1           1           1           1           1           2
           2           2           2           3           3           3
           3           4           4           4           4           5
           5           5           5           6           6           6
           6           7           7           7           7           8
           8           9           9          10          10          11
          11          12          12          13          13
Primitive exponents                        R   N=         107
  1.94133000E+04  2.90942000E+03  6.61364000E+02  1.85759000E+02  5.91943000E+01
  2.00310000E+01  3.39478000E+02  8.10101000E+01  2.58780000E+01  9.45221000E+00
  3.66566000E+00  1.46746000E+00  2.15623000E+00  7.48997000E-01  2.83145000E-01
  9.98317000E-02  5.50000000E-01  5.48467166E+03  8.25234946E+02  1.88046958E+02
  5.29645000E+01  1.68975704E+01  5.79963534E+00  1.55396162E+01  3.59993359E+00
  1.01376175E+00  2.70005823E-01  8.00000000E-01  5.48467166E+03  8.25234946E+02
  1.88046958E+02  5.29645000E+01  1.68975704E+01  5.79963534E+00  1.55396162E+01
  3.59993359E+00  1.01376175E+00  2.70005823E-01  8.00000000E-01  5.48467166E+03
  8.25234946E+02  1.88046958E+02  5.29645000E+01  1.68975704E+01  5.79963534E+00
  1.55396162E+01  3.59993359E+00  1.01376175E+00  2.70005823E-01  8.00000000E-01
  5.48467166E+03  8.25234946E+02  1.88046958E+02  5.29645000E+01  1.68975704E+01
  5.79963534E+00  1.55396162E+01  3.59993359E+00  1.01376175E+00  2.70005823E-01
  8.00000000E-01  3.04752488E+03  4.57369518E+02  1.03948685E+02  2.92101553E+01
  9.28666296E+00  3.16392696E+00  7.86827235E+00  1.88128854E+00  5.44249258E-01
  1.68714478E-01  8.00000000E-01  3.04752488E+03  4.57369518E+02  1.03948685E+02
  2.92101553E+01  9.28666296E+00  3.16392696E+00  7.86827235E+00  1.88128854E+00
  5.44249258E-01  1.68714478E-01  8.00000000E-01  1.87311370E+01  2.82539436E+00
  6.40121692E-01  1.61277759E-01  1.87311370E+01  2.82539436E+00  6.40121692E-01
  1.61277759E-01  1.87311370E+01  2.82539436E+00  6.40121692E-01  1.61277759E-01
  1.87311370E+01  2.82539436E+00  6.40121692E-01  1.61277759E-01  1.87311370E+01
  2.82539436E+00  6.40121692E-01  1.61277759E-01  1.87311370E+01  2.82539436E+00
  6.40121692E-01  1.61277759E-01
Contraction coefficients                   R   N=         107
  1.85159892E-03  1.42061917E-02  6.99994593E-02  2.40078860E-01  4.84761718E-01
  3.35199805E-01 -2.78217010E-03 -3.60499014E-02 -1.16631004E-01  9.68328036E-02
  6.14418023E-01  4.03798015E-01 -2.52924114E-01  3.28518447E-02  1.08125476E+00
  1.00000000E+00  1.00000000E+00  1.83107443E-03  1.39501722E-02  6.84450781E-02
  2.32714336E-01  4.70192898E-01  3.58520853E-01 -1.10777550E-01 -1.48026263E-01
  1.13076702E+00  1.00000000E+00  1.00000000E+00  1.83107443E-03  1.39501722E-02
  6.84450781E-02  2.32714336E-01  4.70192898E-01  3.58520853E-01 -1.10777550E-01
 -1.48026263E-01  1.13076702E+00  1.00000000E+00  1.00000000E+00  1.83107443E-03
  1.39501722E-02  6.84450781E-02  2.32714336E-01  4.70192898E-01  3.58520853E-01
 -1.10777550E-01 -1.48026263E-01  1.13076702E+00  1.00000000E+00  1.00000000E+00
  1.83107443E-03  1.39501722E-02  6.84450781E-02  2.32714336E-01  4.70192898E-01
  3.58520853E-01 -1.10777550E-01 -1.48026263E-01  1.13076702E+00  1.00000000E+00
  1.00000000E+00  1.83473713E-03  1.40373228E-02  6.88426223E-02  2.32184443E-01
  4.67941348E-01  3.62311985E-01 -1.19332420E-01 -1.60854152E-01  1.14345644E+00
  1.00000000E+00  1.00000000E+00  1.83473713E-03  1.40373228E-02  6.88426223E-02
  2.32184443E-01  4.67941348E-01  3.62311985E-01 -1.19332420E-01 -1.60854152E-01
  1.14345644E+00  1.00000000E+00  1.00000000E+00  3.34946043E-02  2.34726953E-01
  8.13757326E-01  1.00000000E+00  3.34946043E-02  2.34726953E-01  8.13757326E-01
  1.00000000E+00  3.34946043E-02  2.34726953E-01  8.13757326E-01  1.00000000E+00
  3.34946043E-02  2.34726953E-01  8.13757326E-01  1.00000000E+00  3.34946043E-02
  2.34726953E-01  8.13757326E-01  1.00000000E+00  3.34946043E-02  2.34726953E-01
  8.13757326E-01  1.00000000E+00
P(S=P) Contraction coefficients            R   N=         107
  0.00000000E+00  0.00000000E+00  0.00000000E+00  0.00000000E+00  0.00000000E+00
  0.00000000E+00  4.56461619E-03  3.36935719E-02  1.39754883E-01  3.39361717E-01
  4.50920624E-01  2.38585801E-01 -1.77653127E-02  2.74058196E-01  7.85421563E-01
  1.00000000E+00  0.00000000E+00  0.00000000E+00  0.00000000E+00  0.00000000E+00
  0.00000000E+00  0.00000000E+00  0.00000000E+00  7.08742682E-02  3.39752839E-01
  7.27158577E-01  1.00000000E+00  0.00000000E+00  0.00000000E+00  0.00000000E+00
  0.00000000E+00  0.00000000E+00  0.00000000E+00  0.00000000E+00  7.08742682E-02
  3.39752839E-01  7.27158577E-01  1.00000000E+00  0.00000000E+00  0.00000000E+00
  0.00000000E+00  0.00000000E+00  0.00000000E+00  0.00000000E+00  0.00000000E+00
  7.08742682E-02  3.39752839E-01  7.27158577E-01  1.00000000E+00  0.00000000E+00
  0.00000000E+00  0.00000000E+00  0.00000000E+00  0.00000000E+00  0.00000000E+00
  0.00000000E+00  7.08742682E-02  3.39752839E-01  7.27158577E-01  1.00000000E+00
  0.00000000E+00  0.00000000E+00  0.00000000E+00  0.00000000E+00  0.00000000E+00
  0.00000000E+00  0.00000000E+00  6.89990666E-02  3.16423961E-01  7.44308291E-01
  1.00000000E+00  0.00000000E+00  0.00000000E+00  0.00000000E+00  0.00000000E+00
  0.00000000E+00  0.00000000E+00  0.00000000E+00  6.89990666E-02  3.16423961E-01
  7.44308291E-01  1.00000000E+00  0.00000000E+00  0.00000000E+00  0.00000000E+00
  0.00000000E+00  0.00000000E+00  0.00000000E+00  0.00000000E+00  0.00000000E+00
  0.00000000E+00  0.00000000E+00  0.00000000E+00  0.00000000E+00  0.00000000E+00
  0.00000000E+00  0.00000000E+00  0.00000000E+00  0.00000000E+00  0.00000000E+00
  0.00000000E+00  0.00000000E+00  0.00000000E+00  0.00000000E+00  0.00000000E+00
  0.00000000E+00  0.00000000E+00
Coordinates of each shell                  R   N=         123
 -1.75325276E+00  1.81626776E-01  1.84503237E-01 -1.75325276E+00  1.81626776E-01
  1.84503237E-01 -1.75325276E+00  1.81626776E-01  1.84503237E-01 -1.75325276E+00
  1.81626776E-01  1.84503237E-01 -1.75325276E+00  1.81626776E-01  1.84503237E-01
  1.22147324E+00  1.12198365E+00 -7.61141868E-02  1.22147324E+00  1.12198365E+00
 -7.61141868E-02  1.22147324E+00  1.12198365E+00 -7.61141868E-02  1.22147324E+00
  1.12198365E+00 -7.61141868E-02 -2.03505565E+00 -1.63135122E+00 -2.37110009E+00
 -2.03505565E+00 -1.63135122E+00 -2.37110009E+00 -2.03505565E+00 -1.63135122E+00
 -2.37110009E+00 -2.03505565E+00 -1.63135122E+00 -2.37110009E+00 -3.31222178E+00
  2.52193409E+00 -2.25085319E-01 -3.31222178E+00  2.52193409E+00 -2.25085319E-01
 -3.31222178E+00  2.52193409E+00 -2.25085319E-01 -3.31222178E+00  2.52193409E+00
 -2.25085319E-01 -2.04613462E+00 -1.50156479E+00  2.47018370E+00 -2.04613462E+00
 -1.50156479E+00  2.47018370E+00 -2.04613462E+00 -1.50156479E+00  2.47018370E+00
 -2.04613462E+00 -1.50156479E+00  2.47018370E+00  3.13963373E+00 -7.75891752E-01
  2.44915959E-01  3.13963373E+00 -7.75891752E-01  2.44915959E-01  3.13963373E+00
 -7.75891752E-01  2.44915959E-01  3.13963373E+00 -7.75891752E-01  2.44915959E-01
  5.68336559E+00  4.64858369E-01 -1.68372149E-01  5.68336559E+00  4.64858369E-01
 -1.68372149E-01  5.68336559E+00  4.64858369E-01 -1.68372149E-01  5.68336559E+00
  4.64858369E-01 -1.68372149E-01  3.00119087E+00 -1.58385473E+00  2.14431502E+00
  3.00119087E+00 -1.58385473E+00  2.14431502E+00  2.83882981E+00 -2.30137774E+00
 -1.12515006E+00  2.83882981E+00 -2.30137774E+00 -1.12515006E+00  5.80171133E+00
  1.25114717E+00 -2.07391419E+00  5.80171133E+00  1.25114717E+00 -2.07391419E+00
  5.96822655E+00  1.99096845E+00  1.19321596E+00  5.96822655E+00  1.99096845E+00
  1.19321596E+00  7.20152456E+00 -9.18425989E-01  6.82323969E-02  7.20152456E+00
 -9.18425989E-01  6.82323969E-02 -2.07517701E+00 -3.38467235E+00 -1.81658338E+00
 -2.07517701E+00 -3.38467235E+00 -1.81658338E+00
Constraint Structure                       R   N=          39
 -1.75325276E+00  1.81626776E-01  1.84503237E-01  1.22147324E+00  1.12198365E+00
 -7.61141868E-02 -2.03505565E+00 -1.63135122E+00 -2.37110009E+00 -3.31222178E+00
  2.52193409E+00 -2.25085319E-01 -2.04613462E+00 -1.50156479E+00  2.47018370E+00
  3.13963373E+00 -7.75891752E-01  2.44915959E-01  5.68336559E+00  4.64858369E-01
 -1.68372149E-01  3.00119087E+00 -1.58385473E+00  2.14431502E+00  2.83882981E+00
 -2.30137774E+00 -1.12515006E+00  5.80171133E+00  1.25114717E+00 -2.07391419E+00
  5.96822655E+00  1.99096845E+00  1.19321596E+00  7.20152456E+00 -9.18425989E-01
  6.82323969E-02 -2.07517701E+00 -3.38467235E+00 -1.81658338E+00
Num ILSW                                   I              100
ILSW                                       I   N=         100
           0           1           0           1           2           0
           0           0           0           0           0          -1
           0           0           0           0           0           0
           0           0           0           0           1           0
           1           0           0           0           0           0
           0           0      100000           0          -1           0
           0           0           0           0           0           0
           0           0           0           1           1           0
           0           0           1           0           0           0
           0           0           4          40           0           0
           0           0           0           0           0           0
           0           0           0           0           0           0
           0           0           0           0           0           0
           0           0           0           0           0           0
           0           0           0           0           0           0
           0           0           0           0           0           0
           0           0           0           0
Num RLSW                                   I               40
RLSW                                       R   N=          40
  1.00000000E+00  1.00000000E+00  1.00000000E+00  1.00000000E+00  1.00000000E+00
  0.00000000E+00  0.00000000E+00  1.00000000E+00  0.00000000E+00  0.00000000E+00
  0.00000000E+00  0.00000000E+00  1.00000000E+00  0.00000000E+00  0.00000000E+00
  0.00000000E+00  0.00000000E+00  1.00000000E+00  0.00000000E+00  0.00000000E+00
  0.00000000E+00  0.00000000E+00  1.00000000E+00  0.00000000E+00  0.00000000E+00
  0.00000000E+00  0.00000000E+00  1.00000000E+00  0.00000000E+00  0.00000000E+00
  0.00000000E+00  0.00000000E+00  0.00000000E+00  0.00000000E+00  0.00000000E+00
  0.00000000E+00  0.00000000E+00  0.00000000E+00  1.00000000E+00  1.00000000E+00
MxBond                                     I                4
NBond                                      I   N=          13
           4           2           2           1           1           4
           4           1           1           1           1           1
           1
IBond                                      I   N=          52
           2           3           4           5           1           6
           0           0           1          13           0           0
           1           0           0           0           1           0
           0           0           2           7           8           9
           6          10          11          12           6           0
           0           0           6           0           0           0
           7           0           0           0           7           0
           0           0           7           0           0           0
           3           0           0           0
RBond                                      R   N=          52
  1.00000000E+00  1.00000000E+00  2.00000000E+00  2.00000000E+00  1.00000000E+00
  1.00000000E+00  0.00000000E+00  0.00000000E+00  1.00000000E+00  1.00000000E+00
  0.00000000E+00  0.00000000E+00  2.00000000E+00  0.00000000E+00  0.00000000E+00
  0.00000000E+00  2.00000000E+00  0.00000000E+00  0.00000000E+00  0.00000000E+00
  1.00000000E+00  1.00000000E+00  1.00000000E+00  1.00000000E+00  1.00000000E+00
  1.00000000E+00  1.00000000E+00  1.00000000E+00  1.00000000E+00  0.00000000E+00
  0.00000000E+00  0.00000000E+00  1.00000000E+00  0.00000000E+00  0.00000000E+00
  0.00000000E+00  1.00000000E+00  0.00000000E+00  0.00000000E+00  0.00000000E+00
  1.00000000E+00  0.00000000E+00  0.00000000E+00  0.00000000E+00  1.00000000E+00
  0.00000000E+00  0.00000000E+00  0.00000000E+00  1.00000000E+00  0.00000000E+00
  0.00000000E+00  0.00000000E+00
Virial Ratio                               R      2.002383734231100E+00
SCF Energy                                 R     -7.196370679161123E+02
MP2 Energy                                 R     -7.207322229167844E+02
Total Energy                               R     -7.207322229167844E+02
Post-SCF wavefunction norm                 R      1.627675158036302E+00
RMS Force                                  R      6.398665054229071E-06
RMS Density                                R      1.531561947680587E-09
External E-field                           R   N=          35
  0.00000000E+00  0.00000000E+00  0.00000000E+00  0.00000000E+00  0.00000000E+00
  0.00000000E+00  0.00000000E+00  0.00000000E+00  0.00000000E+00  0.00000000E+00
  0.00000000E+00  0.00000000E+00  0.00000000E+00  0.00000000E+00  0.00000000E+00
  0.00000000E+00  0.00000000E+00  0.00000000E+00  0.00000000E+00  0.00000000E+00
  0.00000000E+00  0.00000000E+00  0.00000000E+00  0.00000000E+00  0.00000000E+00
  0.00000000E+00  0.00000000E+00  0.00000000E+00  0.00000000E+00  0.00000000E+00
  0.00000000E+00  0.00000000E+00  0.00000000E+00  0.00000000E+00  0.00000000E+00
IOpCl                                      I                0
IROHF                                      I                0
Alpha Orbital Energies                     R   N=         121
 -8.00551532E+01 -2.05656744E+01 -2.05577280E+01 -2.04823850E+01 -2.04791089E+01
 -1.12731052E+01 -1.12130658E+01 -7.57511859E+00 -5.47399317E+00 -5.47341426E+00
 -5.47262935E+00 -1.38251174E+00 -1.32892212E+00 -1.26236939E+00 -1.22922829E+00
 -1.01103207E+00 -8.37992864E-01 -7.56717014E-01 -6.81502763E-01 -6.46079794E-01
 -6.23733432E-01 -5.92680206E-01 -5.66918445E-01 -5.43134192E-01 -5.27835637E-01
 -5.23855821E-01 -4.98482598E-01 -4.77463345E-01 -4.52651219E-01 -4.46423079E-01
 -4.25898968E-01 -4.18166088E-01 -4.02544714E-01  2.29192547E-01  2.60238388E-01
  2.89492767E-01  3.12159988E-01  3.17378954E-01  3.26223446E-01  3.39072507E-01
  3.57624476E-01  3.75719828E-01  3.80524865E-01  4.21353551E-01  4.43469576E-01
  5.39984244E-01  5.53558532E-01  5.84893814E-01  6.82714766E-01  7.57882823E-01
  7.70520226E-01  7.94767421E-01  8.21980117E-01  8.99518428E-01  9.23997643E-01
  9.50339016E-01  9.87043501E-01  1.06333356E+00  1.08985676E+00  1.11459540E+00
  1.13217894E+00  1.16144855E+00  1.17036560E+00  1.18269979E+00  1.19187512E+00
  1.23246203E+00  1.24562378E+00  1.29043048E+00  1.29700138E+00  1.31918756E+00
  1.34812732E+00  1.36856770E+00  1.39498822E+00  1.43626565E+00  1.45470468E+00
  1.50793144E+00  1.53022001E+00  1.55455211E+00  1.57724025E+00  1.62244687E+00
  1.68288398E+00  1.72467437E+00  1.74252086E+00  1.84892499E+00  1.92008759E+00
  1.97304797E+00  2.04679130E+00  2.07929269E+00  2.09630248E+00  2.10804121E+00
  2.15223080E+00  2.15793958E+00  2.16707137E+00  2.19607956E+00  2.23424704E+00
  2.29242471E+00  2.32059716E+00  2.35395666E+00  2.40978906E+00  2.44739884E+00
  2.49606912E+00  2.52793343E+00  2.59093631E+00  2.62856061E+00  2.69467129E+00
  2.71532287E+00  2.72862412E+00  2.76520652E+00  2.87442062E+00  2.98176499E+00
  3.03752834E+00  3.14539778E+00  3.21574703E+00  3.27133197E+00  3.91609921E+00
  4.13373545E+00  4.19876861E+00  4.36080104E+00  4.42044147E+00  4.62284016E+00
  4.84350297E+00
Alpha MO coefficients                      R   N=       14641
  9.96427879E-01  1.34913855E-02  3.55950865E-05 -1.50587202E-05 -2.99754569E-05
 -2.19758528E-02 -5.73396423E-05  8.15719524E-06  1.76018695E-05  2.08631506E-03
  1.30783511E-04 -2.35621258E-04  8.12802589E-05  7.44612985E-03  7.42802718E-03
  7.47594091E-03  2.93301073E-05 -1.28742589E-06  2.05414722E-05 -2.30086934E-05
 -1.08878613E-04  5.72222413E-05  4.39818972E-05 -1.11564590E-05  9.01279603E-04
 -3.24956809E-04 -2.52587673E-04  5.34634514E-05 -1.78619010E-04 -6.22715927E-05
 -8.17319777E-05 -7.34876820E-05  1.90426632E-05 -1.99628731E-06 -2.03106978E-05
 -8.75706861E-05 -8.19322154E-07 -1.17289474E-05 -5.18603563E-05  8.04317611E-04
  1.35730825E-05  1.00634762E-04  3.45780398E-04 -7.92792966E-05 -6.20983028E-05
 -1.63690105E-04 -7.51358284E-06 -1.23781713E-05 -8.75792644E-05 -2.17172147E-05
 -1.56449339E-04 -8.38086454E-05  1.30502750E-04 -2.44200062E-05  1.00810707E-03
  2.89122980E-04 -4.36723709E-04  7.27734150E-05 -1.01842317E-04 -1.52431553E-04
 -6.37995891E-05  6.83412645E-05 -1.35326322E-05  1.98362669E-05  4.09943060E-06
 -5.73748741E-05 -9.73660862E-06 -9.43062946E-05  1.14839573E-04  4.89438846E-04
  2.46706626E-05  2.96039910E-04 -3.55165145E-04  1.77389613E-05 -3.23935961E-05
 -7.33847608E-05 -1.14700723E-05  1.21763507E-05  7.55290703E-05 -4.87957294E-06
 -2.39573034E-05  3.23663224E-05  2.15909863E-06 -4.24187860E-06 -1.04666507E-04
  1.27274022E-04 -1.85950744E-04  5.18772010E-05 -2.03180308E-05 -1.63899762E-06
 -1.63386704E-05  2.30720761E-05 -2.67263951E-06 -3.34795807E-06 -1.01406461E-05
 -3.40098602E-05  8.98715410E-06  4.06887900E-07 -2.02243048E-06  1.83292593E-04
 -9.01599990E-05  5.71164323E-05 -6.79964159E-06 -7.29210359E-06 -3.10644069E-05
 -1.64756830E-05 -2.24871277E-06  8.85639447E-07  5.12042386E-06  2.21680770E-05
 -1.92309951E-04  1.54624369E-05 -1.52254147E-04 -1.06969871E-05 -3.82350920E-05
 -1.27776269E-05 -3.81432577E-05 -6.38331532E-07  1.61121952E-05 -7.13244489E-05
 -2.39555235E-04  9.54046109E-06 -4.66711789E-05  5.68016474E-06  4.65909070E-05
  5.53993414E-05  1.43110473E-04 -2.38382550E-05 -2.44995999E-04 -2.66781662E-04
 -4.57174752E-04  2.61848669E-05 -2.05823672E-04  4.79312695E-04 -5.84399155E-05
  4.92758360E-05  1.25084053E-04  2.39686013E-05  1.87009462E-05  1.93165507E-04
 -8.21550291E-04 -3.21214445E-05  1.30128826E-05 -1.69876588E-05  1.32821498E-05
  1.42814849E-04 -1.00801801E-04  1.06544531E-04 -4.06292422E-05 -9.01954825E-07
 -2.91521137E-05 -1.23260636E-05 -1.55540296E-05 -1.44527543E-05 -1.89140464E-05
  9.94620326E-01  2.11060639E-02  7.08370881E-05 -5.04460159E-04  9.87321248E-04
  4.34466418E-03 -2.56557007E-05  2.98148397E-04 -4.64662158E-04 -3.98620789E-03
 -4.23810776E-03 -4.16389347E-03 -1.76806023E-05 -2.02270011E-05 -4.57610980E-05
 -9.30110850E-05 -6.95359491E-05 -2.42153046E-06 -1.26770335E-05  1.20868453E-05
  4.44234138E-04  8.19015246E-05 -1.06866261E-05 -3.46045561E-05 -2.38067329E-05
 -6.51666896E-05 -6.00338660E-05 -2.68113375E-06 -3.36988940E-06 -2.31173352E-05
 -9.51211904E-05  5.51098895E-05  4.10598330E-06  1.42070071E-05  1.48761412E-05
 -2.67672766E-04 -1.15199552E-05 -4.66203386E-06 -1.09754814E-05  4.16552771E-05
  5.02876883E-05  1.75479331E-05  1.06332731E-06 -2.77385404E-06 -2.09993842E-05
  6.12262858E-07 -1.14420397E-05 -2.05106737E-05  1.39376326E-05 -1.87972568E-06
  1.25214712E-04  1.61602280E-05  8.75281315E-06 -6.02250988E-06  1.28293503E-05
  4.59896507E-06  4.47289649E-06 -3.66972184E-06  2.98090334E-06 -7.94275316E-07
  2.68265873E-07  3.67768592E-06  5.93744015E-06  2.23569221E-06 -1.38951074E-06
 -4.85156891E-05  5.60867834E-06  1.13185062E-05  3.04733359E-06 -1.49995116E-06
 -2.34687213E-06 -2.66942936E-07 -2.44067510E-06  6.42502578E-07  3.61886760E-07
  1.56612615E-06 -5.10266423E-05  3.26043914E-06 -2.86900703E-05 -2.00014255E-06
  1.40740071E-05  1.17866883E-06 -1.56764966E-06  1.88251434E-06  8.97883526E-06
  3.88859421E-04 -2.09642654E-04  1.08534018E-05 -3.73618666E-05 -7.85270944E-05
 -1.96373913E-05  4.71203008E-06  1.90128665E-04  4.22893559E-04  1.00680993E-04
 -1.95578082E-05 -6.10684999E-04 -2.80037741E-04 -3.17748295E-04  1.71128100E-04
  2.88567120E-04 -5.18234579E-05 -5.67434944E-05  8.87788406E-05 -3.16370832E-05
  4.07313134E-06  9.94629846E-01  2.11758310E-02 -1.59383921E-04 -1.03393220E-03
  2.12802232E-04  4.07620441E-03  5.03558528E-06  6.94082232E-04 -1.59012460E-04
 -4.27467589E-03 -4.15664583E-03 -3.94354502E-03  8.51656285E-05 -3.07514879E-06
  4.64162225E-05  8.05775287E-04 -2.52925269E-05 -1.18343422E-05 -1.85669393E-05
  2.77983398E-06  2.49159370E-04  6.20244252E-06  8.94669247E-05  5.17595920E-06
 -6.19954196E-05 -3.69993862E-05 -3.61660834E-05 -2.17332055E-05 -1.72409750E-05
  6.05213367E-06 -9.86027662E-05 -4.40982515E-05  4.70368365E-06 -9.41368459E-06
  5.81592630E-06  3.40694421E-04  9.81659886E-06 -3.03606546E-05 -2.15814158E-05
 -8.13034273E-05 -1.66883535E-05 -8.99704192E-06  5.41554243E-07 -1.76156564E-06
  6.19455497E-06 -9.66211970E-05  2.05452240E-05 -1.37576441E-05 -1.02297136E-05
 -8.21451099E-06 -7.11773417E-05  1.15763665E-05  4.86736401E-05 -3.23733620E-09
 -6.04786527E-06  2.68577179E-05  2.91250548E-05 -1.56462574E-05  1.21691501E-05
 -2.49424499E-06 -2.62008668E-05  1.36669260E-04 -2.48212933E-04  2.65969673E-04
 -4.43602271E-05  4.05296799E-04 -9.90981816E-05  1.33923412E-05 -7.51850565E-06
  6.54878458E-05  3.41223333E-05 -5.86392378E-05 -1.01488239E-04  1.56384697E-05
 -1.86323504E-05  1.02439969E-05  9.11978705E-05 -8.67660132E-06  2.13426465E-05
 -5.51237297E-06 -1.70229802E-04  2.70074784E-04 -1.50164437E-04  2.91474819E-05
 -5.75939343E-05  1.92062851E-05 -3.56059758E-06  2.55849463E-06  2.28692449E-06
 -6.42739407E-06 -4.39163656E-05 -6.03122059E-05 -4.87814060E-05 -4.91906648E-05
  4.45696256E-05  1.56641337E-05  4.49605188E-05  3.55516929E-06 -1.21457132E-05
 -1.37260475E-04  1.91273258E-05 -2.71033916E-05  1.92752669E-05 -6.57656725E-05
 -9.68947811E-07  1.57944111E-05 -1.73257124E-05  7.47898721E-04 -1.15673524E-05
 -2.19210364E-04  2.74791607E-04 -5.03550602E-04 -4.94086257E-05  3.47319959E-04
 -2.95752544E-04 -1.80239689E-04 -1.65745122E-04 -1.34235223E-04  1.35300321E-05
 -8.32803367E-06 -4.12950039E-05  1.04241747E-04  9.90603709E-06  4.38610207E-06
  7.92838458E-06 -1.15341262E-05 -1.62878105E-05  1.26167799E-06 -6.22915844E-06
  1.02352624E-05  2.94873833E-06 -4.17915639E-06 -1.73648063E-06 -1.24608077E-05
  1.47008090E-05  1.61483723E-05  1.06499147E-04 -6.11147088E-06 -1.05553573E-06
  4.25367039E-06 -2.00994508E-05  6.86590669E-05  1.24604047E-05 -1.49693442E-05
  3.36864863E-05 -3.94264107E-06 -8.91722241E-07 -3.96162083E-05  1.76613550E-06
  3.50485027E-06  4.29627928E-06 -2.42185311E-03 -1.72335201E-05  7.89453514E-06
  4.14833799E-06 -1.45018949E-05 -1.58259783E-04 -9.56818145E-06 -1.60406764E-05
  2.52314399E-05  5.02514236E-05  3.63144054E-05  2.72776564E-05 -9.47563148E-06
 -4.51910162E-06  1.96476294E-05  9.94667672E-01  2.08799058E-02  1.12398092E-04
  6.47423559E-04 -8.93808765E-04  4.35087398E-03 -1.64316245E-05 -2.42078077E-04
  2.97442832E-04 -4.00722606E-03 -4.04029169E-03 -4.05676268E-03 -4.89557462E-06
  4.20685989E-06  4.78357759E-05 -4.14532360E-06 -1.95055997E-05  4.63362805E-06
 -1.71617653E-06 -8.64443120E-06  1.09641061E-04 -6.70337425E-05 -8.22404217E-06
  5.73449261E-05 -4.62610844E-06 -9.76861816E-06 -6.95325410E-06  3.35093589E-06
  7.97155616E-07 -2.96747937E-07 -2.77042121E-07 -8.03547959E-07  5.26044817E-07
 -1.33105700E-07 -2.76343659E-06  2.12024587E-05 -7.10354866E-06 -1.04396597E-05