20063546                                                                
Freq      RMP2-FC                                                     6-31G(d)            
Number of atoms                            I               13
Info1-9                                    I   N=           9
          25          23        1002           0           0         100
           6           2           1
Charge                                     I               -1
Multiplicity                               I                1
Number of electrons                        I               56
Number of alpha electrons                  I               28
Number of beta electrons                   I               28
Number of basis functions                  I              108
Number of independent functions            I              108
Number of point charges in /Mol/           I                0
Number of translation vectors              I                0
Atomic numbers                             I   N=          13
          16           8           6           6           6           6
           1           1           1           1           1           1
           1
Nuclear charges                            R   N=          13
  1.60000000E+01  8.00000000E+00  6.00000000E+00  6.00000000E+00  6.00000000E+00
  6.00000000E+00  1.00000000E+00  1.00000000E+00  1.00000000E+00  1.00000000E+00
  1.00000000E+00  1.00000000E+00  1.00000000E+00
Current cartesian coordinates              R   N=          39
 -3.72266913E+00  5.59757899E-04 -8.12906799E-01 -4.32285422E-01 -2.20730503E-03
  3.03156986E+00  1.54819984E+00  6.63719423E-04 -9.81380818E-01  3.08786351E+00
  2.37550830E+00 -4.18127815E-01  3.08807955E+00 -2.37477920E+00 -4.21272021E-01
 -8.43111651E-01 -5.45029069E-04  7.03556008E-01  9.63959972E-01  1.95222179E-03
 -2.96406864E+00  3.53656618E+00  2.42084774E+00  1.59873692E+00  4.85410315E+00
  2.42344351E+00 -1.50686329E+00  1.99434662E+00  4.07227777E+00 -8.75290799E-01
  3.53677163E+00 -2.42274991E+00  1.59553265E+00  4.85432818E+00 -2.42110854E+00
 -1.51006332E+00  1.99472630E+00 -4.07104721E+00 -8.80685715E-01
Force Field                                I                0
Int Atom Types                             I   N=          13
           0           0           0           0           0           0
           0           0           0           0           0           0
           0
MM charges                                 R   N=          13
  0.00000000E+00  0.00000000E+00  0.00000000E+00  0.00000000E+00  0.00000000E+00
  0.00000000E+00  0.00000000E+00  0.00000000E+00  0.00000000E+00  0.00000000E+00
  0.00000000E+00  0.00000000E+00  0.00000000E+00
Integer atomic weights                     I   N=          13
          32          16          12          12          12          12
           1           1           1           1           1           1
           1
Real atomic weights                        R   N=          13
  3.19720718E+01  1.59949146E+01  1.20000000E+01  1.20000000E+01  1.20000000E+01
  1.20000000E+01  1.00782504E+00  1.00782504E+00  1.00782504E+00  1.00782504E+00
  1.00782504E+00  1.00782504E+00  1.00782504E+00
Atom fragment info                         I   N=          13
           0           0           0           0           0           0
           0           0           0           0           0           0
           0
Atom residue num                           I   N=          13
           0           0           0           0           0           0
           0           0           0           0           0           0
           0
Nuclear spins                              I   N=          13
           0           0           0           0           0           0
           1           1           1           1           1           1
           1
Nuclear ZEff                               R   N=          13
 -1.36000000E+01 -5.60000000E+00 -3.60000000E+00 -3.60000000E+00 -3.60000000E+00
 -3.60000000E+00 -1.00000000E+00 -1.00000000E+00 -1.00000000E+00 -1.00000000E+00
 -1.00000000E+00 -1.00000000E+00 -1.00000000E+00
Nuclear QMom                               R   N=          13
  0.00000000E+00  0.00000000E+00  0.00000000E+00  0.00000000E+00  0.00000000E+00
  0.00000000E+00  0.00000000E+00  0.00000000E+00  0.00000000E+00  0.00000000E+00
  0.00000000E+00  0.00000000E+00  0.00000000E+00
Nuclear GFac                               R   N=          13
  0.00000000E+00  0.00000000E+00  0.00000000E+00  0.00000000E+00  0.00000000E+00
  0.00000000E+00  2.79284600E+00  2.79284600E+00  2.79284600E+00  2.79284600E+00
  2.79284600E+00  2.79284600E+00  2.79284600E+00
MicOpt                                     I   N=          13
          -1          -1          -1          -1          -1          -1
          -1          -1          -1          -1          -1          -1
          -1
Number of contracted shells                I               39
Number of primitive shells                 I              100
Pure/Cartesian d shells                    I                1
Pure/Cartesian f shells                    I                0
Highest angular momentum                   I                2
Largest degree of contraction              I                6
Shell types                                I   N=          39
           0          -1          -1          -1           2           0
          -1          -1           2           0          -1          -1
           2           0          -1          -1           2           0
          -1          -1           2           0          -1          -1
           2           0           0           0           0           0
           0           0           0           0           0           0
           0           0           0
Number of primitives per shell             I   N=          39
           6           6           3           1           1           6
           3           1           1           6           3           1
           1           6           3           1           1           6
           3           1           1           6           3           1
           1           3           1           3           1           3
           1           3           1           3           1           3
           1           3           1
Shell to atom map                          I   N=          39
           1           1           1           1           1           2
           2           2           2           3           3           3
           3           4           4           4           4           5
           5           5           5           6           6           6
           6           7           7           8           8           9
           9          10          10          11          11          12
          12          13          13
Primitive exponents                        R   N=         100
  2.19171000E+04  3.30149000E+03  7.54146000E+02  2.12711000E+02  6.79896000E+01
  2.30515000E+01  4.23735000E+02  1.00710000E+02  3.21599000E+01  1.18079000E+01
  4.63110000E+00  1.87025000E+00  2.61584000E+00  9.22167000E-01  3.41287000E-01
  1.17167000E-01  6.50000000E-01  5.48467166E+03  8.25234946E+02  1.88046958E+02
  5.29645000E+01  1.68975704E+01  5.79963534E+00  1.55396162E+01  3.59993359E+00
  1.01376175E+00  2.70005823E-01  8.00000000E-01  3.04752488E+03  4.57369518E+02
  1.03948685E+02  2.92101553E+01  9.28666296E+00  3.16392696E+00  7.86827235E+00
  1.88128854E+00  5.44249258E-01  1.68714478E-01  8.00000000E-01  3.04752488E+03
  4.57369518E+02  1.03948685E+02  2.92101553E+01  9.28666296E+00  3.16392696E+00
  7.86827235E+00  1.88128854E+00  5.44249258E-01  1.68714478E-01  8.00000000E-01
  3.04752488E+03  4.57369518E+02  1.03948685E+02  2.92101553E+01  9.28666296E+00
  3.16392696E+00  7.86827235E+00  1.88128854E+00  5.44249258E-01  1.68714478E-01
  8.00000000E-01  3.04752488E+03  4.57369518E+02  1.03948685E+02  2.92101553E+01
  9.28666296E+00  3.16392696E+00  7.86827235E+00  1.88128854E+00  5.44249258E-01
  1.68714478E-01  8.00000000E-01  1.87311370E+01  2.82539436E+00  6.40121692E-01
  1.61277759E-01  1.87311370E+01  2.82539436E+00  6.40121692E-01  1.61277759E-01
  1.87311370E+01  2.82539436E+00  6.40121692E-01  1.61277759E-01  1.87311370E+01
  2.82539436E+00  6.40121692E-01  1.61277759E-01  1.87311370E+01  2.82539436E+00
  6.40121692E-01  1.61277759E-01  1.87311370E+01  2.82539436E+00  6.40121692E-01
  1.61277759E-01  1.87311370E+01  2.82539436E+00  6.40121692E-01  1.61277759E-01
Contraction coefficients                   R   N=         100
  1.86924085E-03  1.42303065E-02  6.96962317E-02  2.38487108E-01  4.83307220E-01
  3.38074154E-01 -2.37677050E-03 -3.16930067E-02 -1.13317024E-01  5.60900118E-02
  5.92255124E-01  4.55006095E-01 -2.50373114E-01  6.69567631E-02  1.05450627E+00
  1.00000000E+00  1.00000000E+00  1.83107443E-03  1.39501722E-02  6.84450781E-02
  2.32714336E-01  4.70192898E-01  3.58520853E-01 -1.10777550E-01 -1.48026263E-01
  1.13076702E+00  1.00000000E+00  1.00000000E+00  1.83473713E-03  1.40373228E-02
  6.88426223E-02  2.32184443E-01  4.67941348E-01  3.62311985E-01 -1.19332420E-01
 -1.60854152E-01  1.14345644E+00  1.00000000E+00  1.00000000E+00  1.83473713E-03
  1.40373228E-02  6.88426223E-02  2.32184443E-01  4.67941348E-01  3.62311985E-01
 -1.19332420E-01 -1.60854152E-01  1.14345644E+00  1.00000000E+00  1.00000000E+00
  1.83473713E-03  1.40373228E-02  6.88426223E-02  2.32184443E-01  4.67941348E-01
  3.62311985E-01 -1.19332420E-01 -1.60854152E-01  1.14345644E+00  1.00000000E+00
  1.00000000E+00  1.83473713E-03  1.40373228E-02  6.88426223E-02  2.32184443E-01
  4.67941348E-01  3.62311985E-01 -1.19332420E-01 -1.60854152E-01  1.14345644E+00
  1.00000000E+00  1.00000000E+00  3.34946043E-02  2.34726953E-01  8.13757326E-01
  1.00000000E+00  3.34946043E-02  2.34726953E-01  8.13757326E-01  1.00000000E+00
  3.34946043E-02  2.34726953E-01  8.13757326E-01  1.00000000E+00  3.34946043E-02
  2.34726953E-01  8.13757326E-01  1.00000000E+00  3.34946043E-02  2.34726953E-01
  8.13757326E-01  1.00000000E+00  3.34946043E-02  2.34726953E-01  8.13757326E-01
  1.00000000E+00  3.34946043E-02  2.34726953E-01  8.13757326E-01  1.00000000E+00
P(S=P) Contraction coefficients            R   N=         100
  0.00000000E+00  0.00000000E+00  0.00000000E+00  0.00000000E+00  0.00000000E+00
  0.00000000E+00  4.06100998E-03  3.06812999E-02  1.30451999E-01  3.27204999E-01
  4.52850998E-01  2.56041999E-01 -1.45104895E-02  3.10262776E-01  7.54482456E-01
  1.00000000E+00  0.00000000E+00  0.00000000E+00  0.00000000E+00  0.00000000E+00
  0.00000000E+00  0.00000000E+00  0.00000000E+00  7.08742682E-02  3.39752839E-01
  7.27158577E-01  1.00000000E+00  0.00000000E+00  0.00000000E+00  0.00000000E+00
  0.00000000E+00  0.00000000E+00  0.00000000E+00  0.00000000E+00  6.89990666E-02
  3.16423961E-01  7.44308291E-01  1.00000000E+00  0.00000000E+00  0.00000000E+00
  0.00000000E+00  0.00000000E+00  0.00000000E+00  0.00000000E+00  0.00000000E+00
  6.89990666E-02  3.16423961E-01  7.44308291E-01  1.00000000E+00  0.00000000E+00
  0.00000000E+00  0.00000000E+00  0.00000000E+00  0.00000000E+00  0.00000000E+00
  0.00000000E+00  6.89990666E-02  3.16423961E-01  7.44308291E-01  1.00000000E+00
  0.00000000E+00  0.00000000E+00  0.00000000E+00  0.00000000E+00  0.00000000E+00
  0.00000000E+00  0.00000000E+00  6.89990666E-02  3.16423961E-01  7.44308291E-01
  1.00000000E+00  0.00000000E+00  0.00000000E+00  0.00000000E+00  0.00000000E+00
  0.00000000E+00  0.00000000E+00  0.00000000E+00  0.00000000E+00  0.00000000E+00
  0.00000000E+00  0.00000000E+00  0.00000000E+00  0.00000000E+00  0.00000000E+00
  0.00000000E+00  0.00000000E+00  0.00000000E+00  0.00000000E+00  0.00000000E+00
  0.00000000E+00  0.00000000E+00  0.00000000E+00  0.00000000E+00  0.00000000E+00
  0.00000000E+00  0.00000000E+00  0.00000000E+00  0.00000000E+00  0.00000000E+00
Coordinates of each shell                  R   N=         117
 -3.72266913E+00  5.59757899E-04 -8.12906799E-01 -3.72266913E+00  5.59757899E-04
 -8.12906799E-01 -3.72266913E+00  5.59757899E-04 -8.12906799E-01 -3.72266913E+00
  5.59757899E-04 -8.12906799E-01 -3.72266913E+00  5.59757899E-04 -8.12906799E-01
 -4.32285422E-01 -2.20730503E-03  3.03156986E+00 -4.32285422E-01 -2.20730503E-03
  3.03156986E+00 -4.32285422E-01 -2.20730503E-03  3.03156986E+00 -4.32285422E-01
 -2.20730503E-03  3.03156986E+00  1.54819984E+00  6.63719423E-04 -9.81380818E-01
  1.54819984E+00  6.63719423E-04 -9.81380818E-01  1.54819984E+00  6.63719423E-04
 -9.81380818E-01  1.54819984E+00  6.63719423E-04 -9.81380818E-01  3.08786351E+00
  2.37550830E+00 -4.18127815E-01  3.08786351E+00  2.37550830E+00 -4.18127815E-01
  3.08786351E+00  2.37550830E+00 -4.18127815E-01  3.08786351E+00  2.37550830E+00
 -4.18127815E-01  3.08807955E+00 -2.37477920E+00 -4.21272021E-01  3.08807955E+00
 -2.37477920E+00 -4.21272021E-01  3.08807955E+00 -2.37477920E+00 -4.21272021E-01
  3.08807955E+00 -2.37477920E+00 -4.21272021E-01 -8.43111651E-01 -5.45029069E-04
  7.03556008E-01 -8.43111651E-01 -5.45029069E-04  7.03556008E-01 -8.43111651E-01
 -5.45029069E-04  7.03556008E-01 -8.43111651E-01 -5.45029069E-04  7.03556008E-01
  9.63959972E-01  1.95222179E-03 -2.96406864E+00  9.63959972E-01  1.95222179E-03
 -2.96406864E+00  3.53656618E+00  2.42084774E+00  1.59873692E+00  3.53656618E+00
  2.42084774E+00  1.59873692E+00  4.85410315E+00  2.42344351E+00 -1.50686329E+00
  4.85410315E+00  2.42344351E+00 -1.50686329E+00  1.99434662E+00  4.07227777E+00
 -8.75290799E-01  1.99434662E+00  4.07227777E+00 -8.75290799E-01  3.53677163E+00
 -2.42274991E+00  1.59553265E+00  3.53677163E+00 -2.42274991E+00  1.59553265E+00
  4.85432818E+00 -2.42110854E+00 -1.51006332E+00  4.85432818E+00 -2.42110854E+00
 -1.51006332E+00  1.99472630E+00 -4.07104721E+00 -8.80685715E-01  1.99472630E+00
 -4.07104721E+00 -8.80685715E-01
Constraint Structure                       R   N=          39
 -3.72266913E+00  5.59757899E-04 -8.12906799E-01 -4.32285422E-01 -2.20730503E-03
  3.03156986E+00  1.54819984E+00  6.63719423E-04 -9.81380818E-01  3.08786351E+00
  2.37550830E+00 -4.18127815E-01  3.08807955E+00 -2.37477920E+00 -4.21272021E-01
 -8.43111651E-01 -5.45029069E-04  7.03556008E-01  9.63959972E-01  1.95222179E-03
 -2.96406864E+00  3.53656618E+00  2.42084774E+00  1.59873692E+00  4.85410315E+00
  2.42344351E+00 -1.50686329E+00  1.99434662E+00  4.07227777E+00 -8.75290799E-01
  3.53677163E+00 -2.42274991E+00  1.59553265E+00  4.85432818E+00 -2.42110854E+00
 -1.51006332E+00  1.99472630E+00 -4.07104721E+00 -8.80685715E-01
Num ILSW                                   I              100
ILSW                                       I   N=         100
           0           1           0           1           2           0
           0           0           0           0           0          -1
           0           0           0           0           0           0
           0           0           0           0           1           0
           1           0           0           0           0           0
           0           0      100000           0          -1           0
           0           0           0           0           0           0
           0           0           0           1           1           0
           0           0           1           0           0           0
           0           0           4          40           0           0
           0           0           0           0           0           0
           0           0           0           0           0           0
           0           0           0           0           0           0
           0           0           0           0           0           0
           0           0           0           0           0           0
           0           0           0           0           0           0
           0           0           0           0
Num RLSW                                   I               40
RLSW                                       R   N=          40
  1.00000000E+00  1.00000000E+00  1.00000000E+00  1.00000000E+00  1.00000000E+00
  0.00000000E+00  0.00000000E+00  1.00000000E+00  0.00000000E+00  0.00000000E+00
  0.00000000E+00  0.00000000E+00  1.00000000E+00  0.00000000E+00  0.00000000E+00
  0.00000000E+00  0.00000000E+00  1.00000000E+00  0.00000000E+00  0.00000000E+00
  0.00000000E+00  0.00000000E+00  1.00000000E+00  0.00000000E+00  0.00000000E+00
  0.00000000E+00  0.00000000E+00  1.00000000E+00  0.00000000E+00  0.00000000E+00
  0.00000000E+00  0.00000000E+00  0.00000000E+00  0.00000000E+00  0.00000000E+00
  0.00000000E+00  0.00000000E+00  0.00000000E+00  1.00000000E+00  1.00000000E+00
MxBond                                     I                4
NBond                                      I   N=          13
           1           1           4           4           4           3
           1           1           1           1           1           1
           1
IBond                                      I   N=          52
           6           0           0           0           6           0
           0           0           4           5           6           7
           3           8           9          10           3          11
          12          13           1           2           3           0
           3           0           0           0           4           0
           0           0           4           0           0           0
           4           0           0           0           5           0
           0           0           5           0           0           0
           5           0           0           0
RBond                                      R   N=          52
  1.00000000E+00  0.00000000E+00  0.00000000E+00  0.00000000E+00  2.00000000E+00
  0.00000000E+00  0.00000000E+00  0.00000000E+00  1.00000000E+00  1.00000000E+00
  1.00000000E+00  1.00000000E+00  1.00000000E+00  1.00000000E+00  1.00000000E+00
  1.00000000E+00  1.00000000E+00  1.00000000E+00  1.00000000E+00  1.00000000E+00
  1.00000000E+00  2.00000000E+00  1.00000000E+00  0.00000000E+00  1.00000000E+00
  0.00000000E+00  0.00000000E+00  0.00000000E+00  1.00000000E+00  0.00000000E+00
  0.00000000E+00  0.00000000E+00  1.00000000E+00  0.00000000E+00  0.00000000E+00
  0.00000000E+00  1.00000000E+00  0.00000000E+00  0.00000000E+00  0.00000000E+00
  1.00000000E+00  0.00000000E+00  0.00000000E+00  0.00000000E+00  1.00000000E+00
  0.00000000E+00  0.00000000E+00  0.00000000E+00  1.00000000E+00  0.00000000E+00
  0.00000000E+00  0.00000000E+00
Virial Ratio                               R      2.000949617350472E+00
SCF Energy                                 R     -6.279538938550629E+02
MP2 Energy                                 R     -6.287807916340444E+02
Total Energy                               R     -6.287807916340444E+02
Post-SCF wavefunction norm                 R      1.604784860183083E+00
RMS Force                                  R      1.417528172962909E-06
RMS Density                                R      2.661616692806857E-09
External E-field                           R   N=          35
  0.00000000E+00  0.00000000E+00  0.00000000E+00  0.00000000E+00  0.00000000E+00
  0.00000000E+00  0.00000000E+00  0.00000000E+00  0.00000000E+00  0.00000000E+00
  0.00000000E+00  0.00000000E+00  0.00000000E+00  0.00000000E+00  0.00000000E+00
  0.00000000E+00  0.00000000E+00  0.00000000E+00  0.00000000E+00  0.00000000E+00
  0.00000000E+00  0.00000000E+00  0.00000000E+00  0.00000000E+00  0.00000000E+00
  0.00000000E+00  0.00000000E+00  0.00000000E+00  0.00000000E+00  0.00000000E+00
  0.00000000E+00  0.00000000E+00  0.00000000E+00  0.00000000E+00  0.00000000E+00
IOpCl                                      I                0
IROHF                                      I                0
Alpha Orbital Energies                     R   N=         108
 -9.16758739E+01 -2.03381903E+01 -1.11484574E+01 -1.10799826E+01 -1.10799566E+01
 -1.10751979E+01 -8.68638672E+00 -6.36997907E+00 -6.36734887E+00 -6.36653265E+00
 -1.15829657E+00 -9.24004899E-01 -7.93156642E-01 -7.65344773E-01 -6.55979613E-01
 -5.30044516E-01 -4.70194373E-01 -4.52038509E-01 -4.28479604E-01 -4.02754422E-01
 -3.73684642E-01 -3.54388445E-01 -3.49204660E-01 -3.20728381E-01 -3.01172877E-01
 -1.90525927E-01 -1.25503218E-01 -1.16199990E-01  3.44963945E-01  3.71180637E-01
  4.23133407E-01  4.26766992E-01  4.36057179E-01  4.61220146E-01  4.75214860E-01
  4.78739678E-01  4.88914047E-01  5.20346292E-01  5.87792574E-01  5.96404276E-01
  6.19423793E-01  7.07805546E-01  7.66232376E-01  8.11069224E-01  8.36301477E-01
  8.68038592E-01  8.83118848E-01  9.21894734E-01  9.41885087E-01  1.01972420E+00
  1.05024738E+00  1.09028460E+00  1.11501911E+00  1.12291814E+00  1.15962843E+00
  1.17091769E+00  1.21391021E+00  1.26451474E+00  1.29350905E+00  1.30505250E+00
  1.31291938E+00  1.31757863E+00  1.32176627E+00  1.32536169E+00  1.35326767E+00
  1.36459469E+00  1.37966235E+00  1.40102694E+00  1.47013904E+00  1.52210855E+00
  1.54037358E+00  1.55792650E+00  1.64109092E+00  1.69275553E+00  1.78268056E+00
  1.82431232E+00  1.86893999E+00  1.99243248E+00  2.05729487E+00  2.17375027E+00
  2.24051271E+00  2.24881898E+00  2.32007045E+00  2.35586621E+00  2.36951623E+00
  2.42430787E+00  2.46759605E+00  2.53293400E+00  2.56698853E+00  2.65958178E+00
  2.68017530E+00  2.72160713E+00  2.72877741E+00  2.77832466E+00  2.86370657E+00
  2.95160555E+00  3.02235167E+00  3.06277100E+00  3.19332717E+00  3.21988386E+00
  3.36252427E+00  3.52253146E+00  4.55566913E+00  4.58908217E+00  4.75112934E+00
  4.85074156E+00  4.90112818E+00  5.19757372E+00
Alpha MO coefficients                      R   N=       11664
  9.96255676E-01  1.42556378E-02  7.20119664E-05 -2.18886743E-08  3.03788862E-05
 -1.99738413E-02 -1.76495396E-04  4.00466736E-08 -5.60638964E-05  2.29931653E-03
  3.88310034E-05 -1.29767769E-08  1.89304546E-05  6.88275231E-03  6.90958395E-03
  6.92214253E-03  3.15132961E-09 -4.63564496E-06 -1.05371820E-08 -2.31283303E-05
 -1.03128126E-04 -6.73486713E-06 -1.19607387E-08  1.70315180E-05  7.19149480E-04
  1.13546244E-04  1.67631132E-07 -2.38692007E-04 -9.33936448E-05 -7.45564554E-05
 -2.26527114E-05  3.43537916E-08 -4.76255558E-05 -4.18796352E-08 -6.64868967E-06
 -6.18737640E-06 -1.93334258E-05  2.15889658E-10 -1.69954948E-06  2.52146246E-04
  3.87715292E-04 -1.40567784E-07  2.25872771E-04 -6.37943779E-05 -5.27825218E-06
  7.06977564E-06  2.92609849E-09 -3.69768399E-06 -1.08053255E-08 -2.91800683E-06
 -1.06431110E-05  1.74311996E-06  4.49998058E-06  1.86254514E-06 -9.34095071E-05
 -4.93604178E-05  1.56278174E-04 -7.01725734E-07  7.98258620E-06 -2.43945289E-05
 -3.53969898E-08  1.95847859E-06 -2.80659970E-07 -2.14515650E-06 -2.91979251E-06
 -1.06500821E-05  1.74875956E-06 -4.50517509E-06  1.85407700E-06 -9.33993253E-05
 -4.93692019E-05 -1.56265481E-04 -8.87012636E-07  7.98182006E-06 -2.44012233E-05
 -3.60229210E-08 -1.95543499E-06 -2.81312564E-07  2.10764461E-06  1.13089342E-05
  9.91904301E-05 -3.09695811E-05  1.88011949E-08 -2.89734943E-05 -3.24894671E-04
 -4.40056618E-04  4.44065065E-07 -6.11418908E-04 -3.98249614E-05  4.00977893E-06
 -1.78276923E-05  6.04983567E-08 -8.39341588E-05  1.91876457E-08  3.71252117E-05
 -2.78945540E-05 -7.60347102E-07  2.05814378E-05  2.61597823E-06  2.39104888E-05
  1.49496888E-05 -1.25217640E-04 -7.60367105E-07  2.05606915E-05  2.61843793E-06
  2.39256265E-05  1.49389385E-05 -1.25188021E-04  1.72361044E-07  2.65800490E-06
  8.03069390E-07 -2.79735927E-09  4.05700675E-06  1.61559622E-05 -1.42894696E-05
  3.23938342E-09 -5.10799826E-06 -1.66372457E-04 -1.09061836E-04  2.08727673E-08
 -2.88751596E-05  1.02791664E-05 -1.28818145E-06 -1.23202268E-05  8.55651207E-09
 -1.27554668E-05  8.90123610E-09  9.94697455E-01  2.09527818E-02 -1.96820116E-04
  9.68420409E-07 -1.35535574E-03  4.29157994E-03  5.27917384E-06 -1.10068573E-07
  1.49660093E-04 -3.87335923E-03 -4.09251041E-03 -3.73451055E-03 -1.85743802E-08
  2.27048965E-05 -2.94621754E-07 -5.38498669E-06  8.32135916E-06  2.85140585E-05
  2.87160912E-08 -3.99017829E-05  2.61695954E-05  1.75932263E-04  5.75128054E-09
  3.73232566E-07 -2.16477811E-05 -1.69194179E-05 -6.32508513E-05 -2.36342332E-08
  3.21983919E-05  3.76536258E-08  4.84737294E-06  1.56249205E-05 -1.96065849E-05
  5.18183906E-07  9.87607162E-07 -7.71197031E-05  1.01694705E-04  5.64139703E-05
  1.50812237E-05  1.14216912E-05 -1.21941803E-06  9.01931748E-06 -4.16280402E-06
  1.17712883E-06  7.11485825E-07  4.84594223E-06  1.56226551E-05 -1.96060113E-05
 -5.23247574E-07  9.85460837E-07 -7.70893160E-05  1.01701646E-04 -5.64211530E-05
  1.50171590E-05  1.14175975E-05 -1.22139461E-06  9.01324207E-06  4.16308862E-06
  1.18470833E-06 -7.27428343E-07 -1.08992970E-05  4.66656482E-04  1.55944569E-08
 -5.53528661E-08  7.60793220E-05  4.33341350E-05  1.92472245E-05  3.63043479E-07
 -5.01349799E-04 -9.42193165E-05 -7.35330869E-05 -6.04123486E-04  8.97669978E-08
 -1.24872714E-04  4.37553828E-07  6.12562628E-07  1.48597663E-05  2.57120044E-05
 -8.66788740E-05 -4.76038559E-06 -4.08042831E-05  1.00660974E-05  2.34594103E-05
  2.57116666E-05 -8.67043137E-05 -4.76116368E-06 -4.08061546E-05  1.00660066E-05
  2.34582307E-05 -4.57680450E-06 -2.76797582E-06 -1.47992120E-05 -9.67829718E-09
  1.18926421E-05  4.28977899E-04  2.55995120E-04 -6.45221738E-09  1.53054671E-05
  2.66023588E-03  1.63910161E-03 -4.41264803E-07  6.03150080E-04 -2.46862705E-04
 -1.14927449E-04 -3.08963646E-04  1.04301579E-07 -1.38974344E-04  1.63362894E-07
 -2.84370238E-04  2.86170095E-04 -5.26723184E-05  1.13100380E-07 -1.63263987E-04
 -8.93749672E-04  3.17160751E-04 -6.88210228E-07  9.96278139E-04  2.82416234E-05
  2.15051127E-04 -2.94620870E-04  5.42630167E-08 -7.21501623E-05  4.13495869E-07
  3.75520485E-03  5.65058751E-04 -3.59300668E-05 -6.51541783E-08  1.05611677E-04
  9.31346802E-04 -1.77365356E-03  4.25613505E-07 -8.67743348E-04 -2.94301280E-04
 -1.41337517E-04 -2.13906560E-04 -1.78302944E-07  2.51488159E-04  6.57426519E-08
 -1.02667718E-04 -3.16058721E-04  1.18260336E-04 -1.75276587E-06 -5.84853026E-05
  1.37083776E-03 -8.23134868E-04 -5.41717943E-04  5.77332202E-04 -4.36109331E-05
 -1.29952331E-05 -8.56139998E-05  6.64831208E-05 -4.13242051E-05 -4.20360152E-05
 -1.02657817E-04 -3.16022281E-04  1.18249616E-04  1.83902400E-06 -5.84756534E-05
  1.37064440E-03 -8.23042670E-04  5.40849882E-04  5.78022943E-04 -4.35989969E-05
 -1.30931839E-05 -8.55028433E-05 -6.64253376E-05 -4.14211344E-05  4.21412976E-05
  9.95982176E-01  2.61470278E-02  2.76591300E-04 -2.54555088E-07  3.79684777E-04
 -9.71621741E-03  1.69349041E-04 -1.88803656E-06  2.58380775E-03 -1.35824818E-03
 -1.95987354E-03 -6.16354918E-04 -1.52593715E-07  2.12835107E-04 -1.11494161E-06
 -1.27612823E-04 -7.90269500E-04 -1.38184863E-04 -2.73447866E-04  2.22573648E-05
  4.34567343E-04 -1.40927007E-04 -2.29408512E-05 -1.38164235E-04 -2.73454999E-04
  2.22557729E-05  4.34517141E-04 -1.40915559E-04 -2.28822049E-05  1.90311902E-06
  2.60761642E-05 -1.42229632E-05 -1.03924465E-07 -9.09820665E-06  7.47087878E-05
  1.13648025E-04  8.20871912E-07  6.43800905E-05  2.61637247E-04  6.21817811E-05
 -4.44943915E-06  1.27551474E-04  4.05550213E-05  4.07522411E-05  7.08665586E-05
 -1.02005278E-06  2.54474630E-05 -7.94371084E-08  2.91422224E-05  1.39410806E-04
 -1.31366992E-05 -1.03254230E-06  2.02635312E-05 -1.25571015E-03 -1.94154049E-04
  1.67093184E-07  2.85318077E-04  8.13184800E-05  1.47636806E-05  9.82229818E-05
  6.59056263E-07  4.24573069E-05 -1.83826432E-07  8.89856014E-02  2.93381128E-03
  1.54867671E-04  2.25736087E-06  4.91527284E-05  1.33403811E-03  9.43022191E-04
  5.21449333E-05 -8.17249336E-04 -4.45306354E-04 -5.90153179E-04 -2.63984665E-04
 -4.84369380E-06  9.39743023E-06 -2.32529593E-06  7.17980597E-01  2.03213587E-02
 -5.08354951E-05  3.16264055E-05 -3.57047006E-05 -9.63859321E-03  5.25953763E-04
 -2.53827898E-04  9.73458340E-05 -1.35551354E-03 -1.29084296E-03 -1.33854178E-03
 -4.23909458E-05 -7.75294702E-06 -4.26766895E-05  6.84110979E-01  1.93459473E-02
 -5.39229986E-05 -3.61741917E-05 -3.50834381E-05 -9.09606325E-03  5.24074251E-04
  2.97027723E-04  1.04743224E-04 -1.29705016E-03 -1.22962650E-03 -1.28145341E-03
  4.15831209E-05 -6.88074414E-06  4.24212758E-05 -3.62365813E-04 -4.14762901E-04
 -1.71636542E-04 -1.23115661E-06 -8.29727586E-06  2.22965970E-03  1.71703191E-03
  4.86552023E-06  4.54980208E-04 -4.32394300E-05 -1.22951697E-04 -1.25451202E-04
  2.82140170E-06 -1.45730461E-05  7.97664915E-07 -2.31640141E-04  4.30052541E-05
  5.91684265E-05  1.65602337E-03 -1.31292993E-06  1.49401855E-03  9.97239497E-05
  2.12205048E-03  5.04028002E-05  1.55460628E-03 -7.22036466E-06  1.39832148E-03
  9.54650341E-05  2.05197377E-03  4.58246894E-08  6.23728689E-07 -3.43886404E-07
  4.62405605E-06 -2.16429276E-07  1.79112511E-06  2.74096971E-06 -3.61968078E-05
  1.52879107E-06  6.33907539E-06  1.52101024E-06  1.80568191E-04  3.20545223E-06
  9.78027667E-07  9.70266098E-07  1.70382842E-06  4.14131447E-05  6.44473411E-07
  2.13493906E-06  6.89014632E-07  3.29594050E-06 -3.21778766E-07  4.25656001E-05
  5.30301192E-07 -2.99290642E-05 -4.66162222E-06 -1.67009249E-05  6.74300646E-06
  1.91863947E-06  3.05768826E-07  2.34837289E-06 -2.88670798E-05  9.93003621E-07
  5.06458869E-06  2.15288005E-03  7.09251888E-05  3.72533038E-06 -9.48537757E-05
  1.13066444E-06  3.18959150E-05  2.27687005E-05 -2.14194393E-03 -2.10869522E-05
 -1.07433162E-05 -1.42937428E-05 -6.26249927E-06  2.01403495E-04  3.51987106E-07
  8.63500305E-05 -6.87082830E-01 -1.97958382E-02 -6.54896386E-05  9.60398709E-05
  1.33241394E-05  1.10496013E-02 -2.53534760E-05 -9.05765984E-04  1.47911081E-04
  1.18345236E-03  1.24395680E-03  1.15306977E-03  1.57084988E-05  1.68421726E-05
  5.89007393E-06  7.20811300E-01  2.07500645E-02  6.29613770E-05  9.44308537E-05
 -1.49107634E-05 -1.15001195E-02  5.06413695E-05 -8.92276845E-04 -1.44227825E-04
 -1.24727515E-03 -1.30461762E-03 -1.21608828E-03  1.77583225E-05 -1.71761925E-05