98452                                                                   
Freq      RMP2-FC                                                     6-31G(d)            
Number of atoms                            I               16
Info1-9                                    I   N=           9
          28          26        1002           0           0         100
           6           2           1
Charge                                     I                0
Multiplicity                               I                1
Number of electrons                        I               62
Number of alpha electrons                  I               31
Number of beta electrons                   I               31
Number of basis functions                  I              136
Number of independent functions            I              136
Number of point charges in /Mol/           I                0
Number of translation vectors              I                0
Atomic numbers                             I   N=          16
           8           8           8           6           6           6
           6           6           1           1           1           1
           1           1           1           1
Nuclear charges                            R   N=          16
  8.00000000E+00  8.00000000E+00  8.00000000E+00  6.00000000E+00  6.00000000E+00
  6.00000000E+00  6.00000000E+00  6.00000000E+00  1.00000000E+00  1.00000000E+00
  1.00000000E+00  1.00000000E+00  1.00000000E+00  1.00000000E+00  1.00000000E+00
  1.00000000E+00
Current cartesian coordinates              R   N=          48
  1.24310667E+00 -2.65283258E+00 -1.60243565E-02 -3.66622413E+00  2.12108220E+00
  4.28240423E-01 -2.92578979E+00 -2.73731375E+00 -7.65980976E-01  7.43512050E-01
  2.71741542E+00 -6.59190556E-01  3.34662519E+00  1.40281539E+00 -6.76255105E-01
 -1.20966707E+00  1.16491515E+00  8.12101608E-01  3.28995371E+00 -1.04249270E+00
  8.37238140E-01 -1.07172116E+00 -1.57172502E+00 -4.48371055E-02  8.28348744E-01
  4.61190407E+00  1.61176288E-01  4.17717091E-03  2.92832199E+00 -2.57749735E+00
  3.90350703E+00  9.44069557E-01 -2.61307878E+00  4.82315405E+00  2.62608677E+00
  1.02627026E-01 -7.52786138E-01  1.21818417E+00  2.84286743E+00  4.98813589E+00
 -2.17446969E+00  5.49115726E-01  3.07924664E+00 -6.94940375E-01  2.86706761E+00
 -4.67474175E+00  6.67787068E-01 -1.16500562E-01
Force Field                                I                0
Int Atom Types                             I   N=          16
           0           0           0           0           0           0
           0           0           0           0           0           0
           0           0           0           0
MM charges                                 R   N=          16
  0.00000000E+00  0.00000000E+00  0.00000000E+00  0.00000000E+00  0.00000000E+00
  0.00000000E+00  0.00000000E+00  0.00000000E+00  0.00000000E+00  0.00000000E+00
  0.00000000E+00  0.00000000E+00  0.00000000E+00  0.00000000E+00  0.00000000E+00
  0.00000000E+00
Integer atomic weights                     I   N=          16
          16          16          16          12          12          12
          12          12           1           1           1           1
           1           1           1           1
Real atomic weights                        R   N=          16
  1.59949146E+01  1.59949146E+01  1.59949146E+01  1.20000000E+01  1.20000000E+01
  1.20000000E+01  1.20000000E+01  1.20000000E+01  1.00782504E+00  1.00782504E+00
  1.00782504E+00  1.00782504E+00  1.00782504E+00  1.00782504E+00  1.00782504E+00
  1.00782504E+00
Atom fragment info                         I   N=          16
           0           0           0           0           0           0
           0           0           0           0           0           0
           0           0           0           0
Atom residue num                           I   N=          16
           0           0           0           0           0           0
           0           0           0           0           0           0
           0           0           0           0
Nuclear spins                              I   N=          16
           0           0           0           0           0           0
           0           0           1           1           1           1
           1           1           1           1
Nuclear ZEff                               R   N=          16
 -5.60000000E+00 -5.60000000E+00 -5.60000000E+00 -3.60000000E+00 -3.60000000E+00
 -3.60000000E+00 -3.60000000E+00 -3.60000000E+00 -1.00000000E+00 -1.00000000E+00
 -1.00000000E+00 -1.00000000E+00 -1.00000000E+00 -1.00000000E+00 -1.00000000E+00
 -1.00000000E+00
Nuclear QMom                               R   N=          16
  0.00000000E+00  0.00000000E+00  0.00000000E+00  0.00000000E+00  0.00000000E+00
  0.00000000E+00  0.00000000E+00  0.00000000E+00  0.00000000E+00  0.00000000E+00
  0.00000000E+00  0.00000000E+00  0.00000000E+00  0.00000000E+00  0.00000000E+00
  0.00000000E+00
Nuclear GFac                               R   N=          16
  0.00000000E+00  0.00000000E+00  0.00000000E+00  0.00000000E+00  0.00000000E+00
  0.00000000E+00  0.00000000E+00  0.00000000E+00  2.79284600E+00  2.79284600E+00
  2.79284600E+00  2.79284600E+00  2.79284600E+00  2.79284600E+00  2.79284600E+00
  2.79284600E+00
MicOpt                                     I   N=          16
          -1          -1          -1          -1          -1          -1
          -1          -1          -1          -1          -1          -1
          -1          -1          -1          -1
Number of contracted shells                I               48
Number of primitive shells                 I              120
Pure/Cartesian d shells                    I                1
Pure/Cartesian f shells                    I                0
Highest angular momentum                   I                2
Largest degree of contraction              I                6
Shell types                                I   N=          48
           0          -1          -1           2           0          -1
          -1           2           0          -1          -1           2
           0          -1          -1           2           0          -1
          -1           2           0          -1          -1           2
           0          -1          -1           2           0          -1
          -1           2           0           0           0           0
           0           0           0           0           0           0
           0           0           0           0           0           0
Number of primitives per shell             I   N=          48
           6           3           1           1           6           3
           1           1           6           3           1           1
           6           3           1           1           6           3
           1           1           6           3           1           1
           6           3           1           1           6           3
           1           1           3           1           3           1
           3           1           3           1           3           1
           3           1           3           1           3           1
Shell to atom map                          I   N=          48
           1           1           1           1           2           2
           2           2           3           3           3           3
           4           4           4           4           5           5
           5           5           6           6           6           6
           7           7           7           7           8           8
           8           8           9           9          10          10
          11          11          12          12          13          13
          14          14          15          15          16          16
Primitive exponents                        R   N=         120
  5.48467166E+03  8.25234946E+02  1.88046958E+02  5.29645000E+01  1.68975704E+01
  5.79963534E+00  1.55396162E+01  3.59993359E+00  1.01376175E+00  2.70005823E-01
  8.00000000E-01  5.48467166E+03  8.25234946E+02  1.88046958E+02  5.29645000E+01
  1.68975704E+01  5.79963534E+00  1.55396162E+01  3.59993359E+00  1.01376175E+00
  2.70005823E-01  8.00000000E-01  5.48467166E+03  8.25234946E+02  1.88046958E+02
  5.29645000E+01  1.68975704E+01  5.79963534E+00  1.55396162E+01  3.59993359E+00
  1.01376175E+00  2.70005823E-01  8.00000000E-01  3.04752488E+03  4.57369518E+02
  1.03948685E+02  2.92101553E+01  9.28666296E+00  3.16392696E+00  7.86827235E+00
  1.88128854E+00  5.44249258E-01  1.68714478E-01  8.00000000E-01  3.04752488E+03
  4.57369518E+02  1.03948685E+02  2.92101553E+01  9.28666296E+00  3.16392696E+00
  7.86827235E+00  1.88128854E+00  5.44249258E-01  1.68714478E-01  8.00000000E-01
  3.04752488E+03  4.57369518E+02  1.03948685E+02  2.92101553E+01  9.28666296E+00
  3.16392696E+00  7.86827235E+00  1.88128854E+00  5.44249258E-01  1.68714478E-01
  8.00000000E-01  3.04752488E+03  4.57369518E+02  1.03948685E+02  2.92101553E+01
  9.28666296E+00  3.16392696E+00  7.86827235E+00  1.88128854E+00  5.44249258E-01
  1.68714478E-01  8.00000000E-01  3.04752488E+03  4.57369518E+02  1.03948685E+02
  2.92101553E+01  9.28666296E+00  3.16392696E+00  7.86827235E+00  1.88128854E+00
  5.44249258E-01  1.68714478E-01  8.00000000E-01  1.87311370E+01  2.82539436E+00
  6.40121692E-01  1.61277759E-01  1.87311370E+01  2.82539436E+00  6.40121692E-01
  1.61277759E-01  1.87311370E+01  2.82539436E+00  6.40121692E-01  1.61277759E-01
  1.87311370E+01  2.82539436E+00  6.40121692E-01  1.61277759E-01  1.87311370E+01
  2.82539436E+00  6.40121692E-01  1.61277759E-01  1.87311370E+01  2.82539436E+00
  6.40121692E-01  1.61277759E-01  1.87311370E+01  2.82539436E+00  6.40121692E-01
  1.61277759E-01  1.87311370E+01  2.82539436E+00  6.40121692E-01  1.61277759E-01
Contraction coefficients                   R   N=         120
  1.83107443E-03  1.39501722E-02  6.84450781E-02  2.32714336E-01  4.70192898E-01
  3.58520853E-01 -1.10777550E-01 -1.48026263E-01  1.13076702E+00  1.00000000E+00
  1.00000000E+00  1.83107443E-03  1.39501722E-02  6.84450781E-02  2.32714336E-01
  4.70192898E-01  3.58520853E-01 -1.10777550E-01 -1.48026263E-01  1.13076702E+00
  1.00000000E+00  1.00000000E+00  1.83107443E-03  1.39501722E-02  6.84450781E-02
  2.32714336E-01  4.70192898E-01  3.58520853E-01 -1.10777550E-01 -1.48026263E-01
  1.13076702E+00  1.00000000E+00  1.00000000E+00  1.83473713E-03  1.40373228E-02
  6.88426223E-02  2.32184443E-01  4.67941348E-01  3.62311985E-01 -1.19332420E-01
 -1.60854152E-01  1.14345644E+00  1.00000000E+00  1.00000000E+00  1.83473713E-03
  1.40373228E-02  6.88426223E-02  2.32184443E-01  4.67941348E-01  3.62311985E-01
 -1.19332420E-01 -1.60854152E-01  1.14345644E+00  1.00000000E+00  1.00000000E+00
  1.83473713E-03  1.40373228E-02  6.88426223E-02  2.32184443E-01  4.67941348E-01
  3.62311985E-01 -1.19332420E-01 -1.60854152E-01  1.14345644E+00  1.00000000E+00
  1.00000000E+00  1.83473713E-03  1.40373228E-02  6.88426223E-02  2.32184443E-01
  4.67941348E-01  3.62311985E-01 -1.19332420E-01 -1.60854152E-01  1.14345644E+00
  1.00000000E+00  1.00000000E+00  1.83473713E-03  1.40373228E-02  6.88426223E-02
  2.32184443E-01  4.67941348E-01  3.62311985E-01 -1.19332420E-01 -1.60854152E-01
  1.14345644E+00  1.00000000E+00  1.00000000E+00  3.34946043E-02  2.34726953E-01
  8.13757326E-01  1.00000000E+00  3.34946043E-02  2.34726953E-01  8.13757326E-01
  1.00000000E+00  3.34946043E-02  2.34726953E-01  8.13757326E-01  1.00000000E+00
  3.34946043E-02  2.34726953E-01  8.13757326E-01  1.00000000E+00  3.34946043E-02
  2.34726953E-01  8.13757326E-01  1.00000000E+00  3.34946043E-02  2.34726953E-01
  8.13757326E-01  1.00000000E+00  3.34946043E-02  2.34726953E-01  8.13757326E-01
  1.00000000E+00  3.34946043E-02  2.34726953E-01  8.13757326E-01  1.00000000E+00
P(S=P) Contraction coefficients            R   N=         120
  0.00000000E+00  0.00000000E+00  0.00000000E+00  0.00000000E+00  0.00000000E+00
  0.00000000E+00  7.08742682E-02  3.39752839E-01  7.27158577E-01  1.00000000E+00
  0.00000000E+00  0.00000000E+00  0.00000000E+00  0.00000000E+00  0.00000000E+00
  0.00000000E+00  0.00000000E+00  7.08742682E-02  3.39752839E-01  7.27158577E-01
  1.00000000E+00  0.00000000E+00  0.00000000E+00  0.00000000E+00  0.00000000E+00
  0.00000000E+00  0.00000000E+00  0.00000000E+00  7.08742682E-02  3.39752839E-01
  7.27158577E-01  1.00000000E+00  0.00000000E+00  0.00000000E+00  0.00000000E+00
  0.00000000E+00  0.00000000E+00  0.00000000E+00  0.00000000E+00  6.89990666E-02
  3.16423961E-01  7.44308291E-01  1.00000000E+00  0.00000000E+00  0.00000000E+00
  0.00000000E+00  0.00000000E+00  0.00000000E+00  0.00000000E+00  0.00000000E+00
  6.89990666E-02  3.16423961E-01  7.44308291E-01  1.00000000E+00  0.00000000E+00
  0.00000000E+00  0.00000000E+00  0.00000000E+00  0.00000000E+00  0.00000000E+00
  0.00000000E+00  6.89990666E-02  3.16423961E-01  7.44308291E-01  1.00000000E+00
  0.00000000E+00  0.00000000E+00  0.00000000E+00  0.00000000E+00  0.00000000E+00
  0.00000000E+00  0.00000000E+00  6.89990666E-02  3.16423961E-01  7.44308291E-01
  1.00000000E+00  0.00000000E+00  0.00000000E+00  0.00000000E+00  0.00000000E+00
  0.00000000E+00  0.00000000E+00  0.00000000E+00  6.89990666E-02  3.16423961E-01
  7.44308291E-01  1.00000000E+00  0.00000000E+00  0.00000000E+00  0.00000000E+00
  0.00000000E+00  0.00000000E+00  0.00000000E+00  0.00000000E+00  0.00000000E+00
  0.00000000E+00  0.00000000E+00  0.00000000E+00  0.00000000E+00  0.00000000E+00
  0.00000000E+00  0.00000000E+00  0.00000000E+00  0.00000000E+00  0.00000000E+00
  0.00000000E+00  0.00000000E+00  0.00000000E+00  0.00000000E+00  0.00000000E+00
  0.00000000E+00  0.00000000E+00  0.00000000E+00  0.00000000E+00  0.00000000E+00
  0.00000000E+00  0.00000000E+00  0.00000000E+00  0.00000000E+00  0.00000000E+00
Coordinates of each shell                  R   N=         144
  1.24310667E+00 -2.65283258E+00 -1.60243565E-02  1.24310667E+00 -2.65283258E+00
 -1.60243565E-02  1.24310667E+00 -2.65283258E+00 -1.60243565E-02  1.24310667E+00
 -2.65283258E+00 -1.60243565E-02 -3.66622413E+00  2.12108220E+00  4.28240423E-01
 -3.66622413E+00  2.12108220E+00  4.28240423E-01 -3.66622413E+00  2.12108220E+00
  4.28240423E-01 -3.66622413E+00  2.12108220E+00  4.28240423E-01 -2.92578979E+00
 -2.73731375E+00 -7.65980976E-01 -2.92578979E+00 -2.73731375E+00 -7.65980976E-01
 -2.92578979E+00 -2.73731375E+00 -7.65980976E-01 -2.92578979E+00 -2.73731375E+00
 -7.65980976E-01  7.43512050E-01  2.71741542E+00 -6.59190556E-01  7.43512050E-01
  2.71741542E+00 -6.59190556E-01  7.43512050E-01  2.71741542E+00 -6.59190556E-01
  7.43512050E-01  2.71741542E+00 -6.59190556E-01  3.34662519E+00  1.40281539E+00
 -6.76255105E-01  3.34662519E+00  1.40281539E+00 -6.76255105E-01  3.34662519E+00
  1.40281539E+00 -6.76255105E-01  3.34662519E+00  1.40281539E+00 -6.76255105E-01
 -1.20966707E+00  1.16491515E+00  8.12101608E-01 -1.20966707E+00  1.16491515E+00
  8.12101608E-01 -1.20966707E+00  1.16491515E+00  8.12101608E-01 -1.20966707E+00
  1.16491515E+00  8.12101608E-01  3.28995371E+00 -1.04249270E+00  8.37238140E-01
  3.28995371E+00 -1.04249270E+00  8.37238140E-01  3.28995371E+00 -1.04249270E+00
  8.37238140E-01  3.28995371E+00 -1.04249270E+00  8.37238140E-01 -1.07172116E+00
 -1.57172502E+00 -4.48371055E-02 -1.07172116E+00 -1.57172502E+00 -4.48371055E-02
 -1.07172116E+00 -1.57172502E+00 -4.48371055E-02 -1.07172116E+00 -1.57172502E+00
 -4.48371055E-02  8.28348744E-01  4.61190407E+00  1.61176288E-01  8.28348744E-01
  4.61190407E+00  1.61176288E-01  4.17717091E-03  2.92832199E+00 -2.57749735E+00
  4.17717091E-03  2.92832199E+00 -2.57749735E+00  3.90350703E+00  9.44069557E-01
 -2.61307878E+00  3.90350703E+00  9.44069557E-01 -2.61307878E+00  4.82315405E+00
  2.62608677E+00  1.02627026E-01  4.82315405E+00  2.62608677E+00  1.02627026E-01
 -7.52786138E-01  1.21818417E+00  2.84286743E+00 -7.52786138E-01  1.21818417E+00
  2.84286743E+00  4.98813589E+00 -2.17446969E+00  5.49115726E-01  4.98813589E+00
 -2.17446969E+00  5.49115726E-01  3.07924664E+00 -6.94940375E-01  2.86706761E+00
  3.07924664E+00 -6.94940375E-01  2.86706761E+00 -4.67474175E+00  6.67787068E-01
 -1.16500562E-01 -4.67474175E+00  6.67787068E-01 -1.16500562E-01
Constraint Structure                       R   N=          48
  1.24310667E+00 -2.65283258E+00 -1.60243565E-02 -3.66622413E+00  2.12108220E+00
  4.28240423E-01 -2.92578979E+00 -2.73731375E+00 -7.65980976E-01  7.43512050E-01
  2.71741542E+00 -6.59190556E-01  3.34662519E+00  1.40281539E+00 -6.76255105E-01
 -1.20966707E+00  1.16491515E+00  8.12101608E-01  3.28995371E+00 -1.04249270E+00
  8.37238140E-01 -1.07172116E+00 -1.57172502E+00 -4.48371055E-02  8.28348744E-01
  4.61190407E+00  1.61176288E-01  4.17717091E-03  2.92832199E+00 -2.57749735E+00
  3.90350703E+00  9.44069557E-01 -2.61307878E+00  4.82315405E+00  2.62608677E+00
  1.02627026E-01 -7.52786138E-01  1.21818417E+00  2.84286743E+00  4.98813589E+00
 -2.17446969E+00  5.49115726E-01  3.07924664E+00 -6.94940375E-01  2.86706761E+00
 -4.67474175E+00  6.67787068E-01 -1.16500562E-01
Num ILSW                                   I              100
ILSW                                       I   N=         100
           0           1           0           1           2           0
           0           0           0           0           0          -1
           0           0           0           0           0           0
           0           0           0           0           1           0
           1           0           0           0           0           0
           0           0      100000           0          -1           0
           0           0           0           0           0           0
           0           0           0           1           1           0
           0           0           1           0           0           0
           0           0           4          40           0           0
           0           0           0           0           0           0
           0           0           0           0           0           0
           0           0           0           0           0           0
           0           0           0           0           0           0
           0           0           0           0           0           0
           0           0           0           0           0           0
           0           0           0           0
Num RLSW                                   I               40
RLSW                                       R   N=          40
  1.00000000E+00  1.00000000E+00  1.00000000E+00  1.00000000E+00  1.00000000E+00
  0.00000000E+00  0.00000000E+00  1.00000000E+00  0.00000000E+00  0.00000000E+00
  0.00000000E+00  0.00000000E+00  1.00000000E+00  0.00000000E+00  0.00000000E+00
  0.00000000E+00  0.00000000E+00  1.00000000E+00  0.00000000E+00  0.00000000E+00
  0.00000000E+00  0.00000000E+00  1.00000000E+00  0.00000000E+00  0.00000000E+00
  0.00000000E+00  0.00000000E+00  1.00000000E+00  0.00000000E+00  0.00000000E+00
  0.00000000E+00  0.00000000E+00  0.00000000E+00  0.00000000E+00  0.00000000E+00
  0.00000000E+00  0.00000000E+00  0.00000000E+00  1.00000000E+00  1.00000000E+00
MxBond                                     I                4
NBond                                      I   N=          16
           2           2           1           4           4           4
           4           3           1           1           1           1
           1           1           1           1
IBond                                      I   N=          64
           7           8           0           0           6          16
           0           0           8           0           0           0
           5           6           9          10           4           7
          11          12           2           4           8          13
           1           5          14          15           1           3
           6           0           4           0           0           0
           4           0           0           0           5           0
           0           0           5           0           0           0
           6           0           0           0           7           0
           0           0           7           0           0           0
           2           0           0           0
RBond                                      R   N=          64
  1.00000000E+00  1.50000000E+00  0.00000000E+00  0.00000000E+00  1.00000000E+00
  1.00000000E+00  0.00000000E+00  0.00000000E+00  2.00000000E+00  0.00000000E+00
  0.00000000E+00  0.00000000E+00  1.00000000E+00  1.00000000E+00  1.00000000E+00
  1.00000000E+00  1.00000000E+00  1.00000000E+00  1.00000000E+00  1.00000000E+00
  1.00000000E+00  1.00000000E+00  1.00000000E+00  1.00000000E+00  1.00000000E+00
  1.00000000E+00  1.00000000E+00  1.00000000E+00  1.50000000E+00  2.00000000E+00
  1.00000000E+00  0.00000000E+00  1.00000000E+00  0.00000000E+00  0.00000000E+00
  0.00000000E+00  1.00000000E+00  0.00000000E+00  0.00000000E+00  0.00000000E+00
  1.00000000E+00  0.00000000E+00  0.00000000E+00  0.00000000E+00  1.00000000E+00
  0.00000000E+00  0.00000000E+00  0.00000000E+00  1.00000000E+00  0.00000000E+00
  0.00000000E+00  0.00000000E+00  1.00000000E+00  0.00000000E+00  0.00000000E+00
  0.00000000E+00  1.00000000E+00  0.00000000E+00  0.00000000E+00  0.00000000E+00
  1.00000000E+00  0.00000000E+00  0.00000000E+00  0.00000000E+00
Virial Ratio                               R      2.002560871244961E+00
SCF Energy                                 R     -4.185818244815928E+02
MP2 Energy                                 R     -4.197578240648360E+02
Total Energy                               R     -4.197578240648360E+02
Post-SCF wavefunction norm                 R      1.648814211686337E+00
RMS Force                                  R      6.697765603147650E-07
RMS Density                                R      1.613056742861206E-09
External E-field                           R   N=          35
  0.00000000E+00  0.00000000E+00  0.00000000E+00  0.00000000E+00  0.00000000E+00
  0.00000000E+00  0.00000000E+00  0.00000000E+00  0.00000000E+00  0.00000000E+00
  0.00000000E+00  0.00000000E+00  0.00000000E+00  0.00000000E+00  0.00000000E+00
  0.00000000E+00  0.00000000E+00  0.00000000E+00  0.00000000E+00  0.00000000E+00
  0.00000000E+00  0.00000000E+00  0.00000000E+00  0.00000000E+00  0.00000000E+00
  0.00000000E+00  0.00000000E+00  0.00000000E+00  0.00000000E+00  0.00000000E+00
  0.00000000E+00  0.00000000E+00  0.00000000E+00  0.00000000E+00  0.00000000E+00
IOpCl                                      I                0
IROHF                                      I                0
Alpha Orbital Energies                     R   N=         136
 -2.06243180E+01 -2.05691001E+01 -2.05646818E+01 -1.13958053E+01 -1.13153384E+01
 -1.13114377E+01 -1.12552721E+01 -1.12493155E+01 -1.46698583E+00 -1.38245095E+00
 -1.35563796E+00 -1.10363395E+00 -1.02529039E+00 -9.17903614E-01 -8.66609517E-01
 -7.58495745E-01 -7.43881466E-01 -7.08101481E-01 -6.88770953E-01 -6.39122840E-01
 -6.28642965E-01 -6.18497599E-01 -5.90588645E-01 -5.69471911E-01 -5.51440304E-01
 -5.29303253E-01 -5.14687123E-01 -4.98400134E-01 -4.65826859E-01 -4.45647944E-01
 -4.41052820E-01  1.63963211E-01  2.07593483E-01  2.31252290E-01  2.58228202E-01
  2.64705741E-01  2.86296486E-01  2.99507441E-01  3.19688162E-01  3.27145954E-01
  3.34225065E-01  3.74765756E-01  3.93421588E-01  4.23002876E-01  4.49432914E-01
  4.99010968E-01  5.37117663E-01  5.86860525E-01  6.98648706E-01  7.12243639E-01
  7.38356383E-01  7.65805957E-01  7.86057395E-01  8.08001239E-01  8.26291847E-01
  8.58863756E-01  8.78247474E-01  8.93253121E-01  9.08721103E-01  9.45221614E-01
  9.58876839E-01  9.97518744E-01  1.05742277E+00  1.08270951E+00  1.09528073E+00
  1.10191010E+00  1.10614201E+00  1.12436466E+00  1.13127049E+00  1.15563173E+00
  1.16885835E+00  1.20675603E+00  1.21770280E+00  1.25001321E+00  1.27119279E+00
  1.29346273E+00  1.32071684E+00  1.37178313E+00  1.41758788E+00  1.43526422E+00
  1.50618294E+00  1.52233691E+00  1.57147250E+00  1.62040578E+00  1.66167037E+00
  1.71344080E+00  1.73823010E+00  1.81046907E+00  1.89294121E+00  1.92858828E+00
  1.95758170E+00  1.96040053E+00  2.01645998E+00  2.04554503E+00  2.07687505E+00
  2.09533038E+00  2.10144826E+00  2.11771692E+00  2.16347990E+00  2.19098421E+00
  2.23122543E+00  2.26325397E+00  2.28675307E+00  2.30964926E+00  2.36646186E+00
  2.37220648E+00  2.40716893E+00  2.45806564E+00  2.50247729E+00  2.55129911E+00
  2.58823952E+00  2.63576252E+00  2.65535628E+00  2.72763592E+00  2.74705204E+00
  2.78055650E+00  2.79978898E+00  2.88166916E+00  2.88322961E+00  2.95549610E+00
  3.01464373E+00  3.05229713E+00  3.10635650E+00  3.13476006E+00  3.21872378E+00
  3.28319790E+00  3.41781136E+00  3.52225054E+00  4.27054668E+00  4.39723721E+00
  4.54693663E+00  4.69239550E+00  4.75817903E+00  4.80506544E+00  4.90017519E+00
  5.09562875E+00
Alpha MO coefficients                      R   N=       18496
  9.94660376E-01  2.12496366E-02 -2.84523650E-04  1.21236055E-03  3.57443560E-04
  3.69899729E-03 -4.82814734E-05 -8.55507921E-04 -2.89370998E-04 -4.11502689E-03
 -4.04674676E-03 -3.90631042E-03 -5.93720233E-05 -6.54173841E-05 -7.84775581E-05
  1.85266824E-05 -5.00965782E-06  3.74885241E-06  3.68892812E-06  2.34225229E-06
  1.97470750E-06  2.92149938E-06 -4.61954421E-05 -1.24764734E-05  1.08131874E-05
 -7.65169489E-06 -4.10796769E-06 -5.16957927E-07  3.82489482E-06 -3.33249784E-06
 -2.55769223E-04 -1.34777591E-04 -3.10310437E-05  1.12447146E-05 -3.77911913E-06
  9.67738541E-04  1.90984520E-04  7.60914035E-05  6.96287214E-05 -1.52616086E-04
 -6.23316988E-05 -8.79519660E-05  2.82821778E-05 -5.76497331E-07  1.87037134E-05
  4.48303145E-06  1.90954126E-05 -1.26032578E-05 -1.75524482E-05 -5.97004867E-06
  1.18969253E-04  7.85268601E-05  1.96609005E-05  1.56561413E-04  1.03712338E-05
 -1.70782776E-06  8.80910928E-06  1.57054463E-06  6.62927251E-06 -4.97827840E-06
  3.74004041E-06  6.56222062E-05  1.58938637E-05  4.19650510E-05  6.15595678E-07
 -3.37960548E-04  5.41757494E-05  4.68294014E-05 -2.27139959E-04 -1.87426129E-05
 -4.54234941E-05 -1.58278062E-05 -2.30314458E-05  5.92767057E-06  1.44796433E-05
  1.49869241E-05  1.20500157E-04 -3.05267473E-06  5.22800016E-05  2.00915914E-05
 -9.51753639E-04 -2.36407240E-04  4.01433510E-04  4.87537732E-05 -5.72490159E-06
 -5.26911767E-05  1.25442789E-06  4.97952240E-05  1.12149163E-05 -1.34109010E-05
 -1.92971144E-05  1.49856833E-04 -2.97739849E-04 -2.57568537E-04 -1.40757184E-04
  3.49947178E-04 -9.63455868E-05  3.64784005E-04  6.96288597E-05  7.38977502E-05
  2.28660535E-05 -1.12155630E-05  1.08914946E-04  6.44310159E-05  1.50877821E-05
 -2.14113604E-05  3.11431262E-04  3.19034711E-04 -1.81842648E-04 -2.50990229E-06
  1.28241557E-04  4.15106031E-04  1.01550511E-03  3.97234323E-04 -1.34722951E-04
 -3.92356132E-05 -7.51674369E-05  2.16503620E-05 -3.88340620E-06  2.01192069E-05
 -1.30639965E-05 -7.52643211E-05  1.51763183E-05  7.23074121E-05  5.71714074E-06
 -9.44972121E-05  2.97531083E-05  3.09590581E-05  5.45807468E-05  2.39296833E-05
  1.67912550E-05  3.65369465E-06 -6.18074973E-05 -1.29259547E-04 -1.47251416E-05
 -1.74677199E-05 -3.81812783E-05 -8.54103552E-05 -3.42286720E-06 -7.44888561E-06
 -1.58283343E-06  5.07051989E-04 -9.60617134E-05  1.52599163E-04  2.30407380E-05
 -2.48415902E-05 -4.82627205E-05 -5.77606921E-05 -2.03611260E-05 -1.50459755E-06
  6.00192724E-07  9.94656476E-01  2.12014018E-02  4.52146674E-04 -1.21418189E-03
 -1.38587140E-04  3.81001682E-03 -2.78140408E-04  6.47288224E-04  8.93637397E-05
 -4.17982990E-03 -4.05074879E-03 -3.86128735E-03  3.65080434E-05 -8.66924301E-05
 -4.98392651E-05 -8.35826977E-04  2.53742293E-05  1.02498926E-05 -1.14030017E-05
 -6.00348211E-07 -3.10412395E-04 -7.90692313E-05 -1.58756936E-05 -2.61717325E-05
  2.57555724E-05  1.29340842E-05  2.24994820E-05 -1.90600604E-06 -9.79386867E-07
 -2.78594735E-06  8.58816653E-07  5.00210954E-05  3.99994542E-06  2.00529120E-05
 -1.48261559E-05 -1.40036369E-04  2.83011229E-04  8.28070017E-05  3.06220058E-05
 -5.56874555E-05 -1.34135941E-05 -1.42590452E-05 -2.69737150E-05  5.46564016E-06
  1.90528882E-06  1.00526748E-06  4.17517872E-06  4.18538542E-06  6.66508044E-06
  7.07837092E-06 -6.54668114E-05  1.57638408E-05 -1.53701479E-04 -3.61817409E-05
 -1.25697356E-06  4.79872746E-06  6.52718575E-06  2.59740664E-07  3.37412245E-06
 -5.13303487E-06 -3.95845112E-05  1.71696475E-04 -3.43528219E-04  1.51371832E-04
 -4.03911467E-05  8.60689066E-04  1.50985840E-04 -4.11858906E-04 -2.97679703E-04
 -7.25086503E-06 -3.70867397E-05 -8.88421975E-05 -2.51326780E-05  7.97600162E-06
  1.33881165E-06  2.17300580E-06  1.69879236E-05  1.40710120E-05  1.04156444E-05
  3.80679544E-06 -1.54019469E-04  1.55076686E-05 -2.68973005E-05  5.70789360E-05
 -4.36680348E-06  1.82253028E-06 -8.82998112E-07 -5.88647816E-07 -2.62035553E-06
  5.30567843E-06  1.92524770E-06  6.68107832E-05  1.11706498E-05 -4.68106914E-05
 -8.65130686E-06 -5.64305695E-04 -4.28081189E-04 -3.19327460E-04 -1.48499937E-04
 -4.57436959E-05 -6.47768649E-05 -1.07382668E-05  4.50635770E-05  7.02202065E-06
 -4.60471676E-06  1.92725283E-05 -4.20333844E-05  3.83418416E-05  1.25561010E-05
 -1.08661487E-05 -1.54363703E-05  1.45120539E-05  4.31435285E-05 -2.94144302E-05
 -7.26950369E-06  8.24188925E-06  8.92166008E-06  1.22633289E-06  9.17250381E-06
  4.22935784E-04 -3.13125533E-04  2.03485199E-04 -1.04257427E-04  3.83039516E-05
 -6.41955407E-06  4.71696027E-06  4.63193693E-04 -1.16776133E-04  1.19932498E-04
  2.42830475E-05 -1.06739878E-04 -1.19396602E-05 -1.09922323E-04 -6.98848350E-05
 -2.20614123E-05  2.84051515E-05  8.38565690E-04 -3.37082227E-06  1.08706080E-05
  5.29302081E-06  6.24927885E-07  1.47430733E-04 -8.61974439E-05 -4.73571124E-05
 -1.85951975E-05 -3.22477803E-05 -2.34806733E-05 -1.92518985E-05  1.17330406E-05