
    -----------------------------------------------------------------------
          Psi4: An Open-Source Ab Initio Electronic Structure Package
                               Psi4 1.3.2 release

                         Git: Rev {HEAD} ecbda83 


    R. M. Parrish, L. A. Burns, D. G. A. Smith, A. C. Simmonett,
    A. E. DePrince III, E. G. Hohenstein, U. Bozkaya, A. Yu. Sokolov,
    R. Di Remigio, R. M. Richard, J. F. Gonthier, A. M. James,
    H. R. McAlexander, A. Kumar, M. Saitow, X. Wang, B. P. Pritchard,
    P. Verma, H. F. Schaefer III, K. Patkowski, R. A. King, E. F. Valeev,
    F. A. Evangelista, J. M. Turney, T. D. Crawford, and C. D. Sherrill,
    J. Chem. Theory Comput. 13(7) pp 3185--3197 (2017).
    (doi: 10.1021/acs.jctc.7b00174)


                         Additional Contributions by
    P. Kraus, H. Kruse, M. H. Lechner, M. C. Schieber, R. A. Shaw,
    A. Alenaizan, R. Galvelis, Z. L. Glick, S. Lehtola, and J. P. Misiewicz

    -----------------------------------------------------------------------


    Psi4 started on: Thursday, 05 November 2020 09:45PM

    Process ID: 19623
    Host:       node37.bme.utexas.edu
    PSIDATADIR: /home/xy3866/psi4conda/share/psi4
    Memory:     500.0 MiB
    Threads:    8
    
  ==> Input File <==

--------------------------------------------------------------------------
#psi4
#
memory 32 gb

molecule  {
0 1
  O        1.6287540    -0.6201880     1.1142450
  O       -2.7620560    -0.0348310     0.0798330
  O        2.1886480    -0.1218500    -1.0324370
  O       -0.8732870    -1.2159650    -0.3624810
  C        0.5918760     1.2475400     0.1132070
  C       -0.7452640     1.1476080     0.0762790
  C        1.5307310     0.0928540    -0.0315040
  C       -1.4234254    -0.1814909    -0.0977288
  H        1.0613430     2.2244020     0.1998120
  H       -1.3741190     2.0281690     0.1581920
  H        2.2467100    -1.3553630     0.9159410
  H       -3.1312110    -0.9325360    -0.0538740
units angstrom
no_reorient  #important for SAPT in psi4, default
symmetry c1  #important for SAPT in psi4, default
}

set PROPERTIES_ORIGIN ["COM"]
properties('MP2/aug-cc-pvtz', properties = ['dipole'])
--------------------------------------------------------------------------

  Memory set to  29.802 GiB by Python driver.
    SCF Algorithm Type (re)set to DF.

*** tstart() called on node37.bme.utexas.edu
*** at Thu Nov  5 21:45:54 2020

   => Loading Basis Set <=

    Name: AUG-CC-PVTZ
    Role: ORBITAL
    Keyword: BASIS
    atoms 1-4  entry O          line   327 file /home/xy3866/psi4conda/share/psi4/basis/aug-cc-pvtz.gbs 
    atoms 5-8  entry C          line   235 file /home/xy3866/psi4conda/share/psi4/basis/aug-cc-pvtz.gbs 
    atoms 9-12 entry H          line    36 file /home/xy3866/psi4conda/share/psi4/basis/aug-cc-pvtz.gbs 


         ---------------------------------------------------------
                                   SCF
               by Justin Turney, Rob Parrish, Andy Simmonett
                          and Daniel G. A. Smith
                              RHF Reference
                        8 Threads,  30517 MiB Core
         ---------------------------------------------------------

  ==> Geometry <==

    Molecular point group: c1
    Full point group: C1

    Geometry (in Angstrom), charge = 0, multiplicity = 1:

       Center              X                  Y                   Z               Mass       
    ------------   -----------------  -----------------  -----------------  -----------------
         O            1.618820596781    -0.601077470393     1.125103992740    15.994914619570
         O           -2.771989403219    -0.015720470393     0.090691992740    15.994914619570
         O            2.178714596781    -0.102739470393    -1.021578007260    15.994914619570
         O           -0.883220403219    -1.196854470393    -0.351622007260    15.994914619570
         C            0.581942596781     1.266650529607     0.124065992740    12.000000000000
         C           -0.755197403219     1.166718529607     0.087137992740    12.000000000000
         C            1.520797596781     0.111964529607    -0.020645007260    12.000000000000
         C           -1.433358803219    -0.162380370393    -0.086869807260    12.000000000000
         H            1.051409596781     2.243512529607     0.210670992740     1.007825032230
         H           -1.384052403219     2.047279529607     0.169050992740     1.007825032230
         H            2.236776596781    -1.336252470393     0.926799992740     1.007825032230
         H           -3.141144403219    -0.913425470393    -0.043015007260     1.007825032230

  Running in c1 symmetry.

  Rotational constants: A =      0.14384  B =      0.04496  C =      0.04097 [cm^-1]
  Rotational constants: A =   4312.16880  B =   1347.93459  C =   1228.30412 [MHz]
  Nuclear repulsion =  358.780675778356795

  Charge       = 0
  Multiplicity = 1
  Electrons    = 60
  Nalpha       = 30
  Nbeta        = 30

  ==> Algorithm <==

  SCF Algorithm Type is DF.
  DIIS enabled.
  MOM disabled.
  Fractional occupation disabled.
  Guess Type is SAD.
  Energy threshold   = 1.00e-10
  Density threshold  = 1.00e-10
  Integral threshold = 0.00e+00

  ==> Primary Basis <==

  Basis Set: AUG-CC-PVTZ
    Blend: AUG-CC-PVTZ
    Number of shells: 148
    Number of basis function: 460
    Number of Cartesian functions: 540
    Spherical Harmonics?: true
    Max angular momentum: 3

   => Loading Basis Set <=

    Name: (AUG-CC-PVTZ AUX)
    Role: JKFIT
    Keyword: DF_BASIS_SCF
    atoms 1-4  entry O          line   286 file /home/xy3866/psi4conda/share/psi4/basis/aug-cc-pvtz-jkfit.gbs 
    atoms 5-8  entry C          line   162 file /home/xy3866/psi4conda/share/psi4/basis/aug-cc-pvtz-jkfit.gbs 
    atoms 9-12 entry H          line    70 file /home/xy3866/psi4conda/share/psi4/basis/aug-cc-pvtz-jkfit.gbs 

  ==> Pre-Iterations <==

   -------------------------------------------------------
    Irrep   Nso     Nmo     Nalpha   Nbeta   Ndocc  Nsocc
   -------------------------------------------------------
     A        460     460       0       0       0       0
   -------------------------------------------------------
    Total     460     460      30      30      30       0
   -------------------------------------------------------

  ==> Integral Setup <==

  DFHelper Memory: AOs need 1.601 GiB; user supplied 22.352 GiB. Using in-core AOs.

  ==> MemDFJK: Density-Fitted J/K Matrices <==

    J tasked:                   Yes
    K tasked:                   Yes
    wK tasked:                   No
    OpenMP threads:               8
    Memory [MiB]:             22888
    Algorithm:                 Core
    Schwarz Cutoff:           1E-12
    Mask sparsity (%):       3.9773
    Fitting Condition:        1E-10

   => Auxiliary Basis Set <=

  Basis Set: (AUG-CC-PVTZ AUX)
    Blend: AUG-CC-PVTZ-JKFIT
    Number of shells: 296
    Number of basis function: 1016
    Number of Cartesian functions: 1268
    Spherical Harmonics?: true
    Max angular momentum: 4

  Minimum eigenvalue in the overlap matrix is 5.0579475359E-06.
  Using Symmetric Orthogonalization.

  SCF Guess: Superposition of Atomic Densities via on-the-fly atomic UHF.

  ==> Iterations <==

                           Total Energy        Delta E     RMS |[F,P]|

   @DF-RHF iter SAD:  -451.97403503905673   -4.51974e+02   0.00000e+00 
   @DF-RHF iter   1:  -453.18847351726879   -1.21444e+00   1.67607e-03 DIIS
   @DF-RHF iter   2:  -453.35785803261251   -1.69385e-01   1.06766e-03 DIIS
   @DF-RHF iter   3:  -453.43309957641497   -7.52415e-02   1.63477e-04 DIIS
   @DF-RHF iter   4:  -453.43647908495785   -3.37951e-03   7.57863e-05 DIIS
   @DF-RHF iter   5:  -453.43720517091333   -7.26086e-04   1.95159e-05 DIIS
   @DF-RHF iter   6:  -453.43729231924789   -8.71483e-05   9.89273e-06 DIIS
   @DF-RHF iter   7:  -453.43731812362716   -2.58044e-05   3.39913e-06 DIIS
   @DF-RHF iter   8:  -453.43732208848621   -3.96486e-06   1.13672e-06 DIIS
   @DF-RHF iter   9:  -453.43732244494379   -3.56458e-07   4.60942e-07 DIIS
   @DF-RHF iter  10:  -453.43732248639662   -4.14528e-08   1.84560e-07 DIIS
   @DF-RHF iter  11:  -453.43732249262467   -6.22805e-09   4.91935e-08 DIIS
   @DF-RHF iter  12:  -453.43732249323926   -6.14591e-10   1.70147e-08 DIIS
   @DF-RHF iter  13:  -453.43732249330782   -6.85532e-11   5.38356e-09 DIIS
   @DF-RHF iter  14:  -453.43732249331742   -9.60654e-12   2.89520e-09 DIIS
   @DF-RHF iter  15:  -453.43732249332038   -2.95586e-12   8.66863e-10 DIIS
   @DF-RHF iter  16:  -453.43732249332083   -4.54747e-13   3.96913e-10 DIIS
   @DF-RHF iter  17:  -453.43732249332152   -6.82121e-13   1.69949e-10 DIIS
   @DF-RHF iter  18:  -453.43732249331993    1.59162e-12   6.30033e-11 DIIS
  Energy and wave function converged.


  ==> Post-Iterations <==

    Orbital Energies [Eh]
    ---------------------

    Doubly Occupied:                                                      

       1A    -20.630870     2A    -20.623149     3A    -20.567718  
       4A    -20.560498     5A    -11.408534     6A    -11.408165  
       7A    -11.295547     8A    -11.280344     9A     -1.479872  
      10A     -1.468329    11A     -1.382487    12A     -1.366630  
      13A     -1.113048    14A     -0.954123    15A     -0.860825  
      16A     -0.781231    17A     -0.733182    18A     -0.721956  
      19A     -0.709790    20A     -0.666552    21A     -0.657991  
      22A     -0.645457    23A     -0.612440    24A     -0.603747  
      25A     -0.579207    26A     -0.510501    27A     -0.487984  
      28A     -0.477083    29A     -0.465950    30A     -0.415319  

    Virtual:                                                              

      31A      0.025248    32A      0.032219    33A      0.036178  
      34A      0.046930    35A      0.063120    36A      0.076950  
      37A      0.082319    38A      0.097483    39A      0.100171  
      40A      0.103113    41A      0.109783    42A      0.117096  
      43A      0.121590    44A      0.124020    45A      0.129555  
      46A      0.135599    47A      0.138162    48A      0.138525  
      49A      0.162956    50A      0.176782    51A      0.185816  
      52A      0.189470    53A      0.195391    54A      0.204061  
      55A      0.213008    56A      0.219756    57A      0.228112  
      58A      0.231970    59A      0.249636    60A      0.253746  
      61A      0.260378    62A      0.265762    63A      0.270410  
      64A      0.276446    65A      0.280892    66A      0.290728  
      67A      0.295065    68A      0.301734    69A      0.309071  
      70A      0.310983    71A      0.320122    72A      0.328054  
      73A      0.340061    74A      0.342606    75A      0.352839  
      76A      0.361576    77A      0.375661    78A      0.385689  
      79A      0.387578    80A      0.396111    81A      0.402213  
      82A      0.407836    83A      0.426448    84A      0.430867  
      85A      0.436427    86A      0.443972    87A      0.449370  
      88A      0.451532    89A      0.461543    90A      0.469097  
      91A      0.473621    92A      0.487091    93A      0.493639  
      94A      0.504450    95A      0.522704    96A      0.533900  
      97A      0.536374    98A      0.544103    99A      0.553969  
     100A      0.562179   101A      0.572000   102A      0.580045  
     103A      0.591371   104A      0.596675   105A      0.610450  
     106A      0.618091   107A      0.640266   108A      0.646754  
     109A      0.653430   110A      0.672040   111A      0.681820  
     112A      0.699324   113A      0.709554   114A      0.727500  
     115A      0.731081   116A      0.743379   117A      0.753165  
     118A      0.760898   119A      0.767553   120A      0.776898  
     121A      0.780416   122A      0.797756   123A      0.802486  
     124A      0.811591   125A      0.824659   126A      0.826314  
     127A      0.836665   128A      0.844479   129A      0.853316  
     130A      0.869005   131A      0.883548   132A      0.889705  
     133A      0.892995   134A      0.902721   135A      0.910439  
     136A      0.926175   137A      0.936204   138A      0.942165  
     139A      0.949879   140A      0.954603   141A      0.961864  
     142A      0.965137   143A      0.975820   144A      0.983197  
     145A      0.997262   146A      1.004287   147A      1.014133  
     148A      1.018640   149A      1.021695   150A      1.029444  
     151A      1.034856   152A      1.049903   153A      1.051750  
     154A      1.064799   155A      1.073466   156A      1.080338  
     157A      1.093110   158A      1.097058   159A      1.114468  
     160A      1.119235   161A      1.129318   162A      1.136842  
     163A      1.154324   164A      1.159724   165A      1.168814  
     166A      1.179424   167A      1.190042   168A      1.201479  
     169A      1.206951   170A      1.225520   171A      1.231940  
     172A      1.246300   173A      1.265727   174A      1.283920  
     175A      1.298788   176A      1.310874   177A      1.319614  
     178A      1.336347   179A      1.338149   180A      1.352014  
     181A      1.365360   182A      1.384707   183A      1.394431  
     184A      1.415110   185A      1.431493   186A      1.437059  
     187A      1.450750   188A      1.472904   189A      1.490808  
     190A      1.499470   191A      1.505378   192A      1.513420  
     193A      1.524093   194A      1.535962   195A      1.544982  
     196A      1.561078   197A      1.562617   198A      1.595012  
     199A      1.600075   200A      1.619077   201A      1.640264  
     202A      1.657449   203A      1.660203   204A      1.672855  
     205A      1.694011   206A      1.721732   207A      1.724790  
     208A      1.743697   209A      1.755755   210A      1.767129  
     211A      1.774822   212A      1.791324   213A      1.804286  
     214A      1.814311   215A      1.820741   216A      1.849181  
     217A      1.865501   218A      1.888419   219A      1.893478  
     220A      1.905346   221A      1.922071   222A      1.952375  
     223A      1.961254   224A      1.984060   225A      2.006364  
     226A      2.027417   227A      2.046574   228A      2.064911  
     229A      2.088143   230A      2.110437   231A      2.124339  
     232A      2.160583   233A      2.180382   234A      2.187686  
     235A      2.210937   236A      2.225776   237A      2.231142  
     238A      2.253240   239A      2.275585   240A      2.290751  
     241A      2.325887   242A      2.334461   243A      2.361112  
     244A      2.391062   245A      2.413239   246A      2.432718  
     247A      2.438422   248A      2.453786   249A      2.460366  
     250A      2.477770   251A      2.488866   252A      2.500617  
     253A      2.520206   254A      2.541618   255A      2.549151  
     256A      2.560349   257A      2.574082   258A      2.582586  
     259A      2.596184   260A      2.612597   261A      2.625695  
     262A      2.638768   263A      2.653422   264A      2.685034  
     265A      2.705092   266A      2.724948   267A      2.728578  
     268A      2.749778   269A      2.785804   270A      2.812940  
     271A      2.815009   272A      2.827526   273A      2.839735  
     274A      2.850774   275A      2.861415   276A      2.881507  
     277A      2.900588   278A      2.919132   279A      2.935761  
     280A      2.947815   281A      2.958487   282A      2.974415  
     283A      2.989428   284A      3.000611   285A      3.031876  
     286A      3.036272   287A      3.067862   288A      3.108266  
     289A      3.127393   290A      3.154750   291A      3.202341  
     292A      3.214595   293A      3.250168   294A      3.259836  
     295A      3.273572   296A      3.306936   297A      3.334456  
     298A      3.376162   299A      3.406164   300A      3.425223  
     301A      3.447899   302A      3.463183   303A      3.477249  
     304A      3.502809   305A      3.538507   306A      3.549006  
     307A      3.555561   308A      3.574563   309A      3.587922  
     310A      3.615822   311A      3.626348   312A      3.651547  
     313A      3.662370   314A      3.689916   315A      3.725316  
     316A      3.746358   317A      3.773960   318A      3.793303  
     319A      3.802877   320A      3.832072   321A      3.855476  
     322A      3.856411   323A      3.885557   324A      3.908644  
     325A      3.915937   326A      3.934706   327A      3.992550  
     328A      4.004665   329A      4.012594   330A      4.039632  
     331A      4.064877   332A      4.075529   333A      4.107327  
     334A      4.120164   335A      4.153476   336A      4.161736  
     337A      4.197148   338A      4.220868   339A      4.226240  
     340A      4.254947   341A      4.280124   342A      4.301763  
     343A      4.315748   344A      4.333552   345A      4.349241  
     346A      4.350445   347A      4.377739   348A      4.402356  
     349A      4.415473   350A      4.427594   351A      4.464211  
     352A      4.469241   353A      4.510924   354A      4.519907  
     355A      4.542826   356A      4.566068   357A      4.603093  
     358A      4.611489   359A      4.643957   360A      4.693726  
     361A      4.726918   362A      4.763914   363A      4.781594  
     364A      4.784803   365A      4.826602   366A      4.890016  
     367A      4.915210   368A      4.926732   369A      4.974712  
     370A      4.989577   371A      5.026210   372A      5.039615  
     373A      5.079099   374A      5.123284   375A      5.141872  
     376A      5.160162   377A      5.190754   378A      5.201967  
     379A      5.247148   380A      5.269592   381A      5.299134  
     382A      5.328477   383A      5.351888   384A      5.390549  
     385A      5.428356   386A      5.469868   387A      5.479218  
     388A      5.491220   389A      5.541990   390A      5.624244  
     391A      5.708256   392A      5.740168   393A      5.849504  
     394A      5.887647   395A      5.988939   396A      6.070408  
     397A      6.190044   398A      6.225900   399A      6.352991  
     400A      6.426926   401A      6.466487   402A      6.534655  
     403A      6.602959   404A      6.678018   405A      6.691464  
     406A      6.728247   407A      6.786825   408A      6.808754  
     409A      6.824831   410A      6.838149   411A      6.857796  
     412A      6.878893   413A      6.907029   414A      6.923062  
     415A      6.995878   416A      7.040046   417A      7.046382  
     418A      7.086033   419A      7.175459   420A      7.189252  
     421A      7.207491   422A      7.235246   423A      7.255585  
     424A      7.271594   425A      7.331571   426A      7.342547  
     427A      7.354284   428A      7.368549   429A      7.369884  
     430A      7.398903   431A      7.403955   432A      7.431850  
     433A      7.496271   434A      7.529112   435A      7.584560  
     436A      7.595920   437A      7.601241   438A      7.643461  
     439A      7.670191   440A      7.674015   441A      7.726197  
     442A      7.758309   443A      7.828227   444A      7.863213  
     445A      7.907526   446A      7.926433   447A      8.011814  
     448A      8.113854   449A      8.216713   450A      8.245095  
     451A      8.501117   452A      8.537585   453A     15.061580  
     454A     15.421489   455A     15.744842   456A     15.945987  
     457A     16.584833   458A     17.797194   459A     18.707803  
     460A     19.394877  

    Final Occupation by Irrep:
              A 
    DOCC [    30 ]

  @DF-RHF Final Energy:  -453.43732249331993

   => Energetics <=

    Nuclear Repulsion Energy =            358.7806757783567946
    One-Electron Energy =               -1333.4989355304785477
    Two-Electron Energy =                 521.2809372588018277
    Total Energy =                       -453.4373224933199253

Computation Completed

*** tstop() called on node37.bme.utexas.edu at Thu Nov  5 21:46:15 2020
Module time:
	user time   =      99.29 seconds =       1.65 minutes
	system time =       9.29 seconds =       0.15 minutes
	total time  =         21 seconds =       0.35 minutes
Total time:
	user time   =      99.29 seconds =       1.65 minutes
	system time =       9.29 seconds =       0.15 minutes
	total time  =         21 seconds =       0.35 minutes
   => Loading Basis Set <=

    Name: (AUG-CC-PVTZ AUX)
    Role: RIFIT
    Keyword: DF_BASIS_MP2
    atoms 1-4  entry O          line   264 file /home/xy3866/psi4conda/share/psi4/basis/aug-cc-pvtz-ri.gbs 
    atoms 5-8  entry C          line   148 file /home/xy3866/psi4conda/share/psi4/basis/aug-cc-pvtz-ri.gbs 
    atoms 9-12 entry H          line    30 file /home/xy3866/psi4conda/share/psi4/basis/aug-cc-pvtz-ri.gbs 


*** tstart() called on node37.bme.utexas.edu
*** at Thu Nov  5 21:46:15 2020


  //>>>>>>>>>>>>>>>>>>>>>>>>>>>>>>>>>>>//
  //               DFMP2               //
  //<<<<<<<<<<<<<<<<<<<<<<<<<<<<<<<<<<<//

	 --------------------------------------------------------
	                          DF-MP2                         
	      2nd-Order Density-Fitted Moller-Plesset Theory     
	              RMP2 Wavefunction,   8 Threads             
	                                                         
	        Rob Parrish, Justin Turney, Andy Simmonett,      
	           Ed Hohenstein, and C. David Sherrill          
	 --------------------------------------------------------

   => Auxiliary Basis Set <=

  Basis Set: (AUG-CC-PVTZ AUX)
    Blend: AUG-CC-PVTZ-RI
    Number of shells: 280
    Number of basis function: 1032
    Number of Cartesian functions: 1308
    Spherical Harmonics?: true
    Max angular momentum: 4

	 --------------------------------------------------------
	                 NBF =   460, NAUX =  1032
	 --------------------------------------------------------
	   CLASS    FOCC     OCC    AOCC    AVIR     VIR    FVIR
	   PAIRS       0      30      30     430     430       0
	 --------------------------------------------------------

  DFHelper Memory: AOs need 1.601 GiB; user supplied 22.352 GiB. Using in-core AOs.


         ------------------------------------------------------------
                                     CPHF                           
                                  Rob Parrish                       
         ------------------------------------------------------------

  ==> Geometry <==

    Molecular point group: c1
    Full point group: C1

    Geometry (in Angstrom), charge = 0, multiplicity = 1:

       Center              X                  Y                   Z               Mass       
    ------------   -----------------  -----------------  -----------------  -----------------
         O            1.618820596781    -0.601077470393     1.125103992740    15.994914619570
         O           -2.771989403219    -0.015720470393     0.090691992740    15.994914619570
         O            2.178714596781    -0.102739470393    -1.021578007260    15.994914619570
         O           -0.883220403219    -1.196854470393    -0.351622007260    15.994914619570
         C            0.581942596781     1.266650529607     0.124065992740    12.000000000000
         C           -0.755197403219     1.166718529607     0.087137992740    12.000000000000
         C            1.520797596781     0.111964529607    -0.020645007260    12.000000000000
         C           -1.433358803219    -0.162380370393    -0.086869807260    12.000000000000
         H            1.051409596781     2.243512529607     0.210670992740     1.007825032230
         H           -1.384052403219     2.047279529607     0.169050992740     1.007825032230
         H            2.236776596781    -1.336252470393     0.926799992740     1.007825032230
         H           -3.141144403219    -0.913425470393    -0.043015007260     1.007825032230

  Nuclear repulsion =  358.780675778356795
  Reference energy  = -453.437322493319925

  ==> Basis Set <==

  Basis Set: AUG-CC-PVTZ
    Blend: AUG-CC-PVTZ
    Number of shells: 148
    Number of basis function: 460
    Number of Cartesian functions: 540
    Spherical Harmonics?: true
    Max angular momentum: 3

  ==> CGRSolver (by Rob Parrish) <==

   Number of roots    =         1
   Preconditioning    =    JACOBI
   Convergence cutoff =     1E-06
   Maximum iterations =       100

  ==> CPHFRHamiltonian (by Rob Parrish) <== 

  ==> MemDFJK: Density-Fitted J/K Matrices <==

    J tasked:                   Yes
    K tasked:                   Yes
    wK tasked:                   No
    OpenMP threads:               8
    Memory [MiB]:             22888
    Algorithm:                 Core
    Schwarz Cutoff:           1E-12
    Mask sparsity (%):       3.9773
    Fitting Condition:        1E-10

   => Auxiliary Basis Set <=

  Basis Set: (AUG-CC-PVTZ AUX)
    Blend: AUG-CC-PVTZ-JKFIT
    Number of shells: 296
    Number of basis function: 1016
    Number of Cartesian functions: 1268
    Spherical Harmonics?: true
    Max angular momentum: 4

  ==> CPHF Iterations <==

  => Iterations <=

             Iter  Converged  Remaining    Residual
  CGR           1          0          1   1.175E-01
  CGR           2          0          1   3.551E-02
  CGR           3          0          1   1.363E-02
  CGR           4          0          1   4.632E-03
  CGR           5          0          1   1.789E-03
  CGR           6          0          1   6.059E-04
  CGR           7          0          1   2.243E-04
  CGR           8          0          1   9.530E-05
  CGR           9          0          1   3.622E-05
  CGR          10          0          1   1.146E-05
  CGR          11          0          1   4.289E-06
  CGR          12          0          1   1.745E-06
  CGR          13          1          0   7.050E-07

    CGRSolver converged.

	-----------------------------------------------------------
	 ==================> DF-MP2 Energies <==================== 
	-----------------------------------------------------------
	 Reference Energy          =    -453.4373224933199253 [Eh]
	 Singles Energy            =      -0.0000000000000000 [Eh]
	 Same-Spin Energy          =      -0.4332546239044103 [Eh]
	 Opposite-Spin Energy      =      -1.2871745678105517 [Eh]
	 Correlation Energy        =      -1.7204291917149619 [Eh]
	 Total Energy              =    -455.1577516850348957 [Eh]
	-----------------------------------------------------------
	 ================> DF-SCS-MP2 Energies <================== 
	-----------------------------------------------------------
	 SCS Same-Spin Scale       =       0.3333333333333333 [-]
	 SCS Opposite-Spin Scale   =       1.2000000000000000 [-]
	 SCS Same-Spin Energy      =      -0.1444182079681368 [Eh]
	 SCS Opposite-Spin Energy  =      -1.5446094813726621 [Eh]
	 SCS Correlation Energy    =      -1.6890276893407989 [Eh]
	 SCS Total Energy          =    -455.1263501826607012 [Eh]
	-----------------------------------------------------------



Properties will be evaluated at   0.000000,   0.000000,   0.000000 [a0]

Properties computed using the MP2 density matrix

  Nuclear Dipole Moment: [e a0]
     X:    -1.1590      Y:     1.9043      Z:     1.1837

  Electronic Dipole Moment: [e a0]
     X:     0.6021      Y:    -1.5327      Z:    -0.5664

  Dipole Moment: [e a0]
     X:    -0.5569      Y:     0.3716      Z:     0.6174     Total:     0.9107

  Dipole Moment: [D]
     X:    -1.4154      Y:     0.9444      Z:     1.5692     Total:     2.3147


*** tstop() called on node37.bme.utexas.edu at Thu Nov  5 21:47:14 2020
Module time:
	user time   =     345.43 seconds =       5.76 minutes
	system time =      21.93 seconds =       0.37 minutes
	total time  =         59 seconds =       0.98 minutes
Total time:
	user time   =     444.85 seconds =       7.41 minutes
	system time =      31.23 seconds =       0.52 minutes
	total time  =         80 seconds =       1.33 minutes

    Psi4 stopped on: Thursday, 05 November 2020 09:47PM
    Psi4 wall time for execution: 0:01:19.97

*** Psi4 exiting successfully. Buy a developer a beer!
