
    -----------------------------------------------------------------------
          Psi4: An Open-Source Ab Initio Electronic Structure Package
                               Psi4 1.4a3.dev225 

                         Git: Rev {master} 7105e37 


    D. G. A. Smith, L. A. Burns, A. C. Simmonett, R. M. Parrish,
    M. C. Schieber, R. Galvelis, P. Kraus, H. Kruse, R. Di Remigio,
    A. Alenaizan, A. M. James, S. Lehtola, J. P. Misiewicz, M. Scheurer,
    R. A. Shaw, J. B. Schriber, Y. Xie, Z. L. Glick, D. A. Sirianni,
    J. S. O'Brien, J. M. Waldrop, A. Kumar, E. G. Hohenstein,
    B. P. Pritchard, B. R. Brooks, H. F. Schaefer III, A. Yu. Sokolov,
    K. Patkowski, A. E. DePrince III, U. Bozkaya, R. A. King,
    F. A. Evangelista, J. M. Turney, T. D. Crawford, C. D. Sherrill,
    J. Chem. Phys. 152(18) 184108 (2020). https://doi.org/10.1063/5.0006002

                            Additional Code Authors
    E. T. Seidl, C. L. Janssen, E. F. Valeev, M. L. Leininger,
    J. F. Gonthier, R. M. Richard, H. R. McAlexander, M. Saitow, X. Wang,
    P. Verma, and M. H. Lechner

             Previous Authors, Complete List of Code Contributors,
                       and Citations for Specific Modules
    https://github.com/psi4/psi4/blob/master/codemeta.json
    https://github.com/psi4/psi4/graphs/contributors
    http://psicode.org/psi4manual/master/introduction.html#citing-psifour

    -----------------------------------------------------------------------


    Psi4 started on: Saturday, 20 March 2021 05:14AM

    Process ID: 216920
    Host:       c466-083.stampede2.tacc.utexas.edu
    PSIDATADIR: /home1/07844/xy3866/miniconda3/envs/p4env/share/psi4
    Memory:     500.0 MiB
    Threads:    32
    
  ==> Input File <==

--------------------------------------------------------------------------
#psi4
#
memory 32 gb

molecule  {
0 1
  O        1.6292290    -0.6199230     1.1141820
  O       -2.7620640    -0.0349680     0.0794940
  O        2.1880480    -0.1219360    -1.0328490
  O       -0.8730120    -1.2160300    -0.3618370
  C        0.5917800     1.2475860     0.1132420
  C       -0.7453650     1.1476220     0.0764550
  C        1.5305940     0.0928630    -0.0316350
  C       -1.4402241    -0.1565490    -0.0907695
  H        1.0613100     2.2244250     0.1997410
  H       -1.3742940     2.0281270     0.1583660
  H        2.2470800    -1.3551440     0.9157090
  H       -3.1309400    -0.9327820    -0.0542280
units angstrom
no_reorient  #important for SAPT in psi4, default
symmetry c1  #important for SAPT in psi4, default
}

set PROPERTIES_ORIGIN ["COM"]
properties('MP2/aug-cc-pvtz', properties = ['dipole'])
--------------------------------------------------------------------------

  Memory set to  29.802 GiB by Python driver.
    SCF Algorithm Type (re)set to DF.

*** tstart() called on c466-083.stampede2.tacc.utexas.edu
*** at Sat Mar 20 05:14:48 2021

   => Loading Basis Set <=

    Name: AUG-CC-PVTZ
    Role: ORBITAL
    Keyword: BASIS
    atoms 1-4  entry O          line   331 file /home1/07844/xy3866/miniconda3/envs/p4env/share/psi4/basis/aug-cc-pvtz.gbs 
    atoms 5-8  entry C          line   239 file /home1/07844/xy3866/miniconda3/envs/p4env/share/psi4/basis/aug-cc-pvtz.gbs 
    atoms 9-12 entry H          line    40 file /home1/07844/xy3866/miniconda3/envs/p4env/share/psi4/basis/aug-cc-pvtz.gbs 


         ---------------------------------------------------------
                                   SCF
               by Justin Turney, Rob Parrish, Andy Simmonett
                          and Daniel G. A. Smith
                              RHF Reference
                       32 Threads,  30517 MiB Core
         ---------------------------------------------------------

  ==> Geometry <==

    Molecular point group: c1
    Full point group: C1

    Geometry (in Angstrom), charge = 0, multiplicity = 1:

       Center              X                  Y                   Z               Mass       
    ------------   -----------------  -----------------  -----------------  -----------------
         O            1.621044437894    -0.603395989748     1.124340492667    15.994914619570
         O           -2.770248562106    -0.018440989748     0.089652492667    15.994914619570
         O            2.179863437894    -0.105408989748    -1.022690507333    15.994914619570
         O           -0.881196562106    -1.199502989748    -0.351678507333    15.994914619570
         C            0.583595437894     1.264113010252     0.123400492667    12.000000000000
         C           -0.753549562106     1.164149010252     0.086613492667    12.000000000000
         C            1.522409437894     0.109390010252    -0.021476507333    12.000000000000
         C           -1.448408662106    -0.140021989748    -0.080611007333    12.000000000000
         H            1.053125437894     2.240952010252     0.209899492667     1.007825032230
         H           -1.382478562106     2.044654010252     0.168524492667     1.007825032230
         H            2.238895437894    -1.338616989748     0.925867492667     1.007825032230
         H           -3.139124562106    -0.916254989748    -0.044069507333     1.007825032230

  Running in c1 symmetry.

  Rotational constants: A =      0.14396  B =      0.04490  C =      0.04093 [cm^-1]
  Rotational constants: A =   4315.88991  B =   1345.99521  C =   1226.92687 [MHz]
  Nuclear repulsion =  358.587706648442975

  Charge       = 0
  Multiplicity = 1
  Electrons    = 60
  Nalpha       = 30
  Nbeta        = 30

  ==> Algorithm <==

  SCF Algorithm Type is DF.
  DIIS enabled.
  MOM disabled.
  Fractional occupation disabled.
  Guess Type is SAD.
  Energy threshold   = 1.00e-10
  Density threshold  = 1.00e-10
  Integral threshold = 1.00e-12

  ==> Primary Basis <==

  Basis Set: AUG-CC-PVTZ
    Blend: AUG-CC-PVTZ
    Number of shells: 148
    Number of basis functions: 460
    Number of Cartesian functions: 540
    Spherical Harmonics?: true
    Max angular momentum: 3

   => Loading Basis Set <=

    Name: (AUG-CC-PVTZ AUX)
    Role: JKFIT
    Keyword: DF_BASIS_SCF
    atoms 1-4  entry O          line   286 file /home1/07844/xy3866/miniconda3/envs/p4env/share/psi4/basis/aug-cc-pvtz-jkfit.gbs 
    atoms 5-8  entry C          line   162 file /home1/07844/xy3866/miniconda3/envs/p4env/share/psi4/basis/aug-cc-pvtz-jkfit.gbs 
    atoms 9-12 entry H          line    70 file /home1/07844/xy3866/miniconda3/envs/p4env/share/psi4/basis/aug-cc-pvtz-jkfit.gbs 

  ==> Integral Setup <==

  DFHelper Memory: AOs need 1.596 GiB; user supplied 22.352 GiB. Using in-core AOs.

  ==> MemDFJK: Density-Fitted J/K Matrices <==

    J tasked:                   Yes
    K tasked:                   Yes
    wK tasked:                   No
    OpenMP threads:              32
    Memory [MiB]:             22888
    Algorithm:                 Core
    Schwarz Cutoff:           1E-12
    Mask sparsity (%):       6.6503
    Fitting Condition:        1E-10

   => Auxiliary Basis Set <=

  Basis Set: (AUG-CC-PVTZ AUX)
    Blend: AUG-CC-PVTZ-JKFIT
    Number of shells: 296
    Number of basis functions: 1016
    Number of Cartesian functions: 1268
    Spherical Harmonics?: true
    Max angular momentum: 4

  Minimum eigenvalue in the overlap matrix is 4.9601548610E-06.
  Reciprocal condition number of the overlap matrix is 3.4466543524E-07.
    Using symmetric orthogonalization.

  ==> Pre-Iterations <==

  SCF Guess: Superposition of Atomic Densities via on-the-fly atomic UHF (no occupation information).

   -------------------------
    Irrep   Nso     Nmo    
   -------------------------
     A        460     460 
   -------------------------
    Total     460     460
   -------------------------

  ==> Iterations <==

                           Total Energy        Delta E     RMS |[F,P]|

   @DF-RHF iter SAD:  -451.96260753924997   -4.51963e+02   0.00000e+00 
   @DF-RHF iter   1:  -453.18388263194697   -1.22128e+00   1.68169e-03 DIIS
   @DF-RHF iter   2:  -453.35249139295451   -1.68609e-01   1.08799e-03 DIIS
   @DF-RHF iter   3:  -453.43109296542002   -7.86016e-02   1.69440e-04 DIIS
   @DF-RHF iter   4:  -453.43461209794901   -3.51913e-03   7.74898e-05 DIIS
   @DF-RHF iter   5:  -453.43536988102915   -7.57783e-04   1.95276e-05 DIIS
   @DF-RHF iter   6:  -453.43545673618939   -8.68552e-05   9.76049e-06 DIIS
   @DF-RHF iter   7:  -453.43548224538529   -2.55092e-05   3.41446e-06 DIIS
   @DF-RHF iter   8:  -453.43548630850711   -4.06312e-06   1.12147e-06 DIIS
   @DF-RHF iter   9:  -453.43548670760617   -3.99099e-07   4.14693e-07 DIIS
   @DF-RHF iter  10:  -453.43548674571048   -3.81043e-08   1.80598e-07 DIIS
   @DF-RHF iter  11:  -453.43548675156239   -5.85192e-09   5.72135e-08 DIIS
   @DF-RHF iter  12:  -453.43548675224673   -6.84338e-10   1.93108e-08 DIIS
   @DF-RHF iter  13:  -453.43548675232853   -8.17977e-11   6.48306e-09 DIIS
   @DF-RHF iter  14:  -453.43548675234268   -1.41540e-11   3.42205e-09 DIIS
   @DF-RHF iter  15:  -453.43548675234621   -3.52429e-12   1.08641e-09 DIIS
   @DF-RHF iter  16:  -453.43548675234638   -1.70530e-13   4.90027e-10 DIIS
   @DF-RHF iter  17:  -453.43548675234643   -5.68434e-14   2.15767e-10 DIIS
   @DF-RHF iter  18:  -453.43548675234683   -3.97904e-13   7.47615e-11 DIIS
  Energy and wave function converged.


  ==> Post-Iterations <==

    Orbital Energies [Eh]
    ---------------------

    Doubly Occupied:                                                      

       1A    -20.636455     2A    -20.622358     3A    -20.561414  
       4A    -20.560058     5A    -11.410143     6A    -11.408096  
       7A    -11.298032     8A    -11.280577     9A     -1.481561  
      10A     -1.467892    11A     -1.367694    12A     -1.366059  
      13A     -1.115000    14A     -0.959335    15A     -0.864535  
      16A     -0.785071    17A     -0.732876    18A     -0.720989  
      19A     -0.709184    20A     -0.668195    21A     -0.656855  
      22A     -0.646784    23A     -0.609072    24A     -0.603194  
      25A     -0.576170    26A     -0.504613    27A     -0.485397  
      28A     -0.475009    29A     -0.464893    30A     -0.415121  

    Virtual:                                                              

      31A      0.024848    32A      0.031806    33A      0.036331  
      34A      0.046658    35A      0.059819    36A      0.077011  
      37A      0.082903    38A      0.097597    39A      0.100012  
      40A      0.102925    41A      0.109927    42A      0.116706  
      43A      0.120951    44A      0.123953    45A      0.129511  
      46A      0.134774    47A      0.137571    48A      0.138255  
      49A      0.163191    50A      0.176818    51A      0.185820  
      52A      0.189332    53A      0.196117    54A      0.204212  
      55A      0.212758    56A      0.219285    57A      0.228396  
      58A      0.231829    59A      0.249489    60A      0.254334  
      61A      0.260637    62A      0.265926    63A      0.270183  
      64A      0.277066    65A      0.280582    66A      0.290798  
      67A      0.295463    68A      0.301330    69A      0.308554  
      70A      0.310862    71A      0.320106    72A      0.327721  
      73A      0.340376    74A      0.342677    75A      0.352553  
      76A      0.361324    77A      0.375400    78A      0.386255  
      79A      0.387910    80A      0.396990    81A      0.402236  
      82A      0.407672    83A      0.426105    84A      0.430954  
      85A      0.437187    86A      0.442988    87A      0.448262  
      88A      0.450769    89A      0.461457    90A      0.468406  
      91A      0.474939    92A      0.487302    93A      0.494362  
      94A      0.502833    95A      0.523439    96A      0.533423  
      97A      0.536790    98A      0.544897    99A      0.554537  
     100A      0.567655   101A      0.573587   102A      0.580311  
     103A      0.590677   104A      0.597739   105A      0.611509  
     106A      0.620070   107A      0.642184   108A      0.646699  
     109A      0.654555   110A      0.671132   111A      0.677844  
     112A      0.696895   113A      0.709977   114A      0.726818  
     115A      0.733616   116A      0.741615   117A      0.751162  
     118A      0.759124   119A      0.767839   120A      0.774644  
     121A      0.779834   122A      0.798380   123A      0.801988  
     124A      0.811865   125A      0.825218   126A      0.826047  
     127A      0.836406   128A      0.845443   129A      0.853376  
     130A      0.868969   131A      0.883198   132A      0.890307  
     133A      0.892470   134A      0.902446   135A      0.909430  
     136A      0.927037   137A      0.936140   138A      0.941895  
     139A      0.947467   140A      0.954437   141A      0.961920  
     142A      0.964970   143A      0.974403   144A      0.980539  
     145A      0.996606   146A      1.003502   147A      1.013974  
     148A      1.018854   149A      1.020603   150A      1.028616  
     151A      1.034732   152A      1.049647   153A      1.052256  
     154A      1.064478   155A      1.073125   156A      1.079760  
     157A      1.092680   158A      1.097143   159A      1.114042  
     160A      1.118653   161A      1.129509   162A      1.136170  
     163A      1.153048   164A      1.159042   165A      1.169540  
     166A      1.179058   167A      1.189801   168A      1.200298  
     169A      1.204786   170A      1.225805   171A      1.231898  
     172A      1.248966   173A      1.268942   174A      1.284842  
     175A      1.300641   176A      1.311629   177A      1.321674  
     178A      1.337630   179A      1.341091   180A      1.350889  
     181A      1.365330   182A      1.385509   183A      1.394602  
     184A      1.414896   185A      1.431294   186A      1.436971  
     187A      1.451609   188A      1.473454   189A      1.491039  
     190A      1.500397   191A      1.505579   192A      1.513649  
     193A      1.524570   194A      1.535471   195A      1.543487  
     196A      1.558754   197A      1.561086   198A      1.596552  
     199A      1.600180   200A      1.620551   201A      1.642319  
     202A      1.654026   203A      1.662070   204A      1.672121  
     205A      1.694258   206A      1.723307   207A      1.727810  
     208A      1.743870   209A      1.756469   210A      1.771357  
     211A      1.781342   212A      1.792746   213A      1.805194  
     214A      1.814380   215A      1.822219   216A      1.849000  
     217A      1.865504   218A      1.886298   219A      1.889000  
     220A      1.905592   221A      1.924066   222A      1.953387  
     223A      1.964187   224A      1.984714   225A      2.006543  
     226A      2.026892   227A      2.049581   228A      2.064927  
     229A      2.086252   230A      2.102857   231A      2.120836  
     232A      2.160238   233A      2.181235   234A      2.188419  
     235A      2.214044   236A      2.225700   237A      2.230506  
     238A      2.250561   239A      2.276249   240A      2.289354  
     241A      2.328356   242A      2.336777   243A      2.367758  
     244A      2.390426   245A      2.414278   246A      2.432428  
     247A      2.440954   248A      2.455152   249A      2.462135  
     250A      2.474379   251A      2.487874   252A      2.498879  
     253A      2.521368   254A      2.540631   255A      2.548819  
     256A      2.563937   257A      2.575015   258A      2.584738  
     259A      2.596692   260A      2.614455   261A      2.624161  
     262A      2.638256   263A      2.654150   264A      2.687783  
     265A      2.715236   266A      2.725191   267A      2.732105  
     268A      2.752393   269A      2.784541   270A      2.808400  
     271A      2.815184   272A      2.824410   273A      2.837277  
     274A      2.852686   275A      2.862507   276A      2.879864  
     277A      2.900179   278A      2.920242   279A      2.936390  
     280A      2.946883   281A      2.957153   282A      2.974620  
     283A      2.990679   284A      3.004986   285A      3.032415  
     286A      3.038874   287A      3.068428   288A      3.111374  
     289A      3.125895   290A      3.153529   291A      3.201693  
     292A      3.212743   293A      3.253395   294A      3.267055  
     295A      3.280421   296A      3.304826   297A      3.340123  
     298A      3.375399   299A      3.402706   300A      3.427565  
     301A      3.448849   302A      3.460781   303A      3.475209  
     304A      3.504072   305A      3.541495   306A      3.548129  
     307A      3.556763   308A      3.575317   309A      3.587901  
     310A      3.613294   311A      3.626059   312A      3.652505  
     313A      3.661974   314A      3.691214   315A      3.728657  
     316A      3.746502   317A      3.775215   318A      3.789962  
     319A      3.799298   320A      3.829343   321A      3.854023  
     322A      3.859165   323A      3.885658   324A      3.908397  
     325A      3.917836   326A      3.939048   327A      3.992368  
     328A      4.001461   329A      4.015094   330A      4.045956  
     331A      4.062358   332A      4.076993   333A      4.106369  
     334A      4.121591   335A      4.152186   336A      4.161468  
     337A      4.199103   338A      4.224150   339A      4.230185  
     340A      4.243263   341A      4.274361   342A      4.307057  
     343A      4.312752   344A      4.334849   345A      4.347716  
     346A      4.354044   347A      4.377698   348A      4.399643  
     349A      4.419485   350A      4.431007   351A      4.453834  
     352A      4.468605   353A      4.507654   354A      4.521087  
     355A      4.546574   356A      4.561055   357A      4.604759  
     358A      4.611964   359A      4.636688   360A      4.696213  
     361A      4.731311   362A      4.748190   363A      4.774862  
     364A      4.785626   365A      4.825956   366A      4.891952  
     367A      4.921727   368A      4.927932   369A      4.975395  
     370A      4.990185   371A      5.014619   372A      5.038334  
     373A      5.076347   374A      5.122126   375A      5.139311  
     376A      5.161800   377A      5.190962   378A      5.200772  
     379A      5.232934   380A      5.252571   381A      5.296920  
     382A      5.327954   383A      5.349967   384A      5.391244  
     385A      5.430485   386A      5.464714   387A      5.484542  
     388A      5.490219   389A      5.536039   390A      5.619697  
     391A      5.708946   392A      5.736592   393A      5.836651  
     394A      5.893282   395A      5.997208   396A      6.080852  
     397A      6.200161   398A      6.237398   399A      6.353721  
     400A      6.432356   401A      6.477307   402A      6.536547  
     403A      6.608362   404A      6.680042   405A      6.694066  
     406A      6.730658   407A      6.787810   408A      6.809647  
     409A      6.821965   410A      6.840377   411A      6.860514  
     412A      6.878151   413A      6.908437   414A      6.925873  
     415A      6.994414   416A      7.039809   417A      7.042424  
     418A      7.085339   419A      7.150769   420A      7.186450  
     421A      7.200648   422A      7.235577   423A      7.252781  
     424A      7.270735   425A      7.328391   426A      7.342491  
     427A      7.352773   428A      7.369419   429A      7.370605  
     430A      7.381346   431A      7.403638   432A      7.432070  
     433A      7.497533   434A      7.529684   435A      7.578821  
     436A      7.598166   437A      7.602850   438A      7.640460  
     439A      7.670859   440A      7.675986   441A      7.726105  
     442A      7.748739   443A      7.822088   444A      7.855600  
     445A      7.907679   446A      7.917582   447A      8.012721  
     448A      8.116773   449A      8.219415   450A      8.255723  
     451A      8.501619   452A      8.541276   453A     15.026725  
     454A     15.200396   455A     15.783906   456A     15.927766  
     457A     16.568965   458A     17.721400   459A     18.721428  
     460A     19.380567  

    Final Occupation by Irrep:
              A 
    DOCC [    30 ]

  @DF-RHF Final Energy:  -453.43548675234683

   => Energetics <=

    Nuclear Repulsion Energy =            358.5877066484429747
    One-Electron Energy =               -1333.1411257452959944
    Two-Electron Energy =                 521.1179323445062437
    Total Energy =                       -453.4354867523468329

Computation Completed

*** tstop() called on c466-083.stampede2.tacc.utexas.edu at Sat Mar 20 05:15:06 2021
Module time:
	user time   =     289.05 seconds =       4.82 minutes
	system time =      20.81 seconds =       0.35 minutes
	total time  =         18 seconds =       0.30 minutes
Total time:
	user time   =     289.05 seconds =       4.82 minutes
	system time =      20.81 seconds =       0.35 minutes
	total time  =         18 seconds =       0.30 minutes
   => Loading Basis Set <=

    Name: (AUG-CC-PVTZ AUX)
    Role: RIFIT
    Keyword: DF_BASIS_MP2
    atoms 1-4  entry O          line   264 file /home1/07844/xy3866/miniconda3/envs/p4env/share/psi4/basis/aug-cc-pvtz-ri.gbs 
    atoms 5-8  entry C          line   148 file /home1/07844/xy3866/miniconda3/envs/p4env/share/psi4/basis/aug-cc-pvtz-ri.gbs 
    atoms 9-12 entry H          line    30 file /home1/07844/xy3866/miniconda3/envs/p4env/share/psi4/basis/aug-cc-pvtz-ri.gbs 


*** tstart() called on c466-083.stampede2.tacc.utexas.edu
*** at Sat Mar 20 05:15:07 2021


  //>>>>>>>>>>>>>>>>>>>>>>>>>>>>>>>>>>>//
  //               DFMP2               //
  //<<<<<<<<<<<<<<<<<<<<<<<<<<<<<<<<<<<//

	 --------------------------------------------------------
	                          DF-MP2                         
	      2nd-Order Density-Fitted Moller-Plesset Theory     
	              RMP2 Wavefunction,  32 Threads             
	                                                         
	        Rob Parrish, Justin Turney, Andy Simmonett,      
	           Ed Hohenstein, and C. David Sherrill          
	 --------------------------------------------------------

   => Auxiliary Basis Set <=

  Basis Set: (AUG-CC-PVTZ AUX)
    Blend: AUG-CC-PVTZ-RI
    Number of shells: 280
    Number of basis functions: 1032
    Number of Cartesian functions: 1308
    Spherical Harmonics?: true
    Max angular momentum: 4

	 --------------------------------------------------------
	                 NBF =   460, NAUX =  1032
	 --------------------------------------------------------
	   CLASS    FOCC     OCC    AOCC    AVIR     VIR    FVIR
	   PAIRS       0      30      30     430     430       0
	 --------------------------------------------------------

  DFHelper Memory: AOs need 1.639 GiB; user supplied 22.352 GiB. Using in-core AOs.


         ------------------------------------------------------------
                                     CPHF                           
                                  Rob Parrish                       
         ------------------------------------------------------------

  ==> Geometry <==

    Molecular point group: c1
    Full point group: C1

    Geometry (in Angstrom), charge = 0, multiplicity = 1:

       Center              X                  Y                   Z               Mass       
    ------------   -----------------  -----------------  -----------------  -----------------
         O            1.621044437894    -0.603395989748     1.124340492667    15.994914619570
         O           -2.770248562106    -0.018440989748     0.089652492667    15.994914619570
         O            2.179863437894    -0.105408989748    -1.022690507333    15.994914619570
         O           -0.881196562106    -1.199502989748    -0.351678507333    15.994914619570
         C            0.583595437894     1.264113010252     0.123400492667    12.000000000000
         C           -0.753549562106     1.164149010252     0.086613492667    12.000000000000
         C            1.522409437894     0.109390010252    -0.021476507333    12.000000000000
         C           -1.448408662106    -0.140021989748    -0.080611007333    12.000000000000
         H            1.053125437894     2.240952010252     0.209899492667     1.007825032230
         H           -1.382478562106     2.044654010252     0.168524492667     1.007825032230
         H            2.238895437894    -1.338616989748     0.925867492667     1.007825032230
         H           -3.139124562106    -0.916254989748    -0.044069507333     1.007825032230

  Nuclear repulsion =  358.587706648442975
  Reference energy  = -453.435486752346833

  ==> Basis Set <==

  Basis Set: AUG-CC-PVTZ
    Blend: AUG-CC-PVTZ
    Number of shells: 148
    Number of basis functions: 460
    Number of Cartesian functions: 540
    Spherical Harmonics?: true
    Max angular momentum: 3

  ==> CGRSolver (by Rob Parrish) <==

   Number of roots    =         1
   Preconditioning    =    JACOBI
   Convergence cutoff =     1E-06
   Maximum iterations =       100

  ==> CPHFRHamiltonian (by Rob Parrish) <== 

  ==> MemDFJK: Density-Fitted J/K Matrices <==

    J tasked:                   Yes
    K tasked:                   Yes
    wK tasked:                   No
    OpenMP threads:              32
    Memory [MiB]:             22888
    Algorithm:                 Core
    Schwarz Cutoff:           1E-12
    Mask sparsity (%):       3.9858
    Fitting Condition:        1E-10

   => Auxiliary Basis Set <=

  Basis Set: (AUG-CC-PVTZ AUX)
    Blend: AUG-CC-PVTZ-JKFIT
    Number of shells: 296
    Number of basis functions: 1016
    Number of Cartesian functions: 1268
    Spherical Harmonics?: true
    Max angular momentum: 4

  ==> CPHF Iterations <==

  => Iterations <=

             Iter  Converged  Remaining    Residual
  CGR           1          0          1   1.197E-01
  CGR           2          0          1   3.685E-02
  CGR           3          0          1   1.427E-02
  CGR           4          0          1   5.017E-03
  CGR           5          0          1   2.093E-03
  CGR           6          0          1   7.940E-04
  CGR           7          0          1   2.383E-04
  CGR           8          0          1   8.427E-05
  CGR           9          0          1   3.220E-05
  CGR          10          0          1   1.286E-05
  CGR          11          0          1   4.942E-06
  CGR          12          0          1   2.056E-06
  CGR          13          1          0   8.499E-07

    CGRSolver converged.

	-----------------------------------------------------------
	 ==================> DF-MP2 Energies <==================== 
	-----------------------------------------------------------
	 Reference Energy          =    -453.4354867523468329 [Eh]
	 Singles Energy            =      -0.0000000000000000 [Eh]
	 Same-Spin Energy          =      -0.4338181310730381 [Eh]
	 Opposite-Spin Energy      =      -1.2881393704507027 [Eh]
	 Correlation Energy        =      -1.7219575015237409 [Eh]
	 Total Energy              =    -455.1574442538705512 [Eh]
	-----------------------------------------------------------
	 ================> DF-SCS-MP2 Energies <================== 
	-----------------------------------------------------------
	 SCS Same-Spin Scale       =       0.3333333333333333 [-]
	 SCS Opposite-Spin Scale   =       1.2000000000000000 [-]
	 SCS Same-Spin Energy      =      -0.1446060436910127 [Eh]
	 SCS Opposite-Spin Energy  =      -1.5457672445408432 [Eh]
	 SCS Correlation Energy    =      -1.6903732882318558 [Eh]
	 SCS Total Energy          =    -455.1258600405786865 [Eh]
	-----------------------------------------------------------



Properties will be evaluated at  -0.000000,  -0.000000,   0.000000 [a0]

Properties computed using the MP2 density matrix

  Nuclear Dipole Moment: [e a0]
     X:    -1.1520      Y:     1.8945      Z:     1.1806

  Electronic Dipole Moment: [e a0]
     X:     0.5379      Y:    -1.4681      Z:    -0.5451

  Dipole Moment: [e a0]
     X:    -0.6141      Y:     0.4264      Z:     0.6356     Total:     0.9813

  Dipole Moment: [D]
     X:    -1.5608      Y:     1.0838      Z:     1.6155     Total:     2.4941


*** tstop() called on c466-083.stampede2.tacc.utexas.edu at Sat Mar 20 05:16:50 2021
Module time:
	user time   =     707.53 seconds =      11.79 minutes
	system time =      21.56 seconds =       0.36 minutes
	total time  =        103 seconds =       1.72 minutes
Total time:
	user time   =     997.19 seconds =      16.62 minutes
	system time =      42.39 seconds =       0.71 minutes
	total time  =        122 seconds =       2.03 minutes

    Psi4 stopped on: Saturday, 20 March 2021 05:16AM
    Psi4 wall time for execution: 0:02:02.92

*** Psi4 exiting successfully. Buy a developer a beer!
