174_3-Aminopropanol Gaussian SP Calculation on node73.bme.utexas.edu    
Freq      RMP2-FC                                                     6-31G(d)            
Number of atoms                            I               14
Info1-9                                    I   N=           9
          25          24        1002           0           0         100
           6           2           1
Charge                                     I                0
Multiplicity                               I                1
Number of electrons                        I               42
Number of alpha electrons                  I               21
Number of beta electrons                   I               21
Number of basis functions                  I               93
Number of independent functions            I               93
Number of point charges in /Mol/           I                0
Number of translation vectors              I                0
Atomic numbers                             I   N=          14
           8           7           6           6           6           1
           1           1           1           1           1           1
           1           1
Nuclear charges                            R   N=          14
  8.00000000E+00  7.00000000E+00  6.00000000E+00  6.00000000E+00  6.00000000E+00
  1.00000000E+00  1.00000000E+00  1.00000000E+00  1.00000000E+00  1.00000000E+00
  1.00000000E+00  1.00000000E+00  1.00000000E+00  1.00000000E+00
Current cartesian coordinates              R   N=          42
  4.50702507E+00 -8.15344230E-01 -3.85101925E-06 -4.75976757E+00 -4.17245072E-01
  4.01451377E-06  2.46351711E-02 -6.45122237E-01 -1.25130091E-06 -2.36669002E+00
  9.78331039E-01 -1.25522421E-05  2.43096032E+00  9.10840776E-01  1.12197871E-05
  3.92008109E-02 -1.87720359E+00  1.66582802E+00  3.92201282E-02 -1.87720134E+00
 -1.66583192E+00 -2.37143212E+00  2.21908015E+00 -1.65900498E+00 -2.37142658E+00
  2.21911481E+00  1.65895438E+00  2.48109985E+00  2.13942889E+00  1.67711699E+00
  2.48109942E+00  2.13945843E+00 -1.67707293E+00 -4.81109957E+00 -1.57919951E+00
  1.53598389E+00 -4.81109722E+00 -1.57924349E+00 -1.53594287E+00  6.05317487E+00
  1.74937533E-01 -1.23928506E-05
Force Field                                I                0
Int Atom Types                             I   N=          14
           0           0           0           0           0           0
           0           0           0           0           0           0
           0           0
MM charges                                 R   N=          14
  0.00000000E+00  0.00000000E+00  0.00000000E+00  0.00000000E+00  0.00000000E+00
  0.00000000E+00  0.00000000E+00  0.00000000E+00  0.00000000E+00  0.00000000E+00
  0.00000000E+00  0.00000000E+00  0.00000000E+00  0.00000000E+00
Integer atomic weights                     I   N=          14
          16          14          12          12          12           1
           1           1           1           1           1           1
           1           1
Real atomic weights                        R   N=          14
  1.59949146E+01  1.40030740E+01  1.20000000E+01  1.20000000E+01  1.20000000E+01
  1.00782504E+00  1.00782504E+00  1.00782504E+00  1.00782504E+00  1.00782504E+00
  1.00782504E+00  1.00782504E+00  1.00782504E+00  1.00782504E+00
Atom fragment info                         I   N=          14
           0           0           0           0           0           0
           0           0           0           0           0           0
           0           0
Atom residue num                           I   N=          14
           0           0           0           0           0           0
           0           0           0           0           0           0
           0           0
Nuclear spins                              I   N=          14
           0           2           0           0           0           1
           1           1           1           1           1           1
           1           1
Nuclear ZEff                               R   N=          14
 -5.60000000E+00 -4.55000000E+00 -3.60000000E+00 -3.60000000E+00 -3.60000000E+00
 -1.00000000E+00 -1.00000000E+00 -1.00000000E+00 -1.00000000E+00 -1.00000000E+00
 -1.00000000E+00 -1.00000000E+00 -1.00000000E+00 -1.00000000E+00
Nuclear QMom                               R   N=          14
  0.00000000E+00  2.04400000E+00  0.00000000E+00  0.00000000E+00  0.00000000E+00
  0.00000000E+00  0.00000000E+00  0.00000000E+00  0.00000000E+00  0.00000000E+00
  0.00000000E+00  0.00000000E+00  0.00000000E+00  0.00000000E+00
Nuclear GFac                               R   N=          14
  0.00000000E+00  4.03761000E-01  0.00000000E+00  0.00000000E+00  0.00000000E+00
  2.79284600E+00  2.79284600E+00  2.79284600E+00  2.79284600E+00  2.79284600E+00
  2.79284600E+00  2.79284600E+00  2.79284600E+00  2.79284600E+00
MicOpt                                     I   N=          14
          -1          -1          -1          -1          -1          -1
          -1          -1          -1          -1          -1          -1
          -1          -1
Number of contracted shells                I               38
Number of primitive shells                 I               91
Pure/Cartesian d shells                    I                1
Pure/Cartesian f shells                    I                0
Highest angular momentum                   I                2
Largest degree of contraction              I                6
Shell types                                I   N=          38
           0          -1          -1           2           0          -1
          -1           2           0          -1          -1           2
           0          -1          -1           2           0          -1
          -1           2           0           0           0           0
           0           0           0           0           0           0
           0           0           0           0           0           0
           0           0
Number of primitives per shell             I   N=          38
           6           3           1           1           6           3
           1           1           6           3           1           1
           6           3           1           1           6           3
           1           1           3           1           3           1
           3           1           3           1           3           1
           3           1           3           1           3           1
           3           1
Shell to atom map                          I   N=          38
           1           1           1           1           2           2
           2           2           3           3           3           3
           4           4           4           4           5           5
           5           5           6           6           7           7
           8           8           9           9          10          10
          11          11          12          12          13          13
          14          14
Primitive exponents                        R   N=          91
  5.48467166E+03  8.25234946E+02  1.88046958E+02  5.29645000E+01  1.68975704E+01
  5.79963534E+00  1.55396162E+01  3.59993359E+00  1.01376175E+00  2.70005823E-01
  8.00000000E-01  4.17351146E+03  6.27457911E+02  1.42902093E+02  4.02343293E+01
  1.28202129E+01  4.39043701E+00  1.16263619E+01  2.71627981E+00  7.72218397E-01
  2.12031498E-01  8.00000000E-01  3.04752488E+03  4.57369518E+02  1.03948685E+02
  2.92101553E+01  9.28666296E+00  3.16392696E+00  7.86827235E+00  1.88128854E+00
  5.44249258E-01  1.68714478E-01  8.00000000E-01  3.04752488E+03  4.57369518E+02
  1.03948685E+02  2.92101553E+01  9.28666296E+00  3.16392696E+00  7.86827235E+00
  1.88128854E+00  5.44249258E-01  1.68714478E-01  8.00000000E-01  3.04752488E+03
  4.57369518E+02  1.03948685E+02  2.92101553E+01  9.28666296E+00  3.16392696E+00
  7.86827235E+00  1.88128854E+00  5.44249258E-01  1.68714478E-01  8.00000000E-01
  1.87311370E+01  2.82539436E+00  6.40121692E-01  1.61277759E-01  1.87311370E+01
  2.82539436E+00  6.40121692E-01  1.61277759E-01  1.87311370E+01  2.82539436E+00
  6.40121692E-01  1.61277759E-01  1.87311370E+01  2.82539436E+00  6.40121692E-01
  1.61277759E-01  1.87311370E+01  2.82539436E+00  6.40121692E-01  1.61277759E-01
  1.87311370E+01  2.82539436E+00  6.40121692E-01  1.61277759E-01  1.87311370E+01
  2.82539436E+00  6.40121692E-01  1.61277759E-01  1.87311370E+01  2.82539436E+00
  6.40121692E-01  1.61277759E-01  1.87311370E+01  2.82539436E+00  6.40121692E-01
  1.61277759E-01
Contraction coefficients                   R   N=          91
  1.83107443E-03  1.39501722E-02  6.84450781E-02  2.32714336E-01  4.70192898E-01
  3.58520853E-01 -1.10777550E-01 -1.48026263E-01  1.13076702E+00  1.00000000E+00
  1.00000000E+00  1.83477216E-03  1.39946270E-02  6.85865518E-02  2.32240873E-01
  4.69069948E-01  3.60455199E-01 -1.14961182E-01 -1.69117479E-01  1.14585195E+00
  1.00000000E+00  1.00000000E+00  1.83473713E-03  1.40373228E-02  6.88426223E-02
  2.32184443E-01  4.67941348E-01  3.62311985E-01 -1.19332420E-01 -1.60854152E-01
  1.14345644E+00  1.00000000E+00  1.00000000E+00  1.83473713E-03  1.40373228E-02
  6.88426223E-02  2.32184443E-01  4.67941348E-01  3.62311985E-01 -1.19332420E-01
 -1.60854152E-01  1.14345644E+00  1.00000000E+00  1.00000000E+00  1.83473713E-03
  1.40373228E-02  6.88426223E-02  2.32184443E-01  4.67941348E-01  3.62311985E-01
 -1.19332420E-01 -1.60854152E-01  1.14345644E+00  1.00000000E+00  1.00000000E+00
  3.34946043E-02  2.34726953E-01  8.13757326E-01  1.00000000E+00  3.34946043E-02
  2.34726953E-01  8.13757326E-01  1.00000000E+00  3.34946043E-02  2.34726953E-01
  8.13757326E-01  1.00000000E+00  3.34946043E-02  2.34726953E-01  8.13757326E-01
  1.00000000E+00  3.34946043E-02  2.34726953E-01  8.13757326E-01  1.00000000E+00
  3.34946043E-02  2.34726953E-01  8.13757326E-01  1.00000000E+00  3.34946043E-02
  2.34726953E-01  8.13757326E-01  1.00000000E+00  3.34946043E-02  2.34726953E-01
  8.13757326E-01  1.00000000E+00  3.34946043E-02  2.34726953E-01  8.13757326E-01
  1.00000000E+00
P(S=P) Contraction coefficients            R   N=          91
  0.00000000E+00  0.00000000E+00  0.00000000E+00  0.00000000E+00  0.00000000E+00
  0.00000000E+00  7.08742682E-02  3.39752839E-01  7.27158577E-01  1.00000000E+00
  0.00000000E+00  0.00000000E+00  0.00000000E+00  0.00000000E+00  0.00000000E+00
  0.00000000E+00  0.00000000E+00  6.75797439E-02  3.23907296E-01  7.40895140E-01
  1.00000000E+00  0.00000000E+00  0.00000000E+00  0.00000000E+00  0.00000000E+00
  0.00000000E+00  0.00000000E+00  0.00000000E+00  6.89990666E-02  3.16423961E-01
  7.44308291E-01  1.00000000E+00  0.00000000E+00  0.00000000E+00  0.00000000E+00
  0.00000000E+00  0.00000000E+00  0.00000000E+00  0.00000000E+00  6.89990666E-02
  3.16423961E-01  7.44308291E-01  1.00000000E+00  0.00000000E+00  0.00000000E+00
  0.00000000E+00  0.00000000E+00  0.00000000E+00  0.00000000E+00  0.00000000E+00
  6.89990666E-02  3.16423961E-01  7.44308291E-01  1.00000000E+00  0.00000000E+00
  0.00000000E+00  0.00000000E+00  0.00000000E+00  0.00000000E+00  0.00000000E+00
  0.00000000E+00  0.00000000E+00  0.00000000E+00  0.00000000E+00  0.00000000E+00
  0.00000000E+00  0.00000000E+00  0.00000000E+00  0.00000000E+00  0.00000000E+00
  0.00000000E+00  0.00000000E+00  0.00000000E+00  0.00000000E+00  0.00000000E+00
  0.00000000E+00  0.00000000E+00  0.00000000E+00  0.00000000E+00  0.00000000E+00
  0.00000000E+00  0.00000000E+00  0.00000000E+00  0.00000000E+00  0.00000000E+00
  0.00000000E+00  0.00000000E+00  0.00000000E+00  0.00000000E+00  0.00000000E+00
  0.00000000E+00
Coordinates of each shell                  R   N=         114
  4.50702507E+00 -8.15344230E-01 -3.85101925E-06  4.50702507E+00 -8.15344230E-01
 -3.85101925E-06  4.50702507E+00 -8.15344230E-01 -3.85101925E-06  4.50702507E+00
 -8.15344230E-01 -3.85101925E-06 -4.75976757E+00 -4.17245072E-01  4.01451377E-06
 -4.75976757E+00 -4.17245072E-01  4.01451377E-06 -4.75976757E+00 -4.17245072E-01
  4.01451377E-06 -4.75976757E+00 -4.17245072E-01  4.01451377E-06  2.46351711E-02
 -6.45122237E-01 -1.25130091E-06  2.46351711E-02 -6.45122237E-01 -1.25130091E-06
  2.46351711E-02 -6.45122237E-01 -1.25130091E-06  2.46351711E-02 -6.45122237E-01
 -1.25130091E-06 -2.36669002E+00  9.78331039E-01 -1.25522421E-05 -2.36669002E+00
  9.78331039E-01 -1.25522421E-05 -2.36669002E+00  9.78331039E-01 -1.25522421E-05
 -2.36669002E+00  9.78331039E-01 -1.25522421E-05  2.43096032E+00  9.10840776E-01
  1.12197871E-05  2.43096032E+00  9.10840776E-01  1.12197871E-05  2.43096032E+00
  9.10840776E-01  1.12197871E-05  2.43096032E+00  9.10840776E-01  1.12197871E-05
  3.92008109E-02 -1.87720359E+00  1.66582802E+00  3.92008109E-02 -1.87720359E+00
  1.66582802E+00  3.92201282E-02 -1.87720134E+00 -1.66583192E+00  3.92201282E-02
 -1.87720134E+00 -1.66583192E+00 -2.37143212E+00  2.21908015E+00 -1.65900498E+00
 -2.37143212E+00  2.21908015E+00 -1.65900498E+00 -2.37142658E+00  2.21911481E+00
  1.65895438E+00 -2.37142658E+00  2.21911481E+00  1.65895438E+00  2.48109985E+00
  2.13942889E+00  1.67711699E+00  2.48109985E+00  2.13942889E+00  1.67711699E+00
  2.48109942E+00  2.13945843E+00 -1.67707293E+00  2.48109942E+00  2.13945843E+00
 -1.67707293E+00 -4.81109957E+00 -1.57919951E+00  1.53598389E+00 -4.81109957E+00
 -1.57919951E+00  1.53598389E+00 -4.81109722E+00 -1.57924349E+00 -1.53594287E+00
 -4.81109722E+00 -1.57924349E+00 -1.53594287E+00  6.05317487E+00  1.74937533E-01
 -1.23928506E-05  6.05317487E+00  1.74937533E-01 -1.23928506E-05
Constraint Structure                       R   N=          42
  4.50702507E+00 -8.15344230E-01 -3.85101925E-06 -4.75976757E+00 -4.17245072E-01
  4.01451377E-06  2.46351711E-02 -6.45122237E-01 -1.25130091E-06 -2.36669002E+00
  9.78331039E-01 -1.25522421E-05  2.43096032E+00  9.10840776E-01  1.12197871E-05
  3.92008109E-02 -1.87720359E+00  1.66582802E+00  3.92201282E-02 -1.87720134E+00
 -1.66583192E+00 -2.37143212E+00  2.21908015E+00 -1.65900498E+00 -2.37142658E+00
  2.21911481E+00  1.65895438E+00  2.48109985E+00  2.13942889E+00  1.67711699E+00
  2.48109942E+00  2.13945843E+00 -1.67707293E+00 -4.81109957E+00 -1.57919951E+00
  1.53598389E+00 -4.81109722E+00 -1.57924349E+00 -1.53594287E+00  6.05317487E+00
  1.74937533E-01 -1.23928506E-05
Num ILSW                                   I              100
ILSW                                       I   N=         100
           0           1           0           0           2           0
           0           0           0           0           0          -1
           0           0           0           0           0           0
           0           0           0           0           1           0
           1           0           0           0           0           0
           0           0      100000           0          -1           0
           0           0           0           0           0           0
           0           0           0           1           1           0
           0           0           1           0           0           0
           0           0           4          40           0           0
           0           0           0           0           0           0
           0           0           0           0           0           0
           0           0           0           0           0           0
           0           0           0           0           0           0
           0           0           0           0           0           0
           0           0           0           0           0           0
           0           0           0           0
Num RLSW                                   I               40
RLSW                                       R   N=          40
  1.00000000E+00  1.00000000E+00  1.00000000E+00  1.00000000E+00  1.00000000E+00
  0.00000000E+00  0.00000000E+00  1.00000000E+00  0.00000000E+00  0.00000000E+00
  0.00000000E+00  0.00000000E+00  1.00000000E+00  0.00000000E+00  0.00000000E+00
  0.00000000E+00  0.00000000E+00  1.00000000E+00  0.00000000E+00  0.00000000E+00
  0.00000000E+00  0.00000000E+00  1.00000000E+00  0.00000000E+00  0.00000000E+00
  0.00000000E+00  0.00000000E+00  1.00000000E+00  0.00000000E+00  0.00000000E+00
  0.00000000E+00  0.00000000E+00  0.00000000E+00  0.00000000E+00  0.00000000E+00
  0.00000000E+00  0.00000000E+00  0.00000000E+00  1.00000000E+00  1.00000000E+00
MxBond                                     I                4
NBond                                      I   N=          14
           2           3           4           4           4           1
           1           1           1           1           1           1
           1           1
IBond                                      I   N=          56
           5          14           0           0           4          12
          13           0           4           5           6           7
           2           3           8           9           1           3
          10          11           3           0           0           0
           3           0           0           0           4           0
           0           0           4           0           0           0
           5           0           0           0           5           0
           0           0           2           0           0           0
           2           0           0           0           1           0
           0           0
RBond                                      R   N=          56
  1.00000000E+00  1.00000000E+00  0.00000000E+00  0.00000000E+00  1.00000000E+00
  1.00000000E+00  1.00000000E+00  0.00000000E+00  1.00000000E+00  1.00000000E+00
  1.00000000E+00  1.00000000E+00  1.00000000E+00  1.00000000E+00  1.00000000E+00
  1.00000000E+00  1.00000000E+00  1.00000000E+00  1.00000000E+00  1.00000000E+00
  1.00000000E+00  0.00000000E+00  0.00000000E+00  0.00000000E+00  1.00000000E+00
  0.00000000E+00  0.00000000E+00  0.00000000E+00  1.00000000E+00  0.00000000E+00
  0.00000000E+00  0.00000000E+00  1.00000000E+00  0.00000000E+00  0.00000000E+00
  0.00000000E+00  1.00000000E+00  0.00000000E+00  0.00000000E+00  0.00000000E+00
  1.00000000E+00  0.00000000E+00  0.00000000E+00  0.00000000E+00  1.00000000E+00
  0.00000000E+00  0.00000000E+00  0.00000000E+00  1.00000000E+00  0.00000000E+00
  0.00000000E+00  0.00000000E+00  1.00000000E+00  0.00000000E+00  0.00000000E+00
  0.00000000E+00
Virial Ratio                               R      2.002175567016943E+00
SCF Energy                                 R     -2.481263864864372E+02
MP2 Energy                                 R     -2.488623338098832E+02
Total Energy                               R     -2.488623338098832E+02
Post-SCF wavefunction norm                 R      1.566254792498383E+00
RMS Force                                  R      1.642287846167399E-07
RMS Density                                R      1.127394589353101E-09
External E-field                           R   N=          35
  0.00000000E+00  0.00000000E+00  0.00000000E+00  0.00000000E+00  0.00000000E+00
  0.00000000E+00  0.00000000E+00  0.00000000E+00  0.00000000E+00  0.00000000E+00
  0.00000000E+00  0.00000000E+00  0.00000000E+00  0.00000000E+00  0.00000000E+00
  0.00000000E+00  0.00000000E+00  0.00000000E+00  0.00000000E+00  0.00000000E+00
  0.00000000E+00  0.00000000E+00  0.00000000E+00  0.00000000E+00  0.00000000E+00
  0.00000000E+00  0.00000000E+00  0.00000000E+00  0.00000000E+00  0.00000000E+00
  0.00000000E+00  0.00000000E+00  0.00000000E+00  0.00000000E+00  0.00000000E+00
IOpCl                                      I                0
IROHF                                      I                0
Alpha Orbital Energies                     R   N=          93
 -2.05615750E+01 -1.55424076E+01 -1.12784745E+01 -1.12493577E+01 -1.12186679E+01
 -1.35141028E+00 -1.17610629E+00 -1.03183209E+00 -8.86250978E-01 -8.08145732E-01
 -6.88152559E-01 -6.80088219E-01 -6.36873606E-01 -5.94420533E-01 -5.54723791E-01
 -5.48962178E-01 -5.32059901E-01 -4.82815445E-01 -4.81158448E-01 -4.41747621E-01
 -3.86834133E-01  2.21095942E-01  2.21781121E-01  2.53867210E-01  2.67417436E-01
  2.99430442E-01  3.32133633E-01  3.32172083E-01  3.45147423E-01  3.59797507E-01
  3.61428215E-01  4.21225055E-01  4.52575325E-01  5.07649300E-01  7.19951626E-01
  7.69584919E-01  7.76910619E-01  7.96732383E-01  8.28231407E-01  8.66723357E-01
  9.34137467E-01  9.57290198E-01  9.59759603E-01  1.00784986E+00  1.06726389E+00
  1.07809275E+00  1.12050113E+00  1.12167870E+00  1.16570568E+00  1.17399789E+00
  1.18487870E+00  1.20294725E+00  1.21611562E+00  1.22244247E+00  1.25381023E+00
  1.25430757E+00  1.27780170E+00  1.38170567E+00  1.49436125E+00  1.62016885E+00
  1.65971511E+00  1.67525946E+00  1.72104563E+00  1.77024571E+00  1.84908096E+00
  1.98055250E+00  2.03071928E+00  2.07271947E+00  2.12449104E+00  2.23660931E+00
  2.23976402E+00  2.26153403E+00  2.34186255E+00  2.38559572E+00  2.40637781E+00
  2.41144733E+00  2.52780685E+00  2.55166782E+00  2.60476271E+00  2.72782336E+00
  2.75278533E+00  2.79126850E+00  2.83618326E+00  2.83893112E+00  2.93876726E+00
  3.04212389E+00  3.14339788E+00  3.24649021E+00  4.17334077E+00  4.20853782E+00
  4.62049549E+00  4.75370797E+00  4.92746197E+00
Alpha MO coefficients                      R   N=        8649
  9.94662039E-01  2.11558752E-02  1.53361233E-04  1.29337268E-03  1.21916919E-09
  3.80822701E-03 -8.71629288E-05 -6.74946434E-04 -9.08770245E-10 -4.18540304E-03
 -4.08242574E-03 -3.84365981E-03  5.48652958E-05  2.76162700E-09 -6.93255916E-10
 -4.10257737E-07 -6.22869189E-06  5.51889569E-06 -1.06546422E-06 -3.41514470E-11
  8.92007354E-05  4.78016461E-05  2.76924219E-05  9.99131558E-11  4.95108382E-06
 -2.35614397E-06  3.61118102E-06  7.50491146E-06 -1.24574497E-11  8.26784517E-11
 -2.17535402E-06  3.77514595E-05  2.21879771E-05 -2.04454879E-05  1.00451280E-11
  2.46685047E-04 -3.92476086E-04  2.01901233E-04  9.06218723E-10 -6.12111778E-05
 -6.41126814E-07 -2.70253098E-05 -1.32660648E-05  4.32114568E-10 -1.37826245E-10
  1.02186258E-05  5.28883338E-05 -1.34977379E-05  1.03195005E-06  1.73353971E-10
 -5.17418607E-04 -8.30654989E-05  1.52645076E-04 -2.77051843E-09 -1.20480437E-06
  9.40958213E-06  2.01406249E-05  1.99203562E-07 -4.92360240E-11  1.35491250E-10
 -2.52178410E-05  2.02675694E-04  2.51187715E-04 -2.39820027E-04 -1.82619171E-09
  2.57630279E-04  1.28901963E-04  1.00647735E-04 -1.77837608E-09  2.95987007E-05
 -8.65928541E-06 -6.24705594E-05 -6.33091118E-05 -8.01555858E-10  4.36962108E-10
  3.65879581E-05 -2.73992786E-05  3.65892596E-05 -2.74004303E-05  1.11995834E-05
  2.16120385E-05  1.11998450E-05  2.16130863E-05 -4.12600919E-05 -9.44918707E-05
 -4.12609334E-05 -9.44932054E-05 -2.62594406E-07  5.86159131E-06 -2.62593657E-07
  5.86200552E-06  4.22740309E-04 -2.11255381E-04  6.55084451E-06  3.00451298E-05
 -2.14519617E-08  1.67876139E-06 -5.77105376E-11 -1.80022083E-04  6.02030739E-05
 -2.03885460E-05  4.85350224E-10  7.35663873E-06  2.75876881E-05  1.54295436E-05
  4.30167550E-06  3.30652504E-11  3.48642998E-10  9.95050512E-01  2.48534998E-02
  1.20853479E-03 -9.46540160E-04  1.46105795E-08 -2.65838556E-03 -1.19083453E-03
  5.55813966E-04 -9.80940453E-09 -3.29643745E-03 -3.24996511E-03 -3.35391461E-03
 -1.50402908E-04  2.20737091E-09 -1.96207953E-09 -6.76872505E-06  2.40792108E-05
  1.10481072E-04  2.91505153E-05  4.17898357E-10 -5.95047670E-04 -3.04336551E-04
 -5.29333862E-04 -3.29093823E-09 -8.53547766E-05 -4.05139022E-05 -3.10478481E-05
 -1.59424945E-05 -4.74958274E-10 -9.79710845E-10 -2.17879383E-05  1.70702669E-04
 -2.22826265E-04 -1.25840483E-04  1.32149012E-09  1.71892693E-03 -2.35883201E-04
 -4.79586241E-04  9.24111717E-09 -1.60482549E-04 -1.01864520E-04 -1.08234279E-04
 -5.43194057E-05  6.46925299E-10 -1.93874155E-10 -2.31039688E-05 -1.12891066E-04
 -2.76242221E-06 -7.72223947E-06  5.19362777E-10  8.49463454E-04 -3.30428441E-04
 -2.19656703E-04 -4.84712378E-09  8.16821311E-06 -2.11404258E-05 -4.00965014E-05
  2.25374690E-05  1.73126693E-10  1.90734801E-11 -9.13459755E-06 -1.75985698E-04
 -9.13207247E-06 -1.75991988E-04 -7.71828452E-05 -1.19251460E-04 -7.71827802E-05
 -1.19256202E-04 -3.57169985E-05 -1.37036709E-06 -3.57180945E-05 -1.37174152E-06
  3.16360300E-04  5.89857921E-04  3.16360518E-04  5.89856231E-04  3.24447741E-06
  3.40829194E-05 -1.57743431E-04  7.90515580E-05 -8.34480218E-05  9.44839067E-05
  5.91266190E-10  1.75877241E-03 -5.35641317E-05 -1.09854123E-04 -1.01701108E-10
 -5.42445832E-04 -3.72966167E-04  4.50071267E-05  4.59248823E-04  4.27714183E-09
 -4.02197621E-09 -4.55943069E-05 -1.68462404E-04 -3.27961415E-05 -7.50646129E-06
  5.06284299E-10  1.08768303E-03  5.01540586E-04  1.21805744E-04 -1.80437795E-09
 -4.41719983E-05 -1.08720155E-04 -1.05400908E-04  2.05901186E-05 -2.40257901E-10
  6.96780185E-10  5.16258542E-03  1.37935288E-04  2.99715569E-05  8.65994982E-07
  2.53704495E-10  4.02627519E-03  1.84976458E-03  1.12344249E-03  1.53660381E-08
 -3.35266830E-04 -2.28566480E-04 -1.24410647E-04 -1.12670027E-04 -1.53407841E-09
 -3.49052693E-10 -1.73852026E-04 -1.63471362E-04 -7.88375283E-05 -3.76394529E-05
  1.20395860E-09  6.89039853E-05  6.45163226E-04  5.75356794E-04 -1.45914558E-08
 -5.04660377E-05 -5.11895118E-05 -7.14763027E-05 -2.69272990E-05  1.66591658E-09
  1.20839046E-09  9.95891155E-01  2.75543068E-02  5.20163363E-04 -4.40745375E-04
 -5.14283349E-09 -1.47231510E-02  1.37242767E-03  3.04057501E-04  4.55276884E-10
 -1.45416557E-03 -1.46049826E-03 -1.50460220E-03 -1.34612313E-04 -1.48875219E-09
  4.76668831E-10 -1.58344847E-04  1.53372929E-04 -1.58344473E-04  1.53379197E-04
 -4.01402406E-05 -2.79837113E-04 -4.01432068E-05 -2.79817161E-04  1.91786609E-04
  2.60924748E-03  1.91786341E-04  2.60924438E-03 -6.60103417E-05  3.79334078E-05
 -6.60127559E-05  3.79382874E-05 -1.78863754E-06  1.46033686E-04 -3.86345724E-05
 -1.54094894E-04  4.94476559E-05  8.25889900E-06 -4.95715247E-10  7.52861933E-04
 -3.87982758E-04  2.13395013E-05  1.48198095E-09 -6.45378868E-05 -1.27375445E-04
 -1.28685633E-04 -2.61262341E-05 -3.52317416E-11 -1.29753666E-10 -2.17359223E-04
  3.55415202E-05  1.89892860E-05 -2.94731353E-05  6.22260063E-10  3.01955921E-03
  1.09432298E-03  5.57849792E-04 -9.28677010E-09 -4.68074409E-04 -2.93971308E-04
 -7.77804566E-05 -2.87102119E-04  3.27944631E-09  3.03305413E-09  9.59141974E-03
  2.55396473E-04 -3.09441124E-05 -7.71585560E-06 -8.94073225E-10  4.26764635E-03
 -1.97052034E-03  1.19593901E-03 -7.00986847E-09 -3.38573089E-04 -2.86207832E-04
 -1.30143704E-04  1.49670687E-04 -1.53144408E-09  5.71210801E-10  9.95836621E-01
  2.81126208E-02 -2.23844528E-04 -2.17192421E-04  3.46443822E-09 -1.66137615E-02
 -5.64002331E-04  7.27565525E-04 -3.36370770E-09 -1.57969394E-03 -1.60657979E-03
 -1.50513561E-03  5.41339321E-05 -8.20522308E-10  1.13497056E-09  5.54848251E-05
 -1.54097054E-04  4.69968401E-05 -2.90322035E-06 -9.78045762E-10  2.46685578E-04
 -2.30415553E-04  4.49586964E-04  1.03505731E-08 -4.36459697E-05 -7.15161278E-05
 -7.23091925E-05  1.30632836E-05  1.38754683E-09 -9.41727281E-10 -1.70501503E-04
  1.27504843E-04 -1.70500862E-04  1.27506486E-04  2.43484433E-04  2.74684278E-03
  2.43483514E-04  2.74683977E-03 -2.41669554E-05 -2.85326869E-04 -2.41688265E-05
 -2.85311382E-04 -7.38898515E-05  2.11434063E-04 -7.38897969E-05  2.11429275E-04
  2.77035485E-05  8.47133703E-05  1.17870505E-05 -3.83837599E-05  6.80702897E-05
  6.40373696E-06 -5.38655907E-10 -3.64391696E-04 -1.39603568E-04 -9.44745673E-05
  2.74036118E-09  1.27537771E-04  2.86494172E-05 -6.00964569E-05  3.45750892E-05
 -1.28453813E-10  9.66641004E-10 -2.85670461E-05 -1.37576157E-04 -6.97890119E-05
  1.53353727E-05 -8.68836016E-10  3.49752264E-04 -9.06133460E-05 -7.73324346E-05
  4.41285026E-09 -6.84914111E-05 -3.47756241E-05 -1.29332438E-04 -2.14666614E-05
 -5.24164519E-10 -1.14282642E-09  9.95775626E-01  2.87175081E-02  1.06324043E-04
  1.02623777E-04  1.19388303E-09 -1.75848097E-02 -2.67403865E-04 -9.87273828E-04
 -2.10041391E-09 -1.64260631E-03 -1.67681303E-03 -1.61500725E-03 -7.57089815E-06
 -1.38251959E-11 -8.89842005E-11 -9.90468771E-03 -2.24869541E-04  9.17727768E-05
  1.12157312E-05 -1.06489515E-09  4.22100919E-03  1.61573768E-03 -1.09018324E-03
  1.42917226E-08 -3.33924132E-04 -2.66152694E-04 -8.74659559E-05  1.97262013E-04
 -1.26503087E-09  1.38622979E-09 -5.48064884E-03 -8.76660868E-05 -8.34036363E-05
  1.14191161E-05  5.40145393E-10  4.49429439E-03 -1.73940118E-03 -1.05143549E-03
 -1.39797322E-08 -3.64090614E-04 -3.00022507E-04 -8.54486774E-05 -1.84081141E-04
 -1.80384324E-09 -1.66415397E-09  2.42345776E-04  2.70649825E-03  2.42346788E-04
  2.70649567E-03 -1.53893313E-04  1.77762807E-05 -1.53892928E-04  1.77660085E-05
 -1.57935258E-04 -1.95896613E-05 -1.57934695E-04 -1.95988356E-05 -3.32203362E-05
 -1.77041451E-04 -3.32209317E-05 -1.77030888E-04  3.55426364E-05  2.27470956E-04
 -2.02232819E-01  4.54496507E-01 -1.82040059E-04  8.26348616E-02  7.62812232E-08
  4.37115064E-01 -1.66747879E-03  5.04538834E-02  4.71718447E-08  2.19788796E-02
  1.48810156E-02 -1.86718278E-03  3.68239549E-03 -1.65033079E-07 -3.36413423E-09
 -1.17827606E-03  2.12207906E-03  8.92054026E-04  1.41943510E-04 -3.55958932E-09
  1.53699068E-03  7.09200983E-04 -1.54017198E-03  4.58547572E-08  1.01198265E-04
 -1.69520983E-04 -5.28417418E-05  8.37329617E-06  1.34769734E-09  2.18421041E-09
 -1.65708245E-02  2.80147781E-02  2.10311774E-02  6.72036203E-03  3.52061118E-08
  3.47169870E-02  1.10027363E-02  7.25291864E-03  3.44368683E-08  4.69199575E-03
  5.37709516E-04 -4.70687794E-04  2.83678112E-03  1.66904793E-08  1.09713995E-08
 -2.96605425E-03  6.73403540E-03  3.38440823E-03 -1.46714276E-03  2.20429068E-08
 -1.13464096E-03 -4.96500272E-03 -7.52743069E-04 -5.01344261E-08  4.25353679E-04
  3.79540643E-04  1.48390734E-05 -2.87584482E-04  3.31164681E-10 -3.59706159E-09
 -7.03795309E-02  1.31951621E-01  7.13330577E-02 -5.81056472E-02 -5.60518027E-07