40773                                                                   
Freq      RMP2-FC                                                     6-31G(d)            
Number of atoms                            I               16
Info1-9                                    I   N=           9
          28          26        1002           0           0         100
           6           2           1
Charge                                     I                0
Multiplicity                               I                1
Number of electrons                        I              106
Number of alpha electrons                  I               53
Number of beta electrons                   I               53
Number of basis functions                  I              187
Number of independent functions            I              187
Number of point charges in /Mol/           I                0
Number of translation vectors              I                0
Atomic numbers                             I   N=          16
          17          17          17           8           6           6
           6           6           6           6           6           1
           1           1           1           1
Nuclear charges                            R   N=          16
  1.70000000E+01  1.70000000E+01  1.70000000E+01  8.00000000E+00  6.00000000E+00
  6.00000000E+00  6.00000000E+00  6.00000000E+00  6.00000000E+00  6.00000000E+00
  6.00000000E+00  1.00000000E+00  1.00000000E+00  1.00000000E+00  1.00000000E+00
  1.00000000E+00
Current cartesian coordinates              R   N=          48
  2.36674650E+00  2.73318528E+00  1.86635632E+00  5.27313351E+00 -1.08746617E-05
 -1.89915567E+00  2.36670500E+00 -2.73318820E+00  1.86634099E+00  5.40624541E-01
  1.38728453E-05 -1.88684351E+00 -1.97912612E+00  7.15615104E-06 -1.01829208E+00
 -3.22393115E+00 -2.30396174E+00 -7.47631531E-01 -3.22394829E+00  2.30397330E+00
 -7.47643582E-01 -5.77346880E+00 -2.28639738E+00 -7.21864777E-02 -5.77347993E+00
  2.28640372E+00 -7.22035125E-02 -7.04777595E+00 -1.99662966E-06  2.71063705E-01
  2.44785114E+00 -1.29059471E-06 -1.20854662E-01 -2.20918313E+00 -4.05644154E+00
 -1.06665979E+00 -2.20918601E+00  4.05644240E+00 -1.06668812E+00 -6.77038647E+00
 -4.06752565E+00  1.56503946E-01 -6.77041134E+00  4.06752592E+00  1.56470037E-01
 -9.03450005E+00 -8.08109798E-06  7.91402966E-01
Force Field                                I                0
Int Atom Types                             I   N=          16
           0           0           0           0           0           0
           0           0           0           0           0           0
           0           0           0           0
MM charges                                 R   N=          16
  0.00000000E+00  0.00000000E+00  0.00000000E+00  0.00000000E+00  0.00000000E+00
  0.00000000E+00  0.00000000E+00  0.00000000E+00  0.00000000E+00  0.00000000E+00
  0.00000000E+00  0.00000000E+00  0.00000000E+00  0.00000000E+00  0.00000000E+00
  0.00000000E+00
Integer atomic weights                     I   N=          16
          35          35          35          16          12          12
          12          12          12          12          12           1
           1           1           1           1
Real atomic weights                        R   N=          16
  3.49688527E+01  3.49688527E+01  3.49688527E+01  1.59949146E+01  1.20000000E+01
  1.20000000E+01  1.20000000E+01  1.20000000E+01  1.20000000E+01  1.20000000E+01
  1.20000000E+01  1.00782504E+00  1.00782504E+00  1.00782504E+00  1.00782504E+00
  1.00782504E+00
Atom fragment info                         I   N=          16
           0           0           0           0           0           0
           0           0           0           0           0           0
           0           0           0           0
Atom residue num                           I   N=          16
           0           0           0           0           0           0
           0           0           0           0           0           0
           0           0           0           0
Nuclear spins                              I   N=          16
           3           3           3           0           0           0
           0           0           0           0           0           1
           1           1           1           1
Nuclear ZEff                               R   N=          16
 -1.42400000E+01 -1.42400000E+01 -1.42400000E+01 -5.60000000E+00 -3.60000000E+00
 -3.60000000E+00 -3.60000000E+00 -3.60000000E+00 -3.60000000E+00 -3.60000000E+00
 -3.60000000E+00 -1.00000000E+00 -1.00000000E+00 -1.00000000E+00 -1.00000000E+00
 -1.00000000E+00
Nuclear QMom                               R   N=          16
 -8.16500000E+00 -8.16500000E+00 -8.16500000E+00  0.00000000E+00  0.00000000E+00
  0.00000000E+00  0.00000000E+00  0.00000000E+00  0.00000000E+00  0.00000000E+00
  0.00000000E+00  0.00000000E+00  0.00000000E+00  0.00000000E+00  0.00000000E+00
  0.00000000E+00
Nuclear GFac                               R   N=          16
  8.21874000E-01  8.21874000E-01  8.21874000E-01  0.00000000E+00  0.00000000E+00
  0.00000000E+00  0.00000000E+00  0.00000000E+00  0.00000000E+00  0.00000000E+00
  0.00000000E+00  2.79284600E+00  2.79284600E+00  2.79284600E+00  2.79284600E+00
  2.79284600E+00
MicOpt                                     I   N=          16
          -1          -1          -1          -1          -1          -1
          -1          -1          -1          -1          -1          -1
          -1          -1          -1          -1
Number of contracted shells                I               57
Number of primitive shells                 I              159
Pure/Cartesian d shells                    I                1
Pure/Cartesian f shells                    I                0
Highest angular momentum                   I                2
Largest degree of contraction              I                6
Shell types                                I   N=          57
           0          -1          -1          -1           2           0
          -1          -1          -1           2           0          -1
          -1          -1           2           0          -1          -1
           2           0          -1          -1           2           0
          -1          -1           2           0          -1          -1
           2           0          -1          -1           2           0
          -1          -1           2           0          -1          -1
           2           0          -1          -1           2           0
           0           0           0           0           0           0
           0           0           0
Number of primitives per shell             I   N=          57
           6           6           3           1           1           6
           6           3           1           1           6           6
           3           1           1           6           3           1
           1           6           3           1           1           6
           3           1           1           6           3           1
           1           6           3           1           1           6
           3           1           1           6           3           1
           1           6           3           1           1           3
           1           3           1           3           1           3
           1           3           1
Shell to atom map                          I   N=          57
           1           1           1           1           1           2
           2           2           2           2           3           3
           3           3           3           4           4           4
           4           5           5           5           5           6
           6           6           6           7           7           7
           7           8           8           8           8           9
           9           9           9          10          10          10
          10          11          11          11          11          12
          12          13          13          14          14          15
          15          16          16
Primitive exponents                        R   N=         159
  2.51801000E+04  3.78035000E+03  8.60474000E+02  2.42145000E+02  7.73349000E+01
  2.62470000E+01  4.91765000E+02  1.16984000E+02  3.74153000E+01  1.37834000E+01
  5.45215000E+00  2.22588000E+00  3.18649000E+00  1.14427000E+00  4.20377000E-01
  1.42657000E-01  7.50000000E-01  2.51801000E+04  3.78035000E+03  8.60474000E+02
  2.42145000E+02  7.73349000E+01  2.62470000E+01  4.91765000E+02  1.16984000E+02
  3.74153000E+01  1.37834000E+01  5.45215000E+00  2.22588000E+00  3.18649000E+00
  1.14427000E+00  4.20377000E-01  1.42657000E-01  7.50000000E-01  2.51801000E+04
  3.78035000E+03  8.60474000E+02  2.42145000E+02  7.73349000E+01  2.62470000E+01
  4.91765000E+02  1.16984000E+02  3.74153000E+01  1.37834000E+01  5.45215000E+00
  2.22588000E+00  3.18649000E+00  1.14427000E+00  4.20377000E-01  1.42657000E-01
  7.50000000E-01  5.48467166E+03  8.25234946E+02  1.88046958E+02  5.29645000E+01
  1.68975704E+01  5.79963534E+00  1.55396162E+01  3.59993359E+00  1.01376175E+00
  2.70005823E-01  8.00000000E-01  3.04752488E+03  4.57369518E+02  1.03948685E+02
  2.92101553E+01  9.28666296E+00  3.16392696E+00  7.86827235E+00  1.88128854E+00
  5.44249258E-01  1.68714478E-01  8.00000000E-01  3.04752488E+03  4.57369518E+02
  1.03948685E+02  2.92101553E+01  9.28666296E+00  3.16392696E+00  7.86827235E+00
  1.88128854E+00  5.44249258E-01  1.68714478E-01  8.00000000E-01  3.04752488E+03
  4.57369518E+02  1.03948685E+02  2.92101553E+01  9.28666296E+00  3.16392696E+00
  7.86827235E+00  1.88128854E+00  5.44249258E-01  1.68714478E-01  8.00000000E-01
  3.04752488E+03  4.57369518E+02  1.03948685E+02  2.92101553E+01  9.28666296E+00
  3.16392696E+00  7.86827235E+00  1.88128854E+00  5.44249258E-01  1.68714478E-01
  8.00000000E-01  3.04752488E+03  4.57369518E+02  1.03948685E+02  2.92101553E+01
  9.28666296E+00  3.16392696E+00  7.86827235E+00  1.88128854E+00  5.44249258E-01
  1.68714478E-01  8.00000000E-01  3.04752488E+03  4.57369518E+02  1.03948685E+02
  2.92101553E+01  9.28666296E+00  3.16392696E+00  7.86827235E+00  1.88128854E+00
  5.44249258E-01  1.68714478E-01  8.00000000E-01  3.04752488E+03  4.57369518E+02
  1.03948685E+02  2.92101553E+01  9.28666296E+00  3.16392696E+00  7.86827235E+00
  1.88128854E+00  5.44249258E-01  1.68714478E-01  8.00000000E-01  1.87311370E+01
  2.82539436E+00  6.40121692E-01  1.61277759E-01  1.87311370E+01  2.82539436E+00
  6.40121692E-01  1.61277759E-01  1.87311370E+01  2.82539436E+00  6.40121692E-01
  1.61277759E-01  1.87311370E+01  2.82539436E+00  6.40121692E-01  1.61277759E-01
  1.87311370E+01  2.82539436E+00  6.40121692E-01  1.61277759E-01
Contraction coefficients                   R   N=         159
  1.83295985E-03  1.40341988E-02  6.90973943E-02  2.37451980E-01  4.83033960E-01
  3.39855972E-01 -2.29739142E-03 -3.07137189E-02 -1.12528069E-01  4.50163278E-02
  5.89353363E-01  4.65206287E-01 -2.51828028E-01  6.15892514E-02  1.06018433E+00
  1.00000000E+00  1.00000000E+00  1.83295985E-03  1.40341988E-02  6.90973943E-02
  2.37451980E-01  4.83033960E-01  3.39855972E-01 -2.29739142E-03 -3.07137189E-02
 -1.12528069E-01  4.50163278E-02  5.89353363E-01  4.65206287E-01 -2.51828028E-01
  6.15892514E-02  1.06018433E+00  1.00000000E+00  1.00000000E+00  1.83295985E-03
  1.40341988E-02  6.90973943E-02  2.37451980E-01  4.83033960E-01  3.39855972E-01
 -2.29739142E-03 -3.07137189E-02 -1.12528069E-01  4.50163278E-02  5.89353363E-01
  4.65206287E-01 -2.51828028E-01  6.15892514E-02  1.06018433E+00  1.00000000E+00
  1.00000000E+00  1.83107443E-03  1.39501722E-02  6.84450781E-02  2.32714336E-01
  4.70192898E-01  3.58520853E-01 -1.10777550E-01 -1.48026263E-01  1.13076702E+00
  1.00000000E+00  1.00000000E+00  1.83473713E-03  1.40373228E-02  6.88426223E-02
  2.32184443E-01  4.67941348E-01  3.62311985E-01 -1.19332420E-01 -1.60854152E-01
  1.14345644E+00  1.00000000E+00  1.00000000E+00  1.83473713E-03  1.40373228E-02
  6.88426223E-02  2.32184443E-01  4.67941348E-01  3.62311985E-01 -1.19332420E-01
 -1.60854152E-01  1.14345644E+00  1.00000000E+00  1.00000000E+00  1.83473713E-03
  1.40373228E-02  6.88426223E-02  2.32184443E-01  4.67941348E-01  3.62311985E-01
 -1.19332420E-01 -1.60854152E-01  1.14345644E+00  1.00000000E+00  1.00000000E+00
  1.83473713E-03  1.40373228E-02  6.88426223E-02  2.32184443E-01  4.67941348E-01
  3.62311985E-01 -1.19332420E-01 -1.60854152E-01  1.14345644E+00  1.00000000E+00
  1.00000000E+00  1.83473713E-03  1.40373228E-02  6.88426223E-02  2.32184443E-01
  4.67941348E-01  3.62311985E-01 -1.19332420E-01 -1.60854152E-01  1.14345644E+00
  1.00000000E+00  1.00000000E+00  1.83473713E-03  1.40373228E-02  6.88426223E-02
  2.32184443E-01  4.67941348E-01  3.62311985E-01 -1.19332420E-01 -1.60854152E-01
  1.14345644E+00  1.00000000E+00  1.00000000E+00  1.83473713E-03  1.40373228E-02
  6.88426223E-02  2.32184443E-01  4.67941348E-01  3.62311985E-01 -1.19332420E-01
 -1.60854152E-01  1.14345644E+00  1.00000000E+00  1.00000000E+00  3.34946043E-02
  2.34726953E-01  8.13757326E-01  1.00000000E+00  3.34946043E-02  2.34726953E-01
  8.13757326E-01  1.00000000E+00  3.34946043E-02  2.34726953E-01  8.13757326E-01
  1.00000000E+00  3.34946043E-02  2.34726953E-01  8.13757326E-01  1.00000000E+00
  3.34946043E-02  2.34726953E-01  8.13757326E-01  1.00000000E+00
P(S=P) Contraction coefficients            R   N=         159
  0.00000000E+00  0.00000000E+00  0.00000000E+00  0.00000000E+00  0.00000000E+00
  0.00000000E+00  3.98940088E-03  3.03177067E-02  1.29880029E-01  3.27951072E-01
  4.53527100E-01  2.52154056E-01 -1.42993147E-02  3.23572333E-01  7.43507765E-01
  1.00000000E+00  0.00000000E+00  0.00000000E+00  0.00000000E+00  0.00000000E+00
  0.00000000E+00  0.00000000E+00  0.00000000E+00  3.98940088E-03  3.03177067E-02
  1.29880029E-01  3.27951072E-01  4.53527100E-01  2.52154056E-01 -1.42993147E-02
  3.23572333E-01  7.43507765E-01  1.00000000E+00  0.00000000E+00  0.00000000E+00
  0.00000000E+00  0.00000000E+00  0.00000000E+00  0.00000000E+00  0.00000000E+00
  3.98940088E-03  3.03177067E-02  1.29880029E-01  3.27951072E-01  4.53527100E-01
  2.52154056E-01 -1.42993147E-02  3.23572333E-01  7.43507765E-01  1.00000000E+00
  0.00000000E+00  0.00000000E+00  0.00000000E+00  0.00000000E+00  0.00000000E+00
  0.00000000E+00  0.00000000E+00  7.08742682E-02  3.39752839E-01  7.27158577E-01
  1.00000000E+00  0.00000000E+00  0.00000000E+00  0.00000000E+00  0.00000000E+00
  0.00000000E+00  0.00000000E+00  0.00000000E+00  6.89990666E-02  3.16423961E-01
  7.44308291E-01  1.00000000E+00  0.00000000E+00  0.00000000E+00  0.00000000E+00
  0.00000000E+00  0.00000000E+00  0.00000000E+00  0.00000000E+00  6.89990666E-02
  3.16423961E-01  7.44308291E-01  1.00000000E+00  0.00000000E+00  0.00000000E+00
  0.00000000E+00  0.00000000E+00  0.00000000E+00  0.00000000E+00  0.00000000E+00
  6.89990666E-02  3.16423961E-01  7.44308291E-01  1.00000000E+00  0.00000000E+00
  0.00000000E+00  0.00000000E+00  0.00000000E+00  0.00000000E+00  0.00000000E+00
  0.00000000E+00  6.89990666E-02  3.16423961E-01  7.44308291E-01  1.00000000E+00
  0.00000000E+00  0.00000000E+00  0.00000000E+00  0.00000000E+00  0.00000000E+00
  0.00000000E+00  0.00000000E+00  6.89990666E-02  3.16423961E-01  7.44308291E-01
  1.00000000E+00  0.00000000E+00  0.00000000E+00  0.00000000E+00  0.00000000E+00
  0.00000000E+00  0.00000000E+00  0.00000000E+00  6.89990666E-02  3.16423961E-01
  7.44308291E-01  1.00000000E+00  0.00000000E+00  0.00000000E+00  0.00000000E+00
  0.00000000E+00  0.00000000E+00  0.00000000E+00  0.00000000E+00  6.89990666E-02
  3.16423961E-01  7.44308291E-01  1.00000000E+00  0.00000000E+00  0.00000000E+00
  0.00000000E+00  0.00000000E+00  0.00000000E+00  0.00000000E+00  0.00000000E+00
  0.00000000E+00  0.00000000E+00  0.00000000E+00  0.00000000E+00  0.00000000E+00
  0.00000000E+00  0.00000000E+00  0.00000000E+00  0.00000000E+00  0.00000000E+00
  0.00000000E+00  0.00000000E+00  0.00000000E+00  0.00000000E+00
Coordinates of each shell                  R   N=         171
  2.36674650E+00  2.73318528E+00  1.86635632E+00  2.36674650E+00  2.73318528E+00
  1.86635632E+00  2.36674650E+00  2.73318528E+00  1.86635632E+00  2.36674650E+00
  2.73318528E+00  1.86635632E+00  2.36674650E+00  2.73318528E+00  1.86635632E+00
  5.27313351E+00 -1.08746617E-05 -1.89915567E+00  5.27313351E+00 -1.08746617E-05
 -1.89915567E+00  5.27313351E+00 -1.08746617E-05 -1.89915567E+00  5.27313351E+00
 -1.08746617E-05 -1.89915567E+00  5.27313351E+00 -1.08746617E-05 -1.89915567E+00
  2.36670500E+00 -2.73318820E+00  1.86634099E+00  2.36670500E+00 -2.73318820E+00
  1.86634099E+00  2.36670500E+00 -2.73318820E+00  1.86634099E+00  2.36670500E+00
 -2.73318820E+00  1.86634099E+00  2.36670500E+00 -2.73318820E+00  1.86634099E+00
  5.40624541E-01  1.38728453E-05 -1.88684351E+00  5.40624541E-01  1.38728453E-05
 -1.88684351E+00  5.40624541E-01  1.38728453E-05 -1.88684351E+00  5.40624541E-01
  1.38728453E-05 -1.88684351E+00 -1.97912612E+00  7.15615104E-06 -1.01829208E+00
 -1.97912612E+00  7.15615104E-06 -1.01829208E+00 -1.97912612E+00  7.15615104E-06
 -1.01829208E+00 -1.97912612E+00  7.15615104E-06 -1.01829208E+00 -3.22393115E+00
 -2.30396174E+00 -7.47631531E-01 -3.22393115E+00 -2.30396174E+00 -7.47631531E-01
 -3.22393115E+00 -2.30396174E+00 -7.47631531E-01 -3.22393115E+00 -2.30396174E+00
 -7.47631531E-01 -3.22394829E+00  2.30397330E+00 -7.47643582E-01 -3.22394829E+00
  2.30397330E+00 -7.47643582E-01 -3.22394829E+00  2.30397330E+00 -7.47643582E-01
 -3.22394829E+00  2.30397330E+00 -7.47643582E-01 -5.77346880E+00 -2.28639738E+00
 -7.21864777E-02 -5.77346880E+00 -2.28639738E+00 -7.21864777E-02 -5.77346880E+00
 -2.28639738E+00 -7.21864777E-02 -5.77346880E+00 -2.28639738E+00 -7.21864777E-02
 -5.77347993E+00  2.28640372E+00 -7.22035125E-02 -5.77347993E+00  2.28640372E+00
 -7.22035125E-02 -5.77347993E+00  2.28640372E+00 -7.22035125E-02 -5.77347993E+00
  2.28640372E+00 -7.22035125E-02 -7.04777595E+00 -1.99662966E-06  2.71063705E-01
 -7.04777595E+00 -1.99662966E-06  2.71063705E-01 -7.04777595E+00 -1.99662966E-06
  2.71063705E-01 -7.04777595E+00 -1.99662966E-06  2.71063705E-01  2.44785114E+00
 -1.29059471E-06 -1.20854662E-01  2.44785114E+00 -1.29059471E-06 -1.20854662E-01
  2.44785114E+00 -1.29059471E-06 -1.20854662E-01  2.44785114E+00 -1.29059471E-06
 -1.20854662E-01 -2.20918313E+00 -4.05644154E+00 -1.06665979E+00 -2.20918313E+00
 -4.05644154E+00 -1.06665979E+00 -2.20918601E+00  4.05644240E+00 -1.06668812E+00
 -2.20918601E+00  4.05644240E+00 -1.06668812E+00 -6.77038647E+00 -4.06752565E+00
  1.56503946E-01 -6.77038647E+00 -4.06752565E+00  1.56503946E-01 -6.77041134E+00
  4.06752592E+00  1.56470037E-01 -6.77041134E+00  4.06752592E+00  1.56470037E-01
 -9.03450005E+00 -8.08109798E-06  7.91402966E-01 -9.03450005E+00 -8.08109798E-06
  7.91402966E-01
Constraint Structure                       R   N=          48
  2.36674650E+00  2.73318528E+00  1.86635632E+00  5.27313351E+00 -1.08746617E-05
 -1.89915567E+00  2.36670500E+00 -2.73318820E+00  1.86634099E+00  5.40624541E-01
  1.38728453E-05 -1.88684351E+00 -1.97912612E+00  7.15615104E-06 -1.01829208E+00
 -3.22393115E+00 -2.30396174E+00 -7.47631531E-01 -3.22394829E+00  2.30397330E+00
 -7.47643582E-01 -5.77346880E+00 -2.28639738E+00 -7.21864777E-02 -5.77347993E+00
  2.28640372E+00 -7.22035125E-02 -7.04777595E+00 -1.99662966E-06  2.71063705E-01
  2.44785114E+00 -1.29059471E-06 -1.20854662E-01 -2.20918313E+00 -4.05644154E+00
 -1.06665979E+00 -2.20918601E+00  4.05644240E+00 -1.06668812E+00 -6.77038647E+00
 -4.06752565E+00  1.56503946E-01 -6.77041134E+00  4.06752592E+00  1.56470037E-01
 -9.03450005E+00 -8.08109798E-06  7.91402966E-01
Num ILSW                                   I              100
ILSW                                       I   N=         100
           0           1           0           0           2           0
           0           0           0           0           0          -1
           0           0           0           0           0           0
           0           0           0           0           1           0
           1           0           0           0           0           0
           0           0      100000           0          -1           0
           0           0           0           0           0           0
           0           0           0           1           1           0
           0           0           1           0           0           0
           0           0           4          40           0           0
           0           0           0           0           0           0
           0           0           0           0           0           0
           0           0           0           0           0           0
           0           0           0           0           0           0
           0           0           0           0           0           0
           0           0           0           0           0           0
           0           0           0           0
Num RLSW                                   I               40
RLSW                                       R   N=          40
  1.00000000E+00  1.00000000E+00  1.00000000E+00  1.00000000E+00  1.00000000E+00
  0.00000000E+00  0.00000000E+00  1.00000000E+00  0.00000000E+00  0.00000000E+00
  0.00000000E+00  0.00000000E+00  1.00000000E+00  0.00000000E+00  0.00000000E+00
  0.00000000E+00  0.00000000E+00  1.00000000E+00  0.00000000E+00  0.00000000E+00
  0.00000000E+00  0.00000000E+00  1.00000000E+00  0.00000000E+00  0.00000000E+00
  0.00000000E+00  0.00000000E+00  1.00000000E+00  0.00000000E+00  0.00000000E+00
  0.00000000E+00  0.00000000E+00  0.00000000E+00  0.00000000E+00  0.00000000E+00
  0.00000000E+00  0.00000000E+00  0.00000000E+00  1.00000000E+00  1.00000000E+00
MxBond                                     I                4
NBond                                      I   N=          16
           1           1           1           2           3           3
           3           3           3           3           4           1
           1           1           1           1
IBond                                      I   N=          64
          11           0           0           0          11           0
           0           0          11           0           0           0
           5          11           0           0           4           6
           7           0           5           8          12           0
           5           9          13           0           6          10
          14           0           7          10          15           0
           8           9          16           0           1           2
           3           4           6           0           0           0
           7           0           0           0           8           0
           0           0           9           0           0           0
          10           0           0           0
RBond                                      R   N=          64
  1.00000000E+00  0.00000000E+00  0.00000000E+00  0.00000000E+00  1.00000000E+00
  0.00000000E+00  0.00000000E+00  0.00000000E+00  1.00000000E+00  0.00000000E+00
  0.00000000E+00  0.00000000E+00  1.50000000E+00  1.00000000E+00  0.00000000E+00
  0.00000000E+00  1.50000000E+00  1.50000000E+00  1.50000000E+00  0.00000000E+00
  1.50000000E+00  1.50000000E+00  1.00000000E+00  0.00000000E+00  1.50000000E+00
  1.50000000E+00  1.00000000E+00  0.00000000E+00  1.50000000E+00  1.50000000E+00
  1.00000000E+00  0.00000000E+00  1.50000000E+00  1.50000000E+00  1.00000000E+00
  0.00000000E+00  1.50000000E+00  1.50000000E+00  1.00000000E+00  0.00000000E+00
  1.00000000E+00  1.00000000E+00  1.00000000E+00  1.00000000E+00  1.00000000E+00
  0.00000000E+00  0.00000000E+00  0.00000000E+00  1.00000000E+00  0.00000000E+00
  0.00000000E+00  0.00000000E+00  1.00000000E+00  0.00000000E+00  0.00000000E+00
  0.00000000E+00  1.00000000E+00  0.00000000E+00  0.00000000E+00  0.00000000E+00
  1.00000000E+00  0.00000000E+00  0.00000000E+00  0.00000000E+00
Virial Ratio                               R      2.000754223402003E+00
SCF Energy                                 R     -1.721253067591489E+03
MP2 Energy                                 R     -1.722720576954261E+03
Total Energy                               R     -1.722720576954261E+03
Post-SCF wavefunction norm                 R      1.745825159109886E+00
RMS Force                                  R      1.048257588003314E-06
RMS Density                                R      2.330021505346637E-09
External E-field                           R   N=          35
  0.00000000E+00  0.00000000E+00  0.00000000E+00  0.00000000E+00  0.00000000E+00
  0.00000000E+00  0.00000000E+00  0.00000000E+00  0.00000000E+00  0.00000000E+00
  0.00000000E+00  0.00000000E+00  0.00000000E+00  0.00000000E+00  0.00000000E+00
  0.00000000E+00  0.00000000E+00  0.00000000E+00  0.00000000E+00  0.00000000E+00
  0.00000000E+00  0.00000000E+00  0.00000000E+00  0.00000000E+00  0.00000000E+00
  0.00000000E+00  0.00000000E+00  0.00000000E+00  0.00000000E+00  0.00000000E+00
  0.00000000E+00  0.00000000E+00  0.00000000E+00  0.00000000E+00  0.00000000E+00
IOpCl                                      I                0
IROHF                                      I                0
Alpha Orbital Energies                     R   N=         187
 -1.04848993E+02 -1.04848593E+02 -1.04848592E+02 -2.06394876E+01 -1.14938989E+01
 -1.13167515E+01 -1.12550305E+01 -1.12550269E+01 -1.12537308E+01 -1.12534354E+01
 -1.12515286E+01 -1.05835983E+01 -1.05832380E+01 -1.05832210E+01 -8.05301073E+00
 -8.05255417E+00 -8.05254247E+00 -8.04908574E+00 -8.04907819E+00 -8.04881171E+00
 -8.04880813E+00 -8.04875594E+00 -8.04875500E+00 -1.47106364E+00 -1.22253058E+00
 -1.16134809E+00 -1.11755163E+00 -1.11455215E+00 -1.03280151E+00 -1.02721402E+00
 -8.85012544E-01 -8.51262701E-01 -8.05976768E-01 -7.34476727E-01 -6.96972934E-01
 -6.94778653E-01 -6.87633664E-01 -6.33627240E-01 -6.29388037E-01 -6.05275130E-01
 -5.81372322E-01 -5.36129324E-01 -5.33282473E-01 -5.13964635E-01 -5.08685012E-01
 -4.98344510E-01 -4.90868830E-01 -4.79411526E-01 -4.60276330E-01 -4.59482561E-01
 -4.47623357E-01 -3.49096525E-01 -3.47006415E-01  1.10033978E-01  1.26701076E-01
  1.36438859E-01  1.81556841E-01  1.87234295E-01  2.21076788E-01  2.79933167E-01
  2.86188424E-01  3.14290774E-01  3.18537156E-01  3.24866339E-01  3.46273016E-01
  4.08591725E-01  4.25268119E-01  4.58438810E-01  4.77135189E-01  5.10795923E-01
  5.13279353E-01  5.37883082E-01  5.46935388E-01  5.87181166E-01  5.97914935E-01
  6.19890776E-01  6.28125035E-01  6.28398601E-01  6.65640150E-01  6.84069852E-01
  6.84424967E-01  6.94598632E-01  7.11464293E-01  7.22533456E-01  7.27547776E-01
  7.64050619E-01  7.71511914E-01  7.80209992E-01  7.96330230E-01  8.20382204E-01
  8.21451778E-01  8.24880514E-01  8.24987561E-01  8.36085412E-01  8.61561404E-01
  8.83308633E-01  8.91400466E-01  9.37417399E-01  9.78452940E-01  9.88244613E-01
  1.04245097E+00  1.04516646E+00  1.06311934E+00  1.09497920E+00  1.09902999E+00
  1.10424023E+00  1.12043892E+00  1.12268820E+00  1.12869266E+00  1.13005322E+00
  1.15621795E+00  1.15988836E+00  1.16304636E+00  1.17238082E+00  1.18413959E+00
  1.18801718E+00  1.19586217E+00  1.23454529E+00  1.26093179E+00  1.27995484E+00
  1.29974997E+00  1.33813581E+00  1.34372300E+00  1.34885456E+00  1.36028803E+00
  1.40513252E+00  1.44030909E+00  1.45107176E+00  1.50357759E+00  1.53716807E+00
  1.56308433E+00  1.56712982E+00  1.63312362E+00  1.68856064E+00  1.69004203E+00
  1.73924208E+00  1.75053485E+00  1.77286372E+00  1.79807317E+00  1.83331669E+00
  1.86264989E+00  1.95609671E+00  2.04056676E+00  2.08688397E+00  2.09990348E+00
  2.14174263E+00  2.17011526E+00  2.20896671E+00  2.26494645E+00  2.28253866E+00
  2.33909125E+00  2.34365635E+00  2.37667852E+00  2.37995920E+00  2.42318828E+00
  2.43976353E+00  2.45212927E+00  2.46893812E+00  2.53887031E+00  2.57734944E+00
  2.58084751E+00  2.61360838E+00  2.72864314E+00  2.78428420E+00  2.83011535E+00
  2.89341580E+00  2.98722054E+00  3.00547075E+00  3.04006497E+00  3.05393060E+00
  3.07147086E+00  3.18060445E+00  3.19331981E+00  3.38368935E+00  3.45179247E+00
  3.77504205E+00  4.37396271E+00  4.49756393E+00  4.51713553E+00  4.52565837E+00
  4.61256047E+00  4.70390498E+00  4.71890292E+00  4.75730484E+00  4.77111650E+00
  4.82797675E+00  5.13676069E+00
Alpha MO coefficients                      R   N=       34969
 -1.97845471E-03 -2.50725622E-05  4.33781487E-07 -3.07132803E-06 -1.67485103E-06
  7.77373470E-05  3.57506590E-08  1.51727921E-05  6.69917977E-06 -1.34444697E-04
 -3.92927148E-05  4.41924573E-05  6.01181333E-05 -1.38650710E-05 -1.79574419E-05
 -2.10279424E-05  9.99874395E-06  1.13332243E-05 -1.51186773E-05  9.96112681E-01
  1.46435392E-02 -4.99453989E-05  1.34437579E-10  3.41555218E-05 -1.77362055E-02
  5.47808353E-05 -2.06113451E-10 -4.09627851E-05  1.47692782E-03 -5.50435124E-05
  2.41456896E-10  4.24487451E-05  6.25900606E-03  6.25807379E-03  6.25642881E-03
  7.85255958E-12 -9.87877060E-07  4.28968882E-12 -1.98067913E-03 -2.51052202E-05
  4.33842525E-07  3.07122664E-06 -1.67475389E-06  7.77769811E-05  3.54712917E-08
 -1.51727235E-05  6.69899355E-06 -1.34448952E-04 -3.92933436E-05 -4.41927343E-05
  6.01182707E-05 -1.38791948E-05 -1.79712067E-05 -2.10416663E-05 -9.99895575E-06
  1.13334437E-05  1.51185426E-05  3.63933169E-06  7.83565503E-06 -1.02855648E-05
  8.70143610E-11 -6.61997534E-06 -9.62270845E-05 -2.52328973E-05 -1.84094375E-10
  1.81136776E-05  1.80067063E-05 -1.93278958E-06  1.07460519E-05 -1.00675738E-10
  1.60304478E-07 -1.07861272E-10 -2.28901127E-06 -4.06919219E-06 -5.82713724E-06
 -6.79683411E-11  1.09600532E-06  4.96813285E-05 -7.25945741E-06  1.63801224E-09
 -3.58322378E-06 -9.19836707E-06 -3.69328439E-06 -6.26532826E-06 -1.56402162E-10