opt=Tight                                                               
Freq      RMP2-FC                                                     6-31G(d)            
Number of atoms                            I               13
Info1-9                                    I   N=           9
          22          22        1002           0           0         100
           6           2           1
Charge                                     I               -3
Multiplicity                               I                1
Number of electrons                        I               98
Number of alpha electrons                  I               49
Number of beta electrons                   I               49
Number of basis functions                  I              164
Number of independent functions            I              164
Number of point charges in /Mol/           I                0
Number of translation vectors              I                0
Atomic numbers                             I   N=          13
          15          15           8           8           8           8
           8           8           8           6           1           1
           1
Nuclear charges                            R   N=          13
  1.50000000E+01  1.50000000E+01  8.00000000E+00  8.00000000E+00  8.00000000E+00
  8.00000000E+00  8.00000000E+00  8.00000000E+00  8.00000000E+00  6.00000000E+00
  1.00000000E+00  1.00000000E+00  1.00000000E+00
Current cartesian coordinates              R   N=          39
 -2.12660281E+00  6.78736140E-01  1.53649623E-02  3.94549439E+00 -1.99076765E-01
  1.44146825E-03 -4.04238505E+00 -2.07476626E+00 -2.16787471E-01  4.54662704E-01
 -7.84037899E-01 -2.53159703E-01 -2.95344593E+00  2.23421066E+00 -2.27180347E+00
 -2.78777636E+00  1.71385633E+00  2.62445031E+00  4.60822815E+00 -1.67697855E+00
  2.41096358E+00  4.15547697E+00  2.68557570E+00  1.64238752E-01  4.85218061E+00
 -1.41331875E+00 -2.47704471E+00 -6.59646927E+00 -1.45969719E+00 -2.79442148E-02
 -7.05534581E+00 -5.56175316E-01  1.79431427E+00 -7.20254378E+00 -1.48933638E-01
 -1.53285505E+00 -7.74219721E+00 -3.20792851E+00 -1.92748673E-01
Force Field                                I                0
Int Atom Types                             I   N=          13
           0           0           0           0           0           0
           0           0           0           0           0           0
           0
MM charges                                 R   N=          13
  0.00000000E+00  0.00000000E+00  0.00000000E+00  0.00000000E+00  0.00000000E+00
  0.00000000E+00  0.00000000E+00  0.00000000E+00  0.00000000E+00  0.00000000E+00
  0.00000000E+00  0.00000000E+00  0.00000000E+00
Integer atomic weights                     I   N=          13
          31          31          16          16          16          16
          16          16          16          12           1           1
           1
Real atomic weights                        R   N=          13
  3.09737634E+01  3.09737634E+01  1.59949146E+01  1.59949146E+01  1.59949146E+01
  1.59949146E+01  1.59949146E+01  1.59949146E+01  1.59949146E+01  1.20000000E+01
  1.00782504E+00  1.00782504E+00  1.00782504E+00
Atom fragment info                         I   N=          13
           0           0           0           0           0           0
           0           0           0           0           0           0
           0
Atom residue num                           I   N=          13
           0           0           0           0           0           0
           0           0           0           0           0           0
           0
Nuclear spins                              I   N=          13
           1           1           0           0           0           0
           0           0           0           0           1           1
           1
Nuclear ZEff                               R   N=          13
 -1.29400000E+01 -1.29400000E+01 -5.60000000E+00 -5.60000000E+00 -5.60000000E+00
 -5.60000000E+00 -5.60000000E+00 -5.60000000E+00 -5.60000000E+00 -3.60000000E+00
 -1.00000000E+00 -1.00000000E+00 -1.00000000E+00
Nuclear QMom                               R   N=          13
  0.00000000E+00  0.00000000E+00  0.00000000E+00  0.00000000E+00  0.00000000E+00
  0.00000000E+00  0.00000000E+00  0.00000000E+00  0.00000000E+00  0.00000000E+00
  0.00000000E+00  0.00000000E+00  0.00000000E+00
Nuclear GFac                               R   N=          13
  1.13160000E+00  1.13160000E+00  0.00000000E+00  0.00000000E+00  0.00000000E+00
  0.00000000E+00  0.00000000E+00  0.00000000E+00  0.00000000E+00  0.00000000E+00
  2.79284600E+00  2.79284600E+00  2.79284600E+00
MicOpt                                     I   N=          13
          -1          -1          -1          -1          -1          -1
          -1          -1          -1          -1          -1          -1
          -1
Number of contracted shells                I               48
Number of primitive shells                 I              134
Pure/Cartesian d shells                    I                1
Pure/Cartesian f shells                    I                0
Highest angular momentum                   I                2
Largest degree of contraction              I                6
Shell types                                I   N=          48
           0          -1          -1          -1           2           0
          -1          -1          -1           2           0          -1
          -1           2           0          -1          -1           2
           0          -1          -1           2           0          -1
          -1           2           0          -1          -1           2
           0          -1          -1           2           0          -1
          -1           2           0          -1          -1           2
           0           0           0           0           0           0
Number of primitives per shell             I   N=          48
           6           6           3           1           1           6
           6           3           1           1           6           3
           1           1           6           3           1           1
           6           3           1           1           6           3
           1           1           6           3           1           1
           6           3           1           1           6           3
           1           1           6           3           1           1
           3           1           3           1           3           1
Shell to atom map                          I   N=          48
           1           1           1           1           1           2
           2           2           2           2           3           3
           3           3           4           4           4           4
           5           5           5           5           6           6
           6           6           7           7           7           7
           8           8           8           8           9           9
           9           9          10          10          10          10
          11          11          12          12          13          13
Primitive exponents                        R   N=         134
  1.94133000E+04  2.90942000E+03  6.61364000E+02  1.85759000E+02  5.91943000E+01
  2.00310000E+01  3.39478000E+02  8.10101000E+01  2.58780000E+01  9.45221000E+00
  3.66566000E+00  1.46746000E+00  2.15623000E+00  7.48997000E-01  2.83145000E-01
  9.98317000E-02  5.50000000E-01  1.94133000E+04  2.90942000E+03  6.61364000E+02
  1.85759000E+02  5.91943000E+01  2.00310000E+01  3.39478000E+02  8.10101000E+01
  2.58780000E+01  9.45221000E+00  3.66566000E+00  1.46746000E+00  2.15623000E+00
  7.48997000E-01  2.83145000E-01  9.98317000E-02  5.50000000E-01  5.48467166E+03
  8.25234946E+02  1.88046958E+02  5.29645000E+01  1.68975704E+01  5.79963534E+00
  1.55396162E+01  3.59993359E+00  1.01376175E+00  2.70005823E-01  8.00000000E-01
  5.48467166E+03  8.25234946E+02  1.88046958E+02  5.29645000E+01  1.68975704E+01
  5.79963534E+00  1.55396162E+01  3.59993359E+00  1.01376175E+00  2.70005823E-01
  8.00000000E-01  5.48467166E+03  8.25234946E+02  1.88046958E+02  5.29645000E+01
  1.68975704E+01  5.79963534E+00  1.55396162E+01  3.59993359E+00  1.01376175E+00
  2.70005823E-01  8.00000000E-01  5.48467166E+03  8.25234946E+02  1.88046958E+02
  5.29645000E+01  1.68975704E+01  5.79963534E+00  1.55396162E+01  3.59993359E+00
  1.01376175E+00  2.70005823E-01  8.00000000E-01  5.48467166E+03  8.25234946E+02
  1.88046958E+02  5.29645000E+01  1.68975704E+01  5.79963534E+00  1.55396162E+01
  3.59993359E+00  1.01376175E+00  2.70005823E-01  8.00000000E-01  5.48467166E+03
  8.25234946E+02  1.88046958E+02  5.29645000E+01  1.68975704E+01  5.79963534E+00
  1.55396162E+01  3.59993359E+00  1.01376175E+00  2.70005823E-01  8.00000000E-01
  5.48467166E+03  8.25234946E+02  1.88046958E+02  5.29645000E+01  1.68975704E+01
  5.79963534E+00  1.55396162E+01  3.59993359E+00  1.01376175E+00  2.70005823E-01
  8.00000000E-01  3.04752488E+03  4.57369518E+02  1.03948685E+02  2.92101553E+01
  9.28666296E+00  3.16392696E+00  7.86827235E+00  1.88128854E+00  5.44249258E-01
  1.68714478E-01  8.00000000E-01  1.87311370E+01  2.82539436E+00  6.40121692E-01
  1.61277759E-01  1.87311370E+01  2.82539436E+00  6.40121692E-01  1.61277759E-01
  1.87311370E+01  2.82539436E+00  6.40121692E-01  1.61277759E-01
Contraction coefficients                   R   N=         134
  1.85159892E-03  1.42061917E-02  6.99994593E-02  2.40078860E-01  4.84761718E-01
  3.35199805E-01 -2.78217010E-03 -3.60499014E-02 -1.16631004E-01  9.68328036E-02
  6.14418023E-01  4.03798015E-01 -2.52924114E-01  3.28518447E-02  1.08125476E+00
  1.00000000E+00  1.00000000E+00  1.85159892E-03  1.42061917E-02  6.99994593E-02
  2.40078860E-01  4.84761718E-01  3.35199805E-01 -2.78217010E-03 -3.60499014E-02
 -1.16631004E-01  9.68328036E-02  6.14418023E-01  4.03798015E-01 -2.52924114E-01
  3.28518447E-02  1.08125476E+00  1.00000000E+00  1.00000000E+00  1.83107443E-03
  1.39501722E-02  6.84450781E-02  2.32714336E-01  4.70192898E-01  3.58520853E-01
 -1.10777550E-01 -1.48026263E-01  1.13076702E+00  1.00000000E+00  1.00000000E+00
  1.83107443E-03  1.39501722E-02  6.84450781E-02  2.32714336E-01  4.70192898E-01
  3.58520853E-01 -1.10777550E-01 -1.48026263E-01  1.13076702E+00  1.00000000E+00
  1.00000000E+00  1.83107443E-03  1.39501722E-02  6.84450781E-02  2.32714336E-01
  4.70192898E-01  3.58520853E-01 -1.10777550E-01 -1.48026263E-01  1.13076702E+00
  1.00000000E+00  1.00000000E+00  1.83107443E-03  1.39501722E-02  6.84450781E-02
  2.32714336E-01  4.70192898E-01  3.58520853E-01 -1.10777550E-01 -1.48026263E-01
  1.13076702E+00  1.00000000E+00  1.00000000E+00  1.83107443E-03  1.39501722E-02
  6.84450781E-02  2.32714336E-01  4.70192898E-01  3.58520853E-01 -1.10777550E-01
 -1.48026263E-01  1.13076702E+00  1.00000000E+00  1.00000000E+00  1.83107443E-03
  1.39501722E-02  6.84450781E-02  2.32714336E-01  4.70192898E-01  3.58520853E-01
 -1.10777550E-01 -1.48026263E-01  1.13076702E+00  1.00000000E+00  1.00000000E+00
  1.83107443E-03  1.39501722E-02  6.84450781E-02  2.32714336E-01  4.70192898E-01
  3.58520853E-01 -1.10777550E-01 -1.48026263E-01  1.13076702E+00  1.00000000E+00
  1.00000000E+00  1.83473713E-03  1.40373228E-02  6.88426223E-02  2.32184443E-01
  4.67941348E-01  3.62311985E-01 -1.19332420E-01 -1.60854152E-01  1.14345644E+00
  1.00000000E+00  1.00000000E+00  3.34946043E-02  2.34726953E-01  8.13757326E-01
  1.00000000E+00  3.34946043E-02  2.34726953E-01  8.13757326E-01  1.00000000E+00
  3.34946043E-02  2.34726953E-01  8.13757326E-01  1.00000000E+00
P(S=P) Contraction coefficients            R   N=         134
  0.00000000E+00  0.00000000E+00  0.00000000E+00  0.00000000E+00  0.00000000E+00
  0.00000000E+00  4.56461619E-03  3.36935719E-02  1.39754883E-01  3.39361717E-01
  4.50920624E-01  2.38585801E-01 -1.77653127E-02  2.74058196E-01  7.85421563E-01
  1.00000000E+00  0.00000000E+00  0.00000000E+00  0.00000000E+00  0.00000000E+00
  0.00000000E+00  0.00000000E+00  0.00000000E+00  4.56461619E-03  3.36935719E-02
  1.39754883E-01  3.39361717E-01  4.50920624E-01  2.38585801E-01 -1.77653127E-02
  2.74058196E-01  7.85421563E-01  1.00000000E+00  0.00000000E+00  0.00000000E+00
  0.00000000E+00  0.00000000E+00  0.00000000E+00  0.00000000E+00  0.00000000E+00
  7.08742682E-02  3.39752839E-01  7.27158577E-01  1.00000000E+00  0.00000000E+00
  0.00000000E+00  0.00000000E+00  0.00000000E+00  0.00000000E+00  0.00000000E+00
  0.00000000E+00  7.08742682E-02  3.39752839E-01  7.27158577E-01  1.00000000E+00
  0.00000000E+00  0.00000000E+00  0.00000000E+00  0.00000000E+00  0.00000000E+00
  0.00000000E+00  0.00000000E+00  7.08742682E-02  3.39752839E-01  7.27158577E-01
  1.00000000E+00  0.00000000E+00  0.00000000E+00  0.00000000E+00  0.00000000E+00
  0.00000000E+00  0.00000000E+00  0.00000000E+00  7.08742682E-02  3.39752839E-01
  7.27158577E-01  1.00000000E+00  0.00000000E+00  0.00000000E+00  0.00000000E+00
  0.00000000E+00  0.00000000E+00  0.00000000E+00  0.00000000E+00  7.08742682E-02
  3.39752839E-01  7.27158577E-01  1.00000000E+00  0.00000000E+00  0.00000000E+00
  0.00000000E+00  0.00000000E+00  0.00000000E+00  0.00000000E+00  0.00000000E+00
  7.08742682E-02  3.39752839E-01  7.27158577E-01  1.00000000E+00  0.00000000E+00
  0.00000000E+00  0.00000000E+00  0.00000000E+00  0.00000000E+00  0.00000000E+00
  0.00000000E+00  7.08742682E-02  3.39752839E-01  7.27158577E-01  1.00000000E+00
  0.00000000E+00  0.00000000E+00  0.00000000E+00  0.00000000E+00  0.00000000E+00
  0.00000000E+00  0.00000000E+00  6.89990666E-02  3.16423961E-01  7.44308291E-01
  1.00000000E+00  0.00000000E+00  0.00000000E+00  0.00000000E+00  0.00000000E+00
  0.00000000E+00  0.00000000E+00  0.00000000E+00  0.00000000E+00  0.00000000E+00
  0.00000000E+00  0.00000000E+00  0.00000000E+00  0.00000000E+00
Coordinates of each shell                  R   N=         144
 -2.12660281E+00  6.78736140E-01  1.53649623E-02 -2.12660281E+00  6.78736140E-01
  1.53649623E-02 -2.12660281E+00  6.78736140E-01  1.53649623E-02 -2.12660281E+00
  6.78736140E-01  1.53649623E-02 -2.12660281E+00  6.78736140E-01  1.53649623E-02
  3.94549439E+00 -1.99076765E-01  1.44146825E-03  3.94549439E+00 -1.99076765E-01
  1.44146825E-03  3.94549439E+00 -1.99076765E-01  1.44146825E-03  3.94549439E+00
 -1.99076765E-01  1.44146825E-03  3.94549439E+00 -1.99076765E-01  1.44146825E-03
 -4.04238505E+00 -2.07476626E+00 -2.16787471E-01 -4.04238505E+00 -2.07476626E+00
 -2.16787471E-01 -4.04238505E+00 -2.07476626E+00 -2.16787471E-01 -4.04238505E+00
 -2.07476626E+00 -2.16787471E-01  4.54662704E-01 -7.84037899E-01 -2.53159703E-01
  4.54662704E-01 -7.84037899E-01 -2.53159703E-01  4.54662704E-01 -7.84037899E-01
 -2.53159703E-01  4.54662704E-01 -7.84037899E-01 -2.53159703E-01 -2.95344593E+00
  2.23421066E+00 -2.27180347E+00 -2.95344593E+00  2.23421066E+00 -2.27180347E+00
 -2.95344593E+00  2.23421066E+00 -2.27180347E+00 -2.95344593E+00  2.23421066E+00
 -2.27180347E+00 -2.78777636E+00  1.71385633E+00  2.62445031E+00 -2.78777636E+00
  1.71385633E+00  2.62445031E+00 -2.78777636E+00  1.71385633E+00  2.62445031E+00
 -2.78777636E+00  1.71385633E+00  2.62445031E+00  4.60822815E+00 -1.67697855E+00
  2.41096358E+00  4.60822815E+00 -1.67697855E+00  2.41096358E+00  4.60822815E+00
 -1.67697855E+00  2.41096358E+00  4.60822815E+00 -1.67697855E+00  2.41096358E+00
  4.15547697E+00  2.68557570E+00  1.64238752E-01  4.15547697E+00  2.68557570E+00
  1.64238752E-01  4.15547697E+00  2.68557570E+00  1.64238752E-01  4.15547697E+00
  2.68557570E+00  1.64238752E-01  4.85218061E+00 -1.41331875E+00 -2.47704471E+00
  4.85218061E+00 -1.41331875E+00 -2.47704471E+00  4.85218061E+00 -1.41331875E+00
 -2.47704471E+00  4.85218061E+00 -1.41331875E+00 -2.47704471E+00 -6.59646927E+00
 -1.45969719E+00 -2.79442148E-02 -6.59646927E+00 -1.45969719E+00 -2.79442148E-02
 -6.59646927E+00 -1.45969719E+00 -2.79442148E-02 -6.59646927E+00 -1.45969719E+00
 -2.79442148E-02 -7.05534581E+00 -5.56175316E-01  1.79431427E+00 -7.05534581E+00
 -5.56175316E-01  1.79431427E+00 -7.20254378E+00 -1.48933638E-01 -1.53285505E+00
 -7.20254378E+00 -1.48933638E-01 -1.53285505E+00 -7.74219721E+00 -3.20792851E+00
 -1.92748673E-01 -7.74219721E+00 -3.20792851E+00 -1.92748673E-01
Constraint Structure                       R   N=          39
 -2.12660281E+00  6.78736140E-01  1.53649623E-02  3.94549439E+00 -1.99076765E-01
  1.44146825E-03 -4.04238505E+00 -2.07476626E+00 -2.16787471E-01  4.54662704E-01
 -7.84037899E-01 -2.53159703E-01 -2.95344593E+00  2.23421066E+00 -2.27180347E+00
 -2.78777636E+00  1.71385633E+00  2.62445031E+00  4.60822815E+00 -1.67697855E+00
  2.41096358E+00  4.15547697E+00  2.68557570E+00  1.64238752E-01  4.85218061E+00
 -1.41331875E+00 -2.47704471E+00 -6.59646927E+00 -1.45969719E+00 -2.79442148E-02
 -7.05534581E+00 -5.56175316E-01  1.79431427E+00 -7.20254378E+00 -1.48933638E-01
 -1.53285505E+00 -7.74219721E+00 -3.20792851E+00 -1.92748673E-01
Num ILSW                                   I              100
ILSW                                       I   N=         100
           0           1           0           0           2           0
           0           0           0           0           0          -1
           0           0           0           0           0           0
           0           0           0           0           1           0
           1           0           0           0           0           0
           0           0      100000           0          -1           0
           0           0           0           0           0           0
           0           0           0           1           1           0
           0           0           1           0           0           0
           0           0           4          40           0           0
           0           0           0           0           0           0
           0           0           0           0           0           0
           0           0           0           0           0           0
           0           0           0           0           0           0
           0           0           0           0           0           0
           0           0           0           0           0           0
           0           0           0           0
Num RLSW                                   I               40
RLSW                                       R   N=          40
  1.00000000E+00  1.00000000E+00  1.00000000E+00  1.00000000E+00  1.00000000E+00
  0.00000000E+00  0.00000000E+00  1.00000000E+00  0.00000000E+00  0.00000000E+00
  0.00000000E+00  0.00000000E+00  1.00000000E+00  0.00000000E+00  0.00000000E+00
  0.00000000E+00  0.00000000E+00  1.00000000E+00  0.00000000E+00  0.00000000E+00
  0.00000000E+00  0.00000000E+00  1.00000000E+00  0.00000000E+00  0.00000000E+00
  0.00000000E+00  0.00000000E+00  1.00000000E+00  0.00000000E+00  0.00000000E+00
  0.00000000E+00  0.00000000E+00  0.00000000E+00  0.00000000E+00  0.00000000E+00
  0.00000000E+00  0.00000000E+00  0.00000000E+00  1.00000000E+00  1.00000000E+00
MxBond                                     I                4
NBond                                      I   N=          13
           4           4           2           2           1           1
           1           1           1           4           1           1
           1
IBond                                      I   N=          52
           3           4           5           6           4           7
           8           9           1          10           0           0
           1           2           0           0           1           0
           0           0           1           0           0           0
           2           0           0           0           2           0
           0           0           2           0           0           0
           3          11          12          13          10           0
           0           0          10           0           0           0
          10           0           0           0
RBond                                      R   N=          52
  1.00000000E+00  1.00000000E+00  2.00000000E+00  2.00000000E+00  1.00000000E+00
  1.00000000E+00  1.00000000E+00  1.00000000E+00  1.00000000E+00  1.00000000E+00
  0.00000000E+00  0.00000000E+00  1.00000000E+00  1.00000000E+00  0.00000000E+00
  0.00000000E+00  2.00000000E+00  0.00000000E+00  0.00000000E+00  0.00000000E+00
  2.00000000E+00  0.00000000E+00  0.00000000E+00  0.00000000E+00  1.00000000E+00
  0.00000000E+00  0.00000000E+00  0.00000000E+00  1.00000000E+00  0.00000000E+00
  0.00000000E+00  0.00000000E+00  1.00000000E+00  0.00000000E+00  0.00000000E+00
  0.00000000E+00  1.00000000E+00  1.00000000E+00  1.00000000E+00  1.00000000E+00
  1.00000000E+00  0.00000000E+00  0.00000000E+00  0.00000000E+00  1.00000000E+00
  0.00000000E+00  0.00000000E+00  0.00000000E+00  1.00000000E+00  0.00000000E+00
  0.00000000E+00  0.00000000E+00
Virial Ratio                               R      2.002169430546465E+00
SCF Energy                                 R     -1.244960143722675E+03
MP2 Energy                                 R     -1.246589000839092E+03
Total Energy                               R     -1.246589000839092E+03
Post-SCF wavefunction norm                 R      1.722210409249941E+00
RMS Force                                  R      4.031118971474662E-08
RMS Density                                R      1.437328530019556E-09
External E-field                           R   N=          35
  0.00000000E+00  0.00000000E+00  0.00000000E+00  0.00000000E+00  0.00000000E+00
  0.00000000E+00  0.00000000E+00  0.00000000E+00  0.00000000E+00  0.00000000E+00
  0.00000000E+00  0.00000000E+00  0.00000000E+00  0.00000000E+00  0.00000000E+00
  0.00000000E+00  0.00000000E+00  0.00000000E+00  0.00000000E+00  0.00000000E+00
  0.00000000E+00  0.00000000E+00  0.00000000E+00  0.00000000E+00  0.00000000E+00
  0.00000000E+00  0.00000000E+00  0.00000000E+00  0.00000000E+00  0.00000000E+00
  0.00000000E+00  0.00000000E+00  0.00000000E+00  0.00000000E+00  0.00000000E+00
IOpCl                                      I                0
IROHF                                      I                0
Alpha Orbital Energies                     R   N=         164
 -7.96131550E+01 -7.95621788E+01 -2.01310903E+01 -2.00712336E+01 -2.00331917E+01
 -2.00331087E+01 -1.99923161E+01 -1.99912856E+01 -1.99912092E+01 -1.09014324E+01
 -7.13017567E+00 -7.07937640E+00 -5.02966654E+00 -5.02839262E+00 -5.02733725E+00
 -4.97923603E+00 -4.97653440E+00 -4.97648142E+00 -9.33824858E-01 -8.59329589E-01
 -8.15365231E-01 -7.84743034E-01 -7.71222405E-01 -7.27217042E-01 -7.25115013E-01
 -5.32160955E-01 -3.11818833E-01 -2.49847611E-01 -2.33062596E-01 -1.91613299E-01
 -1.77898677E-01 -1.28386064E-01 -1.16262473E-01 -9.47719404E-02 -6.95694656E-02
 -6.50147127E-02 -4.77880324E-02 -2.86851222E-02 -1.85837447E-02 -5.56332921E-05
  1.63509219E-02  3.27407728E-02  3.51103502E-02  3.95456272E-02  4.20288743E-02
  5.56123373E-02  7.93901620E-02  8.49763305E-02  1.09969554E-01  6.06710235E-01
  6.60771208E-01  6.91816296E-01  6.99110122E-01  7.32284450E-01  7.58805502E-01
  7.85780609E-01  8.17014391E-01  8.30285776E-01  8.44595569E-01  8.57918044E-01
  8.82262789E-01  9.33754809E-01  1.00458725E+00  1.03262723E+00  1.04701299E+00
  1.09591256E+00  1.13102236E+00  1.13465027E+00  1.14491304E+00  1.16351125E+00
  1.18017798E+00  1.25269814E+00  1.38253095E+00  1.41177064E+00  1.43075285E+00
  1.43661037E+00  1.46283397E+00  1.47051905E+00  1.50955069E+00  1.54023620E+00
  1.54936973E+00  1.56267926E+00  1.56568302E+00  1.56852115E+00  1.64097528E+00
  1.68504942E+00  1.71597691E+00  1.72086149E+00  1.73998431E+00  1.76245291E+00
  1.80178985E+00  1.80423121E+00  1.82269974E+00  1.82564577E+00  1.84454489E+00
  1.84738811E+00  1.85756308E+00  1.86247953E+00  1.90562587E+00  1.92417690E+00
  1.96116394E+00  1.97809513E+00  2.00143883E+00  2.01914131E+00  2.05242241E+00
  2.07126689E+00  2.10338443E+00  2.12173029E+00  2.17393849E+00  2.17581085E+00
  2.19569660E+00  2.23951884E+00  2.29088294E+00  2.31600104E+00  2.35372952E+00
  2.38993950E+00  2.52619408E+00  2.55511985E+00  2.57379823E+00  2.60095081E+00
  2.60612113E+00  2.60874915E+00  2.61979817E+00  2.62059532E+00  2.63828956E+00
  2.63942420E+00  2.65370565E+00  2.66042979E+00  2.66136712E+00  2.67369040E+00
  2.68640575E+00  2.78811634E+00  2.83212508E+00  2.83679048E+00  2.86341435E+00
  2.87678268E+00  2.90501255E+00  2.92389418E+00  2.94198095E+00  3.01623771E+00
  3.07155354E+00  3.09255004E+00  3.13296893E+00  3.15042775E+00  3.15366571E+00
  3.16918492E+00  3.23030713E+00  3.49959194E+00  3.53717377E+00  3.58740025E+00
  3.62722848E+00  3.65596721E+00  3.68533920E+00  3.69744047E+00  4.38073277E+00
  4.38850354E+00  4.60565039E+00  4.62764290E+00  4.67258108E+00  4.74724307E+00
  4.82518951E+00  4.84750581E+00  4.87596615E+00  5.04405622E+00
Alpha MO coefficients                      R   N=       26896
  9.96430535E-01  1.35011845E-02 -1.51115544E-06 -4.30551422E-05 -4.77992004E-06
 -2.18954783E-02 -1.37375824E-06  2.19211774E-05  1.54679249E-06  2.01978648E-03
  3.16602005E-04  1.26354198E-04  3.34095005E-05  7.45752180E-03  7.47415907E-03
  7.44840203E-03  6.43887019E-06 -1.13089794E-06  4.94737006E-06 -1.71520128E-05
  1.87048289E-05  1.14091364E-06  8.27501550E-06  8.69761447E-07  1.45034499E-04
 -3.29983277E-05 -4.61316007E-05 -6.99312037E-07 -5.98375171E-04  2.64430120E-04
 -9.42180036E-05 -7.25749622E-06 -3.43050034E-05 -1.43229159E-05 -1.33235429E-05
  2.96614627E-05  7.10861735E-06  2.15263970E-06 -2.54218197E-05 -8.72957198E-05
  1.39586374E-05 -2.29283402E-05 -1.61391354E-06  7.26047561E-04  1.27539082E-04
  3.64470523E-04  2.90062655E-05 -6.19238004E-05 -1.26202404E-04 -8.75010671E-05
 -4.95190006E-05 -7.71551448E-06 -3.71538710E-06 -2.46246172E-05 -1.31306836E-04
  7.32320668E-05 -6.97968411E-05 -1.41375759E-05  9.50792199E-04 -2.57583034E-04
  2.47672885E-04  5.08653744E-05 -1.79557813E-04 -1.16999078E-04 -8.06526558E-05
  8.56627403E-05  1.71353991E-05 -7.03065087E-06 -6.22762928E-06 -9.07853631E-05
 -2.57874222E-05  8.06617931E-05 -1.11617597E-04  7.09149048E-04  6.22707886E-05
 -2.89109624E-04  3.72902841E-04 -2.77325886E-05 -5.14964895E-05 -1.09862823E-04
  2.89955801E-05 -4.89243515E-05  6.89476272E-05 -3.98874793E-06 -8.24090393E-05
 -1.88647681E-05  5.44461812E-05  1.28803749E-04  6.60783746E-04  3.53831053E-05
 -1.96624218E-04 -4.26053414E-04 -1.47619140E-05 -2.35789445E-05 -1.30832607E-04
  1.46498577E-05  4.55369504E-05 -5.01077596E-05 -8.15401060E-06 -3.67573032E-05
  5.51585142E-06 -4.89720880E-06  2.10169926E-06  1.78044400E-04 -4.62860105E-05
  3.89716677E-05 -2.40855351E-05 -2.51946121E-05 -1.62717715E-05 -2.58442670E-05
 -1.69532221E-06  2.90005108E-06 -5.74565167E-07 -1.08423244E-05 -4.89591454E-05
 -1.07700012E-05  9.16297949E-06 -4.12882598E-07  2.79783974E-04  1.14618921E-05
 -8.64318099E-05 -2.88265838E-06 -4.95132441E-05 -1.58604159E-05 -2.00477501E-05
  8.98057092E-06  2.94992756E-08  4.58336524E-07 -1.04914858E-05 -4.25429571E-05
  1.23011270E-05 -4.73473117E-06 -3.97816887E-06  1.99336672E-04 -6.48520946E-05
  3.73473511E-05  3.19863796E-05 -3.22006369E-05 -2.70556775E-05 -3.30688033E-05
 -2.21669235E-06 -3.54192004E-06  4.00235092E-06 -2.33793639E-05 -1.08412769E-04
 -5.63374238E-05 -3.65975953E-05 -1.68681027E-06  2.81318077E-04  5.42372145E-06
  1.71729078E-04  2.30356520E-05 -4.36580851E-05 -8.86942177E-06 -5.13054146E-05
  1.38081461E-05  1.28557963E-06  4.36650556E-06 -1.04426170E-05 -1.74769818E-04
 -1.20992656E-05 -1.65379401E-04 -1.55041367E-05  8.20027930E-05  2.12098777E-05
  1.66162789E-05 -1.12472323E-06  4.78214927E-06  1.65563237E-06  1.26251133E-04
  3.22792855E-05 -2.94540619E-05 -1.04879951E-05 -3.90184860E-04 -3.41376718E-04
  5.00834268E-05 -1.45244183E-05 -5.70696799E-05  3.07845767E-05 -1.46091864E-05
 -2.81785255E-05 -8.20114433E-06  1.17600177E-05  9.96431996E-01  1.34895410E-02
 -5.71932851E-05 -6.78326473E-06 -3.73943442E-06 -2.18494231E-02  6.71504749E-05
  1.10600969E-06  6.55850562E-06  2.07516314E-03 -8.23638795E-05  1.30113082E-04
  3.90796610E-05  7.44814133E-03  7.41841426E-03  7.41851261E-03  1.19182347E-05
  2.16307878E-06 -4.07122622E-07 -1.08020910E-05 -3.27265209E-05 -2.06616562E-05
 -6.30915067E-06 -9.31791317E-07  1.55437126E-04  9.14827311E-05  2.51260792E-05
  5.29541644E-06 -3.77606276E-05 -3.59541809E-05 -3.78687578E-05  3.01856154E-06
  9.88071388E-07  1.38063398E-06 -3.83319455E-05 -1.22197371E-04 -1.82750384E-06
 -2.11479720E-05 -5.56781105E-06  8.48662110E-04  3.51605344E-04  1.47567189E-04
  4.91744355E-05 -1.30089470E-04 -1.03840287E-04 -1.16740231E-04 -2.94945720E-06
 -9.28638016E-07  3.96405046E-06 -1.44689005E-06 -1.08108743E-05 -9.64518205E-06
 -4.70573381E-07  1.05204493E-06  4.47618635E-05  6.44009952E-05 -9.98869814E-06
  1.90178509E-06  7.43860988E-07  1.27019549E-07 -7.88581997E-06 -3.01666212E-06
  7.09454485E-06 -2.86974940E-07 -3.16295913E-06 -1.81213739E-05 -7.64648760E-06
  6.33877443E-07  3.02411672E-07  8.76031419E-05  6.13081559E-05 -1.59813175E-05
 -9.05290256E-06 -5.47580392E-06 -2.53682106E-06 -1.44627402E-05 -1.44494174E-06
 -8.90558794E-06  2.15346166E-06 -5.77488353E-06 -8.49486076E-05  2.47247659E-05
 -6.42871110E-05  1.18674289E-04  6.85527833E-04 -9.27488966E-05  2.12120539E-04
 -4.12874498E-04 -1.72207953E-05 -5.77599230E-05 -1.12593423E-04  1.92256534E-05
 -2.93038261E-05  7.48474313E-05 -1.46997141E-06 -6.72444281E-05  1.53141255E-05
  1.38164019E-04  9.44452547E-06  5.71035526E-04 -5.42771150E-05 -4.61470932E-04
 -3.48471320E-05  4.78871901E-06 -1.47011654E-04 -8.90094767E-06 -4.26813907E-06
 -1.19306027E-07 -7.29220143E-06 -9.05592995E-06 -9.71445847E-05  3.56612118E-05
 -5.30682320E-05 -1.21265179E-04  7.51933478E-04 -1.35720938E-04  1.78855264E-04
  4.25729078E-04 -3.43254505E-05 -5.31357011E-05 -1.29864645E-04  2.19617171E-05