23593223                                                                
Freq      RMP2-FC                                                     6-31G(d)            
Number of atoms                            I               29
Info1-9                                    I   N=           9
          41          39        1002           0           0         100
           6           2           1
Charge                                     I                0
Multiplicity                               I                1
Number of electrons                        I              106
Number of alpha electrons                  I               53
Number of beta electrons                   I               53
Number of basis functions                  I              253
Number of independent functions            I              253
Number of point charges in /Mol/           I                0
Number of translation vectors              I                0
Atomic numbers                             I   N=          29
           7           7           6           6           6           6
           6           6           6           6           6           6
           6           6           6           1           1           1
           1           1           1           1           1           1
           1           1           1           1           1
Nuclear charges                            R   N=          29
  7.00000000E+00  7.00000000E+00  6.00000000E+00  6.00000000E+00  6.00000000E+00
  6.00000000E+00  6.00000000E+00  6.00000000E+00  6.00000000E+00  6.00000000E+00
  6.00000000E+00  6.00000000E+00  6.00000000E+00  6.00000000E+00  6.00000000E+00
  1.00000000E+00  1.00000000E+00  1.00000000E+00  1.00000000E+00  1.00000000E+00
  1.00000000E+00  1.00000000E+00  1.00000000E+00  1.00000000E+00  1.00000000E+00
  1.00000000E+00  1.00000000E+00  1.00000000E+00  1.00000000E+00
Current cartesian coordinates              R   N=          87
 -8.87643779E-01  2.16280971E+00 -4.18840566E-01  3.38114598E+00  2.42627444E+00
  6.58499715E-01 -3.06903262E+00  6.01315141E-01 -1.33116106E-01  1.48350129E+00
  1.01696960E+00 -2.64464070E-01 -1.12479116E+00  4.71413463E+00  6.22529914E-01
  1.86530637E+00 -1.45529288E+00 -1.19357991E+00  6.29441618E+00 -1.03077890E+00
 -1.35626557E-01 -3.27730511E+00 -1.12384296E+00  1.86791124E+00 -5.06341555E+00
  8.66575751E-01 -1.85011533E+00  4.27846249E+00 -2.46272049E+00 -1.10181493E+00
  5.71086603E+00  1.39847992E+00  6.92042646E-01 -5.45562951E+00 -2.58719719E+00
  2.12041209E+00 -7.25235794E+00 -5.77037664E-01 -1.56718025E+00 -7.45198615E+00
 -2.31114147E+00  4.13236505E-01  8.93854350E+00 -2.06293554E+00 -5.67831010E-03
  3.02601385E-01 -2.52540630E+00 -1.98222469E+00 -8.70280821E-01  4.74747057E+00
  2.68161273E+00 -3.01110282E+00  5.40504113E+00  1.54620210E-01  3.00684020E-01
  5.93553386E+00 -2.24584276E-01 -1.72729135E+00 -1.31107778E+00  3.20530469E+00
 -4.86023577E+00  2.19271310E+00 -3.40712985E+00  4.61484028E+00 -4.36615447E+00
 -1.81101600E+00  7.19294916E+00  2.61594340E+00  1.44725891E+00 -5.60780407E+00
 -3.92589633E+00  3.67257749E+00 -8.79416417E+00 -3.64088561E-01 -2.90908536E+00
  9.61126285E+00 -2.63955146E+00 -1.87522541E+00  1.02460861E+01 -6.41365183E-01
  7.29623491E-01  9.03929251E+00 -3.71857056E+00  1.23126927E+00 -9.15081956E+00
 -3.44734819E+00  6.22043134E-01
Force Field                                I                0
Int Atom Types                             I   N=          29
           0           0           0           0           0           0
           0           0           0           0           0           0
           0           0           0           0           0           0
           0           0           0           0           0           0
           0           0           0           0           0
MM charges                                 R   N=          29
  0.00000000E+00  0.00000000E+00  0.00000000E+00  0.00000000E+00  0.00000000E+00
  0.00000000E+00  0.00000000E+00  0.00000000E+00  0.00000000E+00  0.00000000E+00
  0.00000000E+00  0.00000000E+00  0.00000000E+00  0.00000000E+00  0.00000000E+00
  0.00000000E+00  0.00000000E+00  0.00000000E+00  0.00000000E+00  0.00000000E+00
  0.00000000E+00  0.00000000E+00  0.00000000E+00  0.00000000E+00  0.00000000E+00
  0.00000000E+00  0.00000000E+00  0.00000000E+00  0.00000000E+00
Integer atomic weights                     I   N=          29
          14          14          12          12          12          12
          12          12          12          12          12          12
          12          12          12           1           1           1
           1           1           1           1           1           1
           1           1           1           1           1
Real atomic weights                        R   N=          29
  1.40030740E+01  1.40030740E+01  1.20000000E+01  1.20000000E+01  1.20000000E+01
  1.20000000E+01  1.20000000E+01  1.20000000E+01  1.20000000E+01  1.20000000E+01
  1.20000000E+01  1.20000000E+01  1.20000000E+01  1.20000000E+01  1.20000000E+01
  1.00782504E+00  1.00782504E+00  1.00782504E+00  1.00782504E+00  1.00782504E+00
  1.00782504E+00  1.00782504E+00  1.00782504E+00  1.00782504E+00  1.00782504E+00
  1.00782504E+00  1.00782504E+00  1.00782504E+00  1.00782504E+00
Atom fragment info                         I   N=          29
           0           0           0           0           0           0
           0           0           0           0           0           0
           0           0           0           0           0           0
           0           0           0           0           0           0
           0           0           0           0           0
Atom residue num                           I   N=          29
           0           0           0           0           0           0
           0           0           0           0           0           0
           0           0           0           0           0           0
           0           0           0           0           0           0
           0           0           0           0           0
Nuclear spins                              I   N=          29
           2           2           0           0           0           0
           0           0           0           0           0           0
           0           0           0           1           1           1
           1           1           1           1           1           1
           1           1           1           1           1
Nuclear ZEff                               R   N=          29
 -4.55000000E+00 -4.55000000E+00 -3.60000000E+00 -3.60000000E+00 -3.60000000E+00
 -3.60000000E+00 -3.60000000E+00 -3.60000000E+00 -3.60000000E+00 -3.60000000E+00
 -3.60000000E+00 -3.60000000E+00 -3.60000000E+00 -3.60000000E+00 -3.60000000E+00
 -1.00000000E+00 -1.00000000E+00 -1.00000000E+00 -1.00000000E+00 -1.00000000E+00
 -1.00000000E+00 -1.00000000E+00 -1.00000000E+00 -1.00000000E+00 -1.00000000E+00
 -1.00000000E+00 -1.00000000E+00 -1.00000000E+00 -1.00000000E+00
Nuclear QMom                               R   N=          29
  2.04400000E+00  2.04400000E+00  0.00000000E+00  0.00000000E+00  0.00000000E+00
  0.00000000E+00  0.00000000E+00  0.00000000E+00  0.00000000E+00  0.00000000E+00
  0.00000000E+00  0.00000000E+00  0.00000000E+00  0.00000000E+00  0.00000000E+00
  0.00000000E+00  0.00000000E+00  0.00000000E+00  0.00000000E+00  0.00000000E+00
  0.00000000E+00  0.00000000E+00  0.00000000E+00  0.00000000E+00  0.00000000E+00
  0.00000000E+00  0.00000000E+00  0.00000000E+00  0.00000000E+00
Nuclear GFac                               R   N=          29
  4.03761000E-01  4.03761000E-01  0.00000000E+00  0.00000000E+00  0.00000000E+00
  0.00000000E+00  0.00000000E+00  0.00000000E+00  0.00000000E+00  0.00000000E+00
  0.00000000E+00  0.00000000E+00  0.00000000E+00  0.00000000E+00  0.00000000E+00
  2.79284600E+00  2.79284600E+00  2.79284600E+00  2.79284600E+00  2.79284600E+00
  2.79284600E+00  2.79284600E+00  2.79284600E+00  2.79284600E+00  2.79284600E+00
  2.79284600E+00  2.79284600E+00  2.79284600E+00  2.79284600E+00
MicOpt                                     I   N=          29
          -1          -1          -1          -1          -1          -1
          -1          -1          -1          -1          -1          -1
          -1          -1          -1          -1          -1          -1
          -1          -1          -1          -1          -1          -1
          -1          -1          -1          -1          -1
Number of contracted shells                I               88
Number of primitive shells                 I              221
Pure/Cartesian d shells                    I                1
Pure/Cartesian f shells                    I                0
Highest angular momentum                   I                2
Largest degree of contraction              I                6
Shell types                                I   N=          88
           0          -1          -1           2           0          -1
          -1           2           0          -1          -1           2
           0          -1          -1           2           0          -1
          -1           2           0          -1          -1           2
           0          -1          -1           2           0          -1
          -1           2           0          -1          -1           2
           0          -1          -1           2           0          -1
          -1           2           0          -1          -1           2
           0          -1          -1           2           0          -1
          -1           2           0          -1          -1           2
           0           0           0           0           0           0
           0           0           0           0           0           0
           0           0           0           0           0           0
           0           0           0           0           0           0
           0           0           0           0
Number of primitives per shell             I   N=          88
           6           3           1           1           6           3
           1           1           6           3           1           1
           6           3           1           1           6           3
           1           1           6           3           1           1
           6           3           1           1           6           3
           1           1           6           3           1           1
           6           3           1           1           6           3
           1           1           6           3           1           1
           6           3           1           1           6           3
           1           1           6           3           1           1
           3           1           3           1           3           1
           3           1           3           1           3           1
           3           1           3           1           3           1
           3           1           3           1           3           1
           3           1           3           1
Shell to atom map                          I   N=          88
           1           1           1           1           2           2
           2           2           3           3           3           3
           4           4           4           4           5           5
           5           5           6           6           6           6
           7           7           7           7           8           8
           8           8           9           9           9           9
          10          10          10          10          11          11
          11          11          12          12          12          12
          13          13          13          13          14          14
          14          14          15          15          15          15
          16          16          17          17          18          18
          19          19          20          20          21          21
          22          22          23          23          24          24
          25          25          26          26          27          27
          28          28          29          29
Primitive exponents                        R   N=         221
  4.17351146E+03  6.27457911E+02  1.42902093E+02  4.02343293E+01  1.28202129E+01
  4.39043701E+00  1.16263619E+01  2.71627981E+00  7.72218397E-01  2.12031498E-01
  8.00000000E-01  4.17351146E+03  6.27457911E+02  1.42902093E+02  4.02343293E+01
  1.28202129E+01  4.39043701E+00  1.16263619E+01  2.71627981E+00  7.72218397E-01
  2.12031498E-01  8.00000000E-01  3.04752488E+03  4.57369518E+02  1.03948685E+02
  2.92101553E+01  9.28666296E+00  3.16392696E+00  7.86827235E+00  1.88128854E+00
  5.44249258E-01  1.68714478E-01  8.00000000E-01  3.04752488E+03  4.57369518E+02
  1.03948685E+02  2.92101553E+01  9.28666296E+00  3.16392696E+00  7.86827235E+00
  1.88128854E+00  5.44249258E-01  1.68714478E-01  8.00000000E-01  3.04752488E+03
  4.57369518E+02  1.03948685E+02  2.92101553E+01  9.28666296E+00  3.16392696E+00
  7.86827235E+00  1.88128854E+00  5.44249258E-01  1.68714478E-01  8.00000000E-01
  3.04752488E+03  4.57369518E+02  1.03948685E+02  2.92101553E+01  9.28666296E+00
  3.16392696E+00  7.86827235E+00  1.88128854E+00  5.44249258E-01  1.68714478E-01
  8.00000000E-01  3.04752488E+03  4.57369518E+02  1.03948685E+02  2.92101553E+01
  9.28666296E+00  3.16392696E+00  7.86827235E+00  1.88128854E+00  5.44249258E-01
  1.68714478E-01  8.00000000E-01  3.04752488E+03  4.57369518E+02  1.03948685E+02
  2.92101553E+01  9.28666296E+00  3.16392696E+00  7.86827235E+00  1.88128854E+00
  5.44249258E-01  1.68714478E-01  8.00000000E-01  3.04752488E+03  4.57369518E+02
  1.03948685E+02  2.92101553E+01  9.28666296E+00  3.16392696E+00  7.86827235E+00
  1.88128854E+00  5.44249258E-01  1.68714478E-01  8.00000000E-01  3.04752488E+03
  4.57369518E+02  1.03948685E+02  2.92101553E+01  9.28666296E+00  3.16392696E+00
  7.86827235E+00  1.88128854E+00  5.44249258E-01  1.68714478E-01  8.00000000E-01
  3.04752488E+03  4.57369518E+02  1.03948685E+02  2.92101553E+01  9.28666296E+00
  3.16392696E+00  7.86827235E+00  1.88128854E+00  5.44249258E-01  1.68714478E-01
  8.00000000E-01  3.04752488E+03  4.57369518E+02  1.03948685E+02  2.92101553E+01
  9.28666296E+00  3.16392696E+00  7.86827235E+00  1.88128854E+00  5.44249258E-01
  1.68714478E-01  8.00000000E-01  3.04752488E+03  4.57369518E+02  1.03948685E+02
  2.92101553E+01  9.28666296E+00  3.16392696E+00  7.86827235E+00  1.88128854E+00
  5.44249258E-01  1.68714478E-01  8.00000000E-01  3.04752488E+03  4.57369518E+02
  1.03948685E+02  2.92101553E+01  9.28666296E+00  3.16392696E+00  7.86827235E+00
  1.88128854E+00  5.44249258E-01  1.68714478E-01  8.00000000E-01  3.04752488E+03
  4.57369518E+02  1.03948685E+02  2.92101553E+01  9.28666296E+00  3.16392696E+00
  7.86827235E+00  1.88128854E+00  5.44249258E-01  1.68714478E-01  8.00000000E-01
  1.87311370E+01  2.82539436E+00  6.40121692E-01  1.61277759E-01  1.87311370E+01
  2.82539436E+00  6.40121692E-01  1.61277759E-01  1.87311370E+01  2.82539436E+00
  6.40121692E-01  1.61277759E-01  1.87311370E+01  2.82539436E+00  6.40121692E-01
  1.61277759E-01  1.87311370E+01  2.82539436E+00  6.40121692E-01  1.61277759E-01
  1.87311370E+01  2.82539436E+00  6.40121692E-01  1.61277759E-01  1.87311370E+01
  2.82539436E+00  6.40121692E-01  1.61277759E-01  1.87311370E+01  2.82539436E+00
  6.40121692E-01  1.61277759E-01  1.87311370E+01  2.82539436E+00  6.40121692E-01
  1.61277759E-01  1.87311370E+01  2.82539436E+00  6.40121692E-01  1.61277759E-01
  1.87311370E+01  2.82539436E+00  6.40121692E-01  1.61277759E-01  1.87311370E+01
  2.82539436E+00  6.40121692E-01  1.61277759E-01  1.87311370E+01  2.82539436E+00
  6.40121692E-01  1.61277759E-01  1.87311370E+01  2.82539436E+00  6.40121692E-01
  1.61277759E-01
Contraction coefficients                   R   N=         221
  1.83477216E-03  1.39946270E-02  6.85865518E-02  2.32240873E-01  4.69069948E-01
  3.60455199E-01 -1.14961182E-01 -1.69117479E-01  1.14585195E+00  1.00000000E+00
  1.00000000E+00  1.83477216E-03  1.39946270E-02  6.85865518E-02  2.32240873E-01
  4.69069948E-01  3.60455199E-01 -1.14961182E-01 -1.69117479E-01  1.14585195E+00
  1.00000000E+00  1.00000000E+00  1.83473713E-03  1.40373228E-02  6.88426223E-02
  2.32184443E-01  4.67941348E-01  3.62311985E-01 -1.19332420E-01 -1.60854152E-01
  1.14345644E+00  1.00000000E+00  1.00000000E+00  1.83473713E-03  1.40373228E-02
  6.88426223E-02  2.32184443E-01  4.67941348E-01  3.62311985E-01 -1.19332420E-01
 -1.60854152E-01  1.14345644E+00  1.00000000E+00  1.00000000E+00  1.83473713E-03
  1.40373228E-02  6.88426223E-02  2.32184443E-01  4.67941348E-01  3.62311985E-01
 -1.19332420E-01 -1.60854152E-01  1.14345644E+00  1.00000000E+00  1.00000000E+00
  1.83473713E-03  1.40373228E-02  6.88426223E-02  2.32184443E-01  4.67941348E-01
  3.62311985E-01 -1.19332420E-01 -1.60854152E-01  1.14345644E+00  1.00000000E+00
  1.00000000E+00  1.83473713E-03  1.40373228E-02  6.88426223E-02  2.32184443E-01
  4.67941348E-01  3.62311985E-01 -1.19332420E-01 -1.60854152E-01  1.14345644E+00
  1.00000000E+00  1.00000000E+00  1.83473713E-03  1.40373228E-02  6.88426223E-02
  2.32184443E-01  4.67941348E-01  3.62311985E-01 -1.19332420E-01 -1.60854152E-01
  1.14345644E+00  1.00000000E+00  1.00000000E+00  1.83473713E-03  1.40373228E-02
  6.88426223E-02  2.32184443E-01  4.67941348E-01  3.62311985E-01 -1.19332420E-01
 -1.60854152E-01  1.14345644E+00  1.00000000E+00  1.00000000E+00  1.83473713E-03
  1.40373228E-02  6.88426223E-02  2.32184443E-01  4.67941348E-01  3.62311985E-01
 -1.19332420E-01 -1.60854152E-01  1.14345644E+00  1.00000000E+00  1.00000000E+00
  1.83473713E-03  1.40373228E-02  6.88426223E-02  2.32184443E-01  4.67941348E-01
  3.62311985E-01 -1.19332420E-01 -1.60854152E-01  1.14345644E+00  1.00000000E+00
  1.00000000E+00  1.83473713E-03  1.40373228E-02  6.88426223E-02  2.32184443E-01
  4.67941348E-01  3.62311985E-01 -1.19332420E-01 -1.60854152E-01  1.14345644E+00
  1.00000000E+00  1.00000000E+00  1.83473713E-03  1.40373228E-02  6.88426223E-02
  2.32184443E-01  4.67941348E-01  3.62311985E-01 -1.19332420E-01 -1.60854152E-01
  1.14345644E+00  1.00000000E+00  1.00000000E+00  1.83473713E-03  1.40373228E-02
  6.88426223E-02  2.32184443E-01  4.67941348E-01  3.62311985E-01 -1.19332420E-01
 -1.60854152E-01  1.14345644E+00  1.00000000E+00  1.00000000E+00  1.83473713E-03
  1.40373228E-02  6.88426223E-02  2.32184443E-01  4.67941348E-01  3.62311985E-01
 -1.19332420E-01 -1.60854152E-01  1.14345644E+00  1.00000000E+00  1.00000000E+00
  3.34946043E-02  2.34726953E-01  8.13757326E-01  1.00000000E+00  3.34946043E-02
  2.34726953E-01  8.13757326E-01  1.00000000E+00  3.34946043E-02  2.34726953E-01
  8.13757326E-01  1.00000000E+00  3.34946043E-02  2.34726953E-01  8.13757326E-01
  1.00000000E+00  3.34946043E-02  2.34726953E-01  8.13757326E-01  1.00000000E+00
  3.34946043E-02  2.34726953E-01  8.13757326E-01  1.00000000E+00  3.34946043E-02
  2.34726953E-01  8.13757326E-01  1.00000000E+00  3.34946043E-02  2.34726953E-01
  8.13757326E-01  1.00000000E+00  3.34946043E-02  2.34726953E-01  8.13757326E-01
  1.00000000E+00  3.34946043E-02  2.34726953E-01  8.13757326E-01  1.00000000E+00
  3.34946043E-02  2.34726953E-01  8.13757326E-01  1.00000000E+00  3.34946043E-02
  2.34726953E-01  8.13757326E-01  1.00000000E+00  3.34946043E-02  2.34726953E-01
  8.13757326E-01  1.00000000E+00  3.34946043E-02  2.34726953E-01  8.13757326E-01
  1.00000000E+00
P(S=P) Contraction coefficients            R   N=         221
  0.00000000E+00  0.00000000E+00  0.00000000E+00  0.00000000E+00  0.00000000E+00
  0.00000000E+00  6.75797439E-02  3.23907296E-01  7.40895140E-01  1.00000000E+00
  0.00000000E+00  0.00000000E+00  0.00000000E+00  0.00000000E+00  0.00000000E+00
  0.00000000E+00  0.00000000E+00  6.75797439E-02  3.23907296E-01  7.40895140E-01
  1.00000000E+00  0.00000000E+00  0.00000000E+00  0.00000000E+00  0.00000000E+00
  0.00000000E+00  0.00000000E+00  0.00000000E+00  6.89990666E-02  3.16423961E-01
  7.44308291E-01  1.00000000E+00  0.00000000E+00  0.00000000E+00  0.00000000E+00
  0.00000000E+00  0.00000000E+00  0.00000000E+00  0.00000000E+00  6.89990666E-02
  3.16423961E-01  7.44308291E-01  1.00000000E+00  0.00000000E+00  0.00000000E+00
  0.00000000E+00  0.00000000E+00  0.00000000E+00  0.00000000E+00  0.00000000E+00
  6.89990666E-02  3.16423961E-01  7.44308291E-01  1.00000000E+00  0.00000000E+00
  0.00000000E+00  0.00000000E+00  0.00000000E+00  0.00000000E+00  0.00000000E+00
  0.00000000E+00  6.89990666E-02  3.16423961E-01  7.44308291E-01  1.00000000E+00
  0.00000000E+00  0.00000000E+00  0.00000000E+00  0.00000000E+00  0.00000000E+00
  0.00000000E+00  0.00000000E+00  6.89990666E-02  3.16423961E-01  7.44308291E-01
  1.00000000E+00  0.00000000E+00  0.00000000E+00  0.00000000E+00  0.00000000E+00
  0.00000000E+00  0.00000000E+00  0.00000000E+00  6.89990666E-02  3.16423961E-01
  7.44308291E-01  1.00000000E+00  0.00000000E+00  0.00000000E+00  0.00000000E+00
  0.00000000E+00  0.00000000E+00  0.00000000E+00  0.00000000E+00  6.89990666E-02
  3.16423961E-01  7.44308291E-01  1.00000000E+00  0.00000000E+00  0.00000000E+00
  0.00000000E+00  0.00000000E+00  0.00000000E+00  0.00000000E+00  0.00000000E+00
  6.89990666E-02  3.16423961E-01  7.44308291E-01  1.00000000E+00  0.00000000E+00
  0.00000000E+00  0.00000000E+00  0.00000000E+00  0.00000000E+00  0.00000000E+00
  0.00000000E+00  6.89990666E-02  3.16423961E-01  7.44308291E-01  1.00000000E+00
  0.00000000E+00  0.00000000E+00  0.00000000E+00  0.00000000E+00  0.00000000E+00
  0.00000000E+00  0.00000000E+00  6.89990666E-02  3.16423961E-01  7.44308291E-01
  1.00000000E+00  0.00000000E+00  0.00000000E+00  0.00000000E+00  0.00000000E+00
  0.00000000E+00  0.00000000E+00  0.00000000E+00  6.89990666E-02  3.16423961E-01
  7.44308291E-01  1.00000000E+00  0.00000000E+00  0.00000000E+00  0.00000000E+00
  0.00000000E+00  0.00000000E+00  0.00000000E+00  0.00000000E+00  6.89990666E-02
  3.16423961E-01  7.44308291E-01  1.00000000E+00  0.00000000E+00  0.00000000E+00
  0.00000000E+00  0.00000000E+00  0.00000000E+00  0.00000000E+00  0.00000000E+00
  6.89990666E-02  3.16423961E-01  7.44308291E-01  1.00000000E+00  0.00000000E+00
  0.00000000E+00  0.00000000E+00  0.00000000E+00  0.00000000E+00  0.00000000E+00
  0.00000000E+00  0.00000000E+00  0.00000000E+00  0.00000000E+00  0.00000000E+00
  0.00000000E+00  0.00000000E+00  0.00000000E+00  0.00000000E+00  0.00000000E+00
  0.00000000E+00  0.00000000E+00  0.00000000E+00  0.00000000E+00  0.00000000E+00
  0.00000000E+00  0.00000000E+00  0.00000000E+00  0.00000000E+00  0.00000000E+00
  0.00000000E+00  0.00000000E+00  0.00000000E+00  0.00000000E+00  0.00000000E+00
  0.00000000E+00  0.00000000E+00  0.00000000E+00  0.00000000E+00  0.00000000E+00
  0.00000000E+00  0.00000000E+00  0.00000000E+00  0.00000000E+00  0.00000000E+00
  0.00000000E+00  0.00000000E+00  0.00000000E+00  0.00000000E+00  0.00000000E+00
  0.00000000E+00  0.00000000E+00  0.00000000E+00  0.00000000E+00  0.00000000E+00
  0.00000000E+00  0.00000000E+00  0.00000000E+00  0.00000000E+00  0.00000000E+00
  0.00000000E+00
Coordinates of each shell                  R   N=         264
 -8.87643779E-01  2.16280971E+00 -4.18840566E-01 -8.87643779E-01  2.16280971E+00
 -4.18840566E-01 -8.87643779E-01  2.16280971E+00 -4.18840566E-01 -8.87643779E-01
  2.16280971E+00 -4.18840566E-01  3.38114598E+00  2.42627444E+00  6.58499715E-01
  3.38114598E+00  2.42627444E+00  6.58499715E-01  3.38114598E+00  2.42627444E+00
  6.58499715E-01  3.38114598E+00  2.42627444E+00  6.58499715E-01 -3.06903262E+00
  6.01315141E-01 -1.33116106E-01 -3.06903262E+00  6.01315141E-01 -1.33116106E-01
 -3.06903262E+00  6.01315141E-01 -1.33116106E-01 -3.06903262E+00  6.01315141E-01
 -1.33116106E-01  1.48350129E+00  1.01696960E+00 -2.64464070E-01  1.48350129E+00
  1.01696960E+00 -2.64464070E-01  1.48350129E+00  1.01696960E+00 -2.64464070E-01
  1.48350129E+00  1.01696960E+00 -2.64464070E-01 -1.12479116E+00  4.71413463E+00
  6.22529914E-01 -1.12479116E+00  4.71413463E+00  6.22529914E-01 -1.12479116E+00
  4.71413463E+00  6.22529914E-01 -1.12479116E+00  4.71413463E+00  6.22529914E-01
  1.86530637E+00 -1.45529288E+00 -1.19357991E+00  1.86530637E+00 -1.45529288E+00
 -1.19357991E+00  1.86530637E+00 -1.45529288E+00 -1.19357991E+00  1.86530637E+00
 -1.45529288E+00 -1.19357991E+00  6.29441618E+00 -1.03077890E+00 -1.35626557E-01
  6.29441618E+00 -1.03077890E+00 -1.35626557E-01  6.29441618E+00 -1.03077890E+00
 -1.35626557E-01  6.29441618E+00 -1.03077890E+00 -1.35626557E-01 -3.27730511E+00
 -1.12384296E+00  1.86791124E+00 -3.27730511E+00 -1.12384296E+00  1.86791124E+00
 -3.27730511E+00 -1.12384296E+00  1.86791124E+00 -3.27730511E+00 -1.12384296E+00
  1.86791124E+00 -5.06341555E+00  8.66575751E-01 -1.85011533E+00 -5.06341555E+00
  8.66575751E-01 -1.85011533E+00 -5.06341555E+00  8.66575751E-01 -1.85011533E+00
 -5.06341555E+00  8.66575751E-01 -1.85011533E+00  4.27846249E+00 -2.46272049E+00
 -1.10181493E+00  4.27846249E+00 -2.46272049E+00 -1.10181493E+00  4.27846249E+00
 -2.46272049E+00 -1.10181493E+00  4.27846249E+00 -2.46272049E+00 -1.10181493E+00
  5.71086603E+00  1.39847992E+00  6.92042646E-01  5.71086603E+00  1.39847992E+00
  6.92042646E-01  5.71086603E+00  1.39847992E+00  6.92042646E-01  5.71086603E+00
  1.39847992E+00  6.92042646E-01 -5.45562951E+00 -2.58719719E+00  2.12041209E+00
 -5.45562951E+00 -2.58719719E+00  2.12041209E+00 -5.45562951E+00 -2.58719719E+00
  2.12041209E+00 -5.45562951E+00 -2.58719719E+00  2.12041209E+00 -7.25235794E+00
 -5.77037664E-01 -1.56718025E+00 -7.25235794E+00 -5.77037664E-01 -1.56718025E+00
 -7.25235794E+00 -5.77037664E-01 -1.56718025E+00 -7.25235794E+00 -5.77037664E-01
 -1.56718025E+00 -7.45198615E+00 -2.31114147E+00  4.13236505E-01 -7.45198615E+00
 -2.31114147E+00  4.13236505E-01 -7.45198615E+00 -2.31114147E+00  4.13236505E-01
 -7.45198615E+00 -2.31114147E+00  4.13236505E-01  8.93854350E+00 -2.06293554E+00
 -5.67831010E-03  8.93854350E+00 -2.06293554E+00 -5.67831010E-03  8.93854350E+00
 -2.06293554E+00 -5.67831010E-03  8.93854350E+00 -2.06293554E+00 -5.67831010E-03
  3.02601385E-01 -2.52540630E+00 -1.98222469E+00  3.02601385E-01 -2.52540630E+00
 -1.98222469E+00 -8.70280821E-01  4.74747057E+00  2.68161273E+00 -8.70280821E-01
  4.74747057E+00  2.68161273E+00 -3.01110282E+00  5.40504113E+00  1.54620210E-01
 -3.01110282E+00  5.40504113E+00  1.54620210E-01  3.00684020E-01  5.93553386E+00
 -2.24584276E-01  3.00684020E-01  5.93553386E+00 -2.24584276E-01 -1.72729135E+00
 -1.31107778E+00  3.20530469E+00 -1.72729135E+00 -1.31107778E+00  3.20530469E+00
 -4.86023577E+00  2.19271310E+00 -3.40712985E+00 -4.86023577E+00  2.19271310E+00
 -3.40712985E+00  4.61484028E+00 -4.36615447E+00 -1.81101600E+00  4.61484028E+00
 -4.36615447E+00 -1.81101600E+00  7.19294916E+00  2.61594340E+00  1.44725891E+00
  7.19294916E+00  2.61594340E+00  1.44725891E+00 -5.60780407E+00 -3.92589633E+00
  3.67257749E+00 -5.60780407E+00 -3.92589633E+00  3.67257749E+00 -8.79416417E+00
 -3.64088561E-01 -2.90908536E+00 -8.79416417E+00 -3.64088561E-01 -2.90908536E+00
  9.61126285E+00 -2.63955146E+00 -1.87522541E+00  9.61126285E+00 -2.63955146E+00
 -1.87522541E+00  1.02460861E+01 -6.41365183E-01  7.29623491E-01  1.02460861E+01
 -6.41365183E-01  7.29623491E-01  9.03929251E+00 -3.71857056E+00  1.23126927E+00
  9.03929251E+00 -3.71857056E+00  1.23126927E+00 -9.15081956E+00 -3.44734819E+00
  6.22043134E-01 -9.15081956E+00 -3.44734819E+00  6.22043134E-01
Constraint Structure                       R   N=          87
 -8.87643779E-01  2.16280971E+00 -4.18840566E-01  3.38114598E+00  2.42627444E+00
  6.58499715E-01 -3.06903262E+00  6.01315141E-01 -1.33116106E-01  1.48350129E+00
  1.01696960E+00 -2.64464070E-01 -1.12479116E+00  4.71413463E+00  6.22529914E-01
  1.86530637E+00 -1.45529288E+00 -1.19357991E+00  6.29441618E+00 -1.03077890E+00
 -1.35626557E-01 -3.27730511E+00 -1.12384296E+00  1.86791124E+00 -5.06341555E+00
  8.66575751E-01 -1.85011533E+00  4.27846249E+00 -2.46272049E+00 -1.10181493E+00
  5.71086603E+00  1.39847992E+00  6.92042646E-01 -5.45562951E+00 -2.58719719E+00
  2.12041209E+00 -7.25235794E+00 -5.77037664E-01 -1.56718025E+00 -7.45198615E+00
 -2.31114147E+00  4.13236505E-01  8.93854350E+00 -2.06293554E+00 -5.67831010E-03
  3.02601385E-01 -2.52540630E+00 -1.98222469E+00 -8.70280821E-01  4.74747057E+00
  2.68161273E+00 -3.01110282E+00  5.40504113E+00  1.54620210E-01  3.00684020E-01
  5.93553386E+00 -2.24584276E-01 -1.72729135E+00 -1.31107778E+00  3.20530469E+00
 -4.86023577E+00  2.19271310E+00 -3.40712985E+00  4.61484028E+00 -4.36615447E+00
 -1.81101600E+00  7.19294916E+00  2.61594340E+00  1.44725891E+00 -5.60780407E+00
 -3.92589633E+00  3.67257749E+00 -8.79416417E+00 -3.64088561E-01 -2.90908536E+00
  9.61126285E+00 -2.63955146E+00 -1.87522541E+00  1.02460861E+01 -6.41365183E-01
  7.29623491E-01  9.03929251E+00 -3.71857056E+00  1.23126927E+00 -9.15081956E+00
 -3.44734819E+00  6.22043134E-01
Num ILSW                                   I              100
ILSW                                       I   N=         100
           0           1           0           0           2           0
           0           0           0           0           0          -1
           0           0           0           0           0           0
           0           0           0           0           1           0
           1           0           0           0           0           0
           0           0      100000           0          -1           0
           0           0           0           0           0           0
           0           0           0           1           1           0
           0           0           1           0           0           0
           0           0           4          40           0           0