1031                                                                    
Freq      RMP2-FC                                                     6-31G(d)            
Number of atoms                            I               13
Info1-9                                    I   N=           9
          25          23        1002           0           0         100
           6           2           1
Charge                                     I                0
Multiplicity                               I                1
Number of electrons                        I               42
Number of alpha electrons                  I               21
Number of beta electrons                   I               21
Number of basis functions                  I               91
Number of independent functions            I               91
Number of point charges in /Mol/           I                0
Number of translation vectors              I                0
Atomic numbers                             I   N=          13
           8           8           6           6           6           1
           1           1           1           1           1           1
           1
Nuclear charges                            R   N=          13
  8.00000000E+00  8.00000000E+00  6.00000000E+00  6.00000000E+00  6.00000000E+00
  1.00000000E+00  1.00000000E+00  1.00000000E+00  1.00000000E+00  1.00000000E+00
  1.00000000E+00  1.00000000E+00  1.00000000E+00
Current cartesian coordinates              R   N=          39
 -4.47023693E+00 -7.96786954E-01 -1.08196098E-02  4.63354413E+00 -5.37403327E-01
 -1.77448235E-01  4.97714849E-03 -6.51984095E-01 -6.57923439E-02 -2.38932797E+00
  9.20630481E-01  2.97191798E-02  2.39359883E+00  9.47712896E-01  5.40405794E-02
 -3.12432978E-02 -1.98417141E+00  1.52188234E+00  2.11193873E-02 -1.76757764E+00
 -1.80580850E+00 -2.41509706E+00  2.08280334E+00  1.75441963E+00 -2.45371841E+00
  2.21333904E+00 -1.59735095E+00  2.42452347E+00  2.07201905E+00  1.80383094E+00
  2.45929009E+00  2.27153460E+00 -1.53135890E+00 -6.01307787E+00  1.98209777E-01
  1.70581644E-02  4.64625806E+00 -1.71079021E+00  1.23566555E+00
Force Field                                I                0
Int Atom Types                             I   N=          13
           0           0           0           0           0           0
           0           0           0           0           0           0
           0
MM charges                                 R   N=          13
  0.00000000E+00  0.00000000E+00  0.00000000E+00  0.00000000E+00  0.00000000E+00
  0.00000000E+00  0.00000000E+00  0.00000000E+00  0.00000000E+00  0.00000000E+00
  0.00000000E+00  0.00000000E+00  0.00000000E+00
Integer atomic weights                     I   N=          13
          16          16          12          12          12           1
           1           1           1           1           1           1
           1
Real atomic weights                        R   N=          13
  1.59949146E+01  1.59949146E+01  1.20000000E+01  1.20000000E+01  1.20000000E+01
  1.00782504E+00  1.00782504E+00  1.00782504E+00  1.00782504E+00  1.00782504E+00
  1.00782504E+00  1.00782504E+00  1.00782504E+00
Atom fragment info                         I   N=          13
           0           0           0           0           0           0
           0           0           0           0           0           0
           0
Atom residue num                           I   N=          13
           0           0           0           0           0           0
           0           0           0           0           0           0
           0
Nuclear spins                              I   N=          13
           0           0           0           0           0           1
           1           1           1           1           1           1
           1
Nuclear ZEff                               R   N=          13
 -5.60000000E+00 -5.60000000E+00 -3.60000000E+00 -3.60000000E+00 -3.60000000E+00
 -1.00000000E+00 -1.00000000E+00 -1.00000000E+00 -1.00000000E+00 -1.00000000E+00
 -1.00000000E+00 -1.00000000E+00 -1.00000000E+00
Nuclear QMom                               R   N=          13
  0.00000000E+00  0.00000000E+00  0.00000000E+00  0.00000000E+00  0.00000000E+00
  0.00000000E+00  0.00000000E+00  0.00000000E+00  0.00000000E+00  0.00000000E+00
  0.00000000E+00  0.00000000E+00  0.00000000E+00
Nuclear GFac                               R   N=          13
  0.00000000E+00  0.00000000E+00  0.00000000E+00  0.00000000E+00  0.00000000E+00
  2.79284600E+00  2.79284600E+00  2.79284600E+00  2.79284600E+00  2.79284600E+00
  2.79284600E+00  2.79284600E+00  2.79284600E+00
MicOpt                                     I   N=          13
          -1          -1          -1          -1          -1          -1
          -1          -1          -1          -1          -1          -1
          -1
Number of contracted shells                I               36
Number of primitive shells                 I               87
Pure/Cartesian d shells                    I                1
Pure/Cartesian f shells                    I                0
Highest angular momentum                   I                2
Largest degree of contraction              I                6
Shell types                                I   N=          36
           0          -1          -1           2           0          -1
          -1           2           0          -1          -1           2
           0          -1          -1           2           0          -1
          -1           2           0           0           0           0
           0           0           0           0           0           0
           0           0           0           0           0           0
Number of primitives per shell             I   N=          36
           6           3           1           1           6           3
           1           1           6           3           1           1
           6           3           1           1           6           3
           1           1           3           1           3           1
           3           1           3           1           3           1
           3           1           3           1           3           1
Shell to atom map                          I   N=          36
           1           1           1           1           2           2
           2           2           3           3           3           3
           4           4           4           4           5           5
           5           5           6           6           7           7
           8           8           9           9          10          10
          11          11          12          12          13          13
Primitive exponents                        R   N=          87
  5.48467166E+03  8.25234946E+02  1.88046958E+02  5.29645000E+01  1.68975704E+01
  5.79963534E+00  1.55396162E+01  3.59993359E+00  1.01376175E+00  2.70005823E-01
  8.00000000E-01  5.48467166E+03  8.25234946E+02  1.88046958E+02  5.29645000E+01
  1.68975704E+01  5.79963534E+00  1.55396162E+01  3.59993359E+00  1.01376175E+00
  2.70005823E-01  8.00000000E-01  3.04752488E+03  4.57369518E+02  1.03948685E+02
  2.92101553E+01  9.28666296E+00  3.16392696E+00  7.86827235E+00  1.88128854E+00
  5.44249258E-01  1.68714478E-01  8.00000000E-01  3.04752488E+03  4.57369518E+02
  1.03948685E+02  2.92101553E+01  9.28666296E+00  3.16392696E+00  7.86827235E+00
  1.88128854E+00  5.44249258E-01  1.68714478E-01  8.00000000E-01  3.04752488E+03
  4.57369518E+02  1.03948685E+02  2.92101553E+01  9.28666296E+00  3.16392696E+00
  7.86827235E+00  1.88128854E+00  5.44249258E-01  1.68714478E-01  8.00000000E-01
  1.87311370E+01  2.82539436E+00  6.40121692E-01  1.61277759E-01  1.87311370E+01
  2.82539436E+00  6.40121692E-01  1.61277759E-01  1.87311370E+01  2.82539436E+00
  6.40121692E-01  1.61277759E-01  1.87311370E+01  2.82539436E+00  6.40121692E-01
  1.61277759E-01  1.87311370E+01  2.82539436E+00  6.40121692E-01  1.61277759E-01
  1.87311370E+01  2.82539436E+00  6.40121692E-01  1.61277759E-01  1.87311370E+01
  2.82539436E+00  6.40121692E-01  1.61277759E-01  1.87311370E+01  2.82539436E+00
  6.40121692E-01  1.61277759E-01
Contraction coefficients                   R   N=          87
  1.83107443E-03  1.39501722E-02  6.84450781E-02  2.32714336E-01  4.70192898E-01
  3.58520853E-01 -1.10777550E-01 -1.48026263E-01  1.13076702E+00  1.00000000E+00
  1.00000000E+00  1.83107443E-03  1.39501722E-02  6.84450781E-02  2.32714336E-01
  4.70192898E-01  3.58520853E-01 -1.10777550E-01 -1.48026263E-01  1.13076702E+00
  1.00000000E+00  1.00000000E+00  1.83473713E-03  1.40373228E-02  6.88426223E-02
  2.32184443E-01  4.67941348E-01  3.62311985E-01 -1.19332420E-01 -1.60854152E-01
  1.14345644E+00  1.00000000E+00  1.00000000E+00  1.83473713E-03  1.40373228E-02
  6.88426223E-02  2.32184443E-01  4.67941348E-01  3.62311985E-01 -1.19332420E-01
 -1.60854152E-01  1.14345644E+00  1.00000000E+00  1.00000000E+00  1.83473713E-03
  1.40373228E-02  6.88426223E-02  2.32184443E-01  4.67941348E-01  3.62311985E-01
 -1.19332420E-01 -1.60854152E-01  1.14345644E+00  1.00000000E+00  1.00000000E+00
  3.34946043E-02  2.34726953E-01  8.13757326E-01  1.00000000E+00  3.34946043E-02
  2.34726953E-01  8.13757326E-01  1.00000000E+00  3.34946043E-02  2.34726953E-01
  8.13757326E-01  1.00000000E+00  3.34946043E-02  2.34726953E-01  8.13757326E-01
  1.00000000E+00  3.34946043E-02  2.34726953E-01  8.13757326E-01  1.00000000E+00
  3.34946043E-02  2.34726953E-01  8.13757326E-01  1.00000000E+00  3.34946043E-02
  2.34726953E-01  8.13757326E-01  1.00000000E+00  3.34946043E-02  2.34726953E-01
  8.13757326E-01  1.00000000E+00
P(S=P) Contraction coefficients            R   N=          87
  0.00000000E+00  0.00000000E+00  0.00000000E+00  0.00000000E+00  0.00000000E+00
  0.00000000E+00  7.08742682E-02  3.39752839E-01  7.27158577E-01  1.00000000E+00
  0.00000000E+00  0.00000000E+00  0.00000000E+00  0.00000000E+00  0.00000000E+00
  0.00000000E+00  0.00000000E+00  7.08742682E-02  3.39752839E-01  7.27158577E-01
  1.00000000E+00  0.00000000E+00  0.00000000E+00  0.00000000E+00  0.00000000E+00
  0.00000000E+00  0.00000000E+00  0.00000000E+00  6.89990666E-02  3.16423961E-01
  7.44308291E-01  1.00000000E+00  0.00000000E+00  0.00000000E+00  0.00000000E+00
  0.00000000E+00  0.00000000E+00  0.00000000E+00  0.00000000E+00  6.89990666E-02
  3.16423961E-01  7.44308291E-01  1.00000000E+00  0.00000000E+00  0.00000000E+00
  0.00000000E+00  0.00000000E+00  0.00000000E+00  0.00000000E+00  0.00000000E+00
  6.89990666E-02  3.16423961E-01  7.44308291E-01  1.00000000E+00  0.00000000E+00
  0.00000000E+00  0.00000000E+00  0.00000000E+00  0.00000000E+00  0.00000000E+00
  0.00000000E+00  0.00000000E+00  0.00000000E+00  0.00000000E+00  0.00000000E+00
  0.00000000E+00  0.00000000E+00  0.00000000E+00  0.00000000E+00  0.00000000E+00
  0.00000000E+00  0.00000000E+00  0.00000000E+00  0.00000000E+00  0.00000000E+00
  0.00000000E+00  0.00000000E+00  0.00000000E+00  0.00000000E+00  0.00000000E+00
  0.00000000E+00  0.00000000E+00  0.00000000E+00  0.00000000E+00  0.00000000E+00
  0.00000000E+00  0.00000000E+00
Coordinates of each shell                  R   N=         108
 -4.47023693E+00 -7.96786954E-01 -1.08196098E-02 -4.47023693E+00 -7.96786954E-01
 -1.08196098E-02 -4.47023693E+00 -7.96786954E-01 -1.08196098E-02 -4.47023693E+00
 -7.96786954E-01 -1.08196098E-02  4.63354413E+00 -5.37403327E-01 -1.77448235E-01
  4.63354413E+00 -5.37403327E-01 -1.77448235E-01  4.63354413E+00 -5.37403327E-01
 -1.77448235E-01  4.63354413E+00 -5.37403327E-01 -1.77448235E-01  4.97714849E-03
 -6.51984095E-01 -6.57923439E-02  4.97714849E-03 -6.51984095E-01 -6.57923439E-02
  4.97714849E-03 -6.51984095E-01 -6.57923439E-02  4.97714849E-03 -6.51984095E-01
 -6.57923439E-02 -2.38932797E+00  9.20630481E-01  2.97191798E-02 -2.38932797E+00
  9.20630481E-01  2.97191798E-02 -2.38932797E+00  9.20630481E-01  2.97191798E-02
 -2.38932797E+00  9.20630481E-01  2.97191798E-02  2.39359883E+00  9.47712896E-01
  5.40405794E-02  2.39359883E+00  9.47712896E-01  5.40405794E-02  2.39359883E+00
  9.47712896E-01  5.40405794E-02  2.39359883E+00  9.47712896E-01  5.40405794E-02
 -3.12432978E-02 -1.98417141E+00  1.52188234E+00 -3.12432978E-02 -1.98417141E+00
  1.52188234E+00  2.11193873E-02 -1.76757764E+00 -1.80580850E+00  2.11193873E-02
 -1.76757764E+00 -1.80580850E+00 -2.41509706E+00  2.08280334E+00  1.75441963E+00
 -2.41509706E+00  2.08280334E+00  1.75441963E+00 -2.45371841E+00  2.21333904E+00
 -1.59735095E+00 -2.45371841E+00  2.21333904E+00 -1.59735095E+00  2.42452347E+00
  2.07201905E+00  1.80383094E+00  2.42452347E+00  2.07201905E+00  1.80383094E+00
  2.45929009E+00  2.27153460E+00 -1.53135890E+00  2.45929009E+00  2.27153460E+00
 -1.53135890E+00 -6.01307787E+00  1.98209777E-01  1.70581644E-02 -6.01307787E+00
  1.98209777E-01  1.70581644E-02  4.64625806E+00 -1.71079021E+00  1.23566555E+00
  4.64625806E+00 -1.71079021E+00  1.23566555E+00
Constraint Structure                       R   N=          39
 -4.47023693E+00 -7.96786954E-01 -1.08196098E-02  4.63354413E+00 -5.37403327E-01
 -1.77448235E-01  4.97714849E-03 -6.51984095E-01 -6.57923439E-02 -2.38932797E+00
  9.20630481E-01  2.97191798E-02  2.39359883E+00  9.47712896E-01  5.40405794E-02
 -3.12432978E-02 -1.98417141E+00  1.52188234E+00  2.11193873E-02 -1.76757764E+00
 -1.80580850E+00 -2.41509706E+00  2.08280334E+00  1.75441963E+00 -2.45371841E+00
  2.21333904E+00 -1.59735095E+00  2.42452347E+00  2.07201905E+00  1.80383094E+00
  2.45929009E+00  2.27153460E+00 -1.53135890E+00 -6.01307787E+00  1.98209777E-01
  1.70581644E-02  4.64625806E+00 -1.71079021E+00  1.23566555E+00
Num ILSW                                   I              100
ILSW                                       I   N=         100
           0           1           0           0           2           0
           0           0           0           0           0          -1
           0           0           0           0           0           0
           0           0           0           0           1           0
           1           0           0           0           0           0
           0           0      100000           0          -1           0
           0           0           0           0           0           0
           0           0           0           1           1           0
           0           0           1           0           0           0
           0           0           4          40           0           0
           0           0           0           0           0           0
           0           0           0           0           0           0
           0           0           0           0           0           0
           0           0           0           0           0           0
           0           0           0           0           0           0
           0           0           0           0           0           0
           0           0           0           0
Num RLSW                                   I               40
RLSW                                       R   N=          40
  1.00000000E+00  1.00000000E+00  1.00000000E+00  1.00000000E+00  1.00000000E+00
  0.00000000E+00  0.00000000E+00  1.00000000E+00  0.00000000E+00  0.00000000E+00
  0.00000000E+00  0.00000000E+00  1.00000000E+00  0.00000000E+00  0.00000000E+00
  0.00000000E+00  0.00000000E+00  1.00000000E+00  0.00000000E+00  0.00000000E+00
  0.00000000E+00  0.00000000E+00  1.00000000E+00  0.00000000E+00  0.00000000E+00
  0.00000000E+00  0.00000000E+00  1.00000000E+00  0.00000000E+00  0.00000000E+00
  0.00000000E+00  0.00000000E+00  0.00000000E+00  0.00000000E+00  0.00000000E+00
  0.00000000E+00  0.00000000E+00  0.00000000E+00  1.00000000E+00  1.00000000E+00
MxBond                                     I                4
NBond                                      I   N=          13
           2           2           4           4           4           1
           1           1           1           1           1           1
           1
IBond                                      I   N=          52
           4          12           0           0           5          13
           0           0           4           5           6           7
           1           3           8           9           2           3
          10          11           3           0           0           0
           3           0           0           0           4           0
           0           0           4           0           0           0
           5           0           0           0           5           0
           0           0           1           0           0           0
           2           0           0           0
RBond                                      R   N=          52
  1.00000000E+00  1.00000000E+00  0.00000000E+00  0.00000000E+00  1.00000000E+00
  1.00000000E+00  0.00000000E+00  0.00000000E+00  1.00000000E+00  1.00000000E+00
  1.00000000E+00  1.00000000E+00  1.00000000E+00  1.00000000E+00  1.00000000E+00
  1.00000000E+00  1.00000000E+00  1.00000000E+00  1.00000000E+00  1.00000000E+00
  1.00000000E+00  0.00000000E+00  0.00000000E+00  0.00000000E+00  1.00000000E+00
  0.00000000E+00  0.00000000E+00  0.00000000E+00  1.00000000E+00  0.00000000E+00
  0.00000000E+00  0.00000000E+00  1.00000000E+00  0.00000000E+00  0.00000000E+00
  0.00000000E+00  1.00000000E+00  0.00000000E+00  0.00000000E+00  0.00000000E+00
  1.00000000E+00  0.00000000E+00  0.00000000E+00  0.00000000E+00  1.00000000E+00
  0.00000000E+00  0.00000000E+00  0.00000000E+00  1.00000000E+00  0.00000000E+00
  0.00000000E+00  0.00000000E+00
Virial Ratio                               R      2.002364453293741E+00
SCF Energy                                 R     -2.679532036685412E+02
MP2 Energy                                 R     -2.687031128024148E+02
Total Energy                               R     -2.687031128024148E+02
Post-SCF wavefunction norm                 R      1.564557837611720E+00
RMS Force                                  R      3.046557157294323E-07
RMS Density                                R      1.374910731101234E-09
External E-field                           R   N=          35
  0.00000000E+00  0.00000000E+00  0.00000000E+00  0.00000000E+00  0.00000000E+00
  0.00000000E+00  0.00000000E+00  0.00000000E+00  0.00000000E+00  0.00000000E+00
  0.00000000E+00  0.00000000E+00  0.00000000E+00  0.00000000E+00  0.00000000E+00
  0.00000000E+00  0.00000000E+00  0.00000000E+00  0.00000000E+00  0.00000000E+00
  0.00000000E+00  0.00000000E+00  0.00000000E+00  0.00000000E+00  0.00000000E+00
  0.00000000E+00  0.00000000E+00  0.00000000E+00  0.00000000E+00  0.00000000E+00
  0.00000000E+00  0.00000000E+00  0.00000000E+00  0.00000000E+00  0.00000000E+00
IOpCl                                      I                0
IROHF                                      I                0
Alpha Orbital Energies                     R   N=          91
 -2.05649108E+01 -2.05604374E+01 -1.12831938E+01 -1.12779315E+01 -1.12224765E+01
 -1.35542193E+00 -1.35046323E+00 -1.05043050E+00 -9.04243462E-01 -8.17197768E-01
 -7.01479912E-01 -6.83798408E-01 -6.45812097E-01 -6.08242182E-01 -5.86286409E-01
 -5.54397605E-01 -5.26491229E-01 -4.91190799E-01 -4.77745280E-01 -4.45434499E-01
 -4.38532240E-01  2.18892319E-01  2.20535600E-01  2.45586579E-01  2.80286393E-01
  2.94569989E-01  3.26826750E-01  3.42455865E-01  3.49383561E-01  3.55110840E-01
  4.12314184E-01  4.53690244E-01  4.91607611E-01  7.15278962E-01  7.63246956E-01
  7.70423510E-01  8.09895181E-01  8.42240180E-01  8.60726692E-01  9.19386899E-01
  9.54002901E-01  1.03238697E+00  1.06603065E+00  1.08227244E+00  1.10465032E+00
  1.12552385E+00  1.15406199E+00  1.16985985E+00  1.18974750E+00  1.19488538E+00
  1.20572806E+00  1.25701537E+00  1.27665317E+00  1.30815803E+00  1.34649850E+00
  1.44277782E+00  1.50564547E+00  1.59194868E+00  1.64601362E+00  1.70794326E+00
  1.74288189E+00  1.80539072E+00  1.86540266E+00  1.98648152E+00  2.02635625E+00
  2.06854627E+00  2.10095850E+00  2.14473390E+00  2.24034621E+00  2.24646134E+00
  2.27104360E+00  2.39387659E+00  2.42111818E+00  2.45755123E+00  2.50960532E+00
  2.57820797E+00  2.60812638E+00  2.74528952E+00  2.74704081E+00  2.78910008E+00
  2.83068554E+00  2.86582745E+00  2.95442922E+00  3.07662343E+00  3.22914590E+00
  3.25076723E+00  4.16843569E+00  4.18044059E+00  4.60397606E+00  4.74138455E+00
  4.91727672E+00
Alpha MO coefficients                      R   N=        8281
  9.94661915E-01  2.11566917E-02 -1.44806682E-04  1.29791471E-03  3.52311950E-05
  3.80656151E-03  8.41117804E-05 -6.78499345E-04 -1.77533478E-05 -4.18563162E-03
 -4.08236729E-03 -3.84379860E-03 -5.52808288E-05 -8.26947545E-07 -6.63017608E-06
 -4.62805431E-05 -1.57763689E-05 -1.02050333E-06 -3.19796297E-06  7.74685835E-07
  1.12744723E-04 -4.41860680E-05  3.40356129E-05 -2.09379932E-06 -3.97808550E-06
 -7.90587270E-06 -3.14276951E-06 -9.87618391E-06 -3.71549091E-07  4.09880932E-07
 -2.39678683E-06  3.63351646E-05 -2.19744115E-05 -2.03318405E-05 -1.99705774E-06
  2.57167200E-04  4.03846973E-04  2.02155626E-04  1.39171193E-05 -6.13873112E-05
 -9.61097713E-07 -2.72017404E-05  1.44412603E-05  2.10420281E-06  2.76329868E-06
 -2.54163707E-05  2.04432215E-04 -2.52335304E-04 -2.39197731E-04 -5.38647371E-06
  2.64559445E-04 -1.29513904E-04  9.99279392E-05 -3.81975438E-06  2.81824807E-05
 -1.01024348E-05 -6.32103990E-05  6.18385406E-05  1.21739351E-06  1.51010128E-06
  9.87726548E-06  5.31847650E-05  1.00580730E-05  3.84055339E-06 -6.93802182E-07
 -5.26259853E-04  8.92817255E-05  1.55974107E-04  2.68183616E-05 -3.98777974E-06
  7.62291002E-06  1.97031089E-05  1.79837155E-06  1.82154277E-06 -9.64486273E-07
  3.85327043E-05 -3.47135101E-05  3.22784373E-05 -1.85333955E-05 -4.05073766E-05
 -9.24743423E-05 -4.24920568E-05 -9.83675081E-05  9.72265109E-06  1.77801453E-05
  1.37945194E-05  2.88779848E-05  4.23441326E-04 -2.11583074E-04  2.26836351E-06
  9.12241613E-06  4.94223390E-05  2.61277207E-05  3.39979528E-06  8.03270347E-07
  1.70100149E-06 -1.36626064E-04 -4.93543285E-05 -1.89843904E-05 -1.33817054E-05
  8.88744981E-06  1.86291478E-05  1.75731210E-05 -4.23980682E-06 -1.51731282E-06
 -3.02603274E-06  9.94663576E-01  2.11454272E-02 -8.74581587E-04 -1.28716203E-04
  9.63486295E-04  3.91013900E-03  4.28809055E-04  7.36407417E-05 -4.78795953E-04
 -4.06824143E-03 -4.02241357E-03 -3.99669853E-03  1.62885234E-04  5.33958465E-05
  1.14870578E-04  3.53687543E-06  6.57250640E-05 -4.16649219E-05  5.47050535E-06
  2.05151428E-05 -3.58683749E-04 -1.44084323E-05 -1.77308746E-04 -2.45261518E-04
 -6.51771455E-05 -1.38400565E-05 -6.66869184E-06  2.08485871E-07 -9.79570889E-06
 -4.21834670E-06 -3.44851072E-06 -2.37789755E-05  8.60328503E-06 -5.14570613E-06
 -2.57486691E-06  2.15852503E-04  3.03120441E-05 -1.05236760E-04  7.69207014E-05
  1.11964499E-05  8.37236917E-06 -7.03298874E-06 -6.54266324E-06  6.28214508E-06
 -3.64689224E-06 -2.65753461E-05  2.05587713E-04  3.07847941E-04 -1.95583082E-04
 -6.16903462E-05  2.78182465E-04 -2.97181528E-04 -8.85475404E-05  3.64468201E-04
  2.55334893E-05 -1.16882522E-05 -7.44487806E-05 -4.98154691E-05  4.12214331E-06
  1.19296175E-05  1.85163372E-05  6.85637529E-05 -8.42992809E-07 -1.50514240E-04
 -7.04112147E-06 -2.88482341E-05 -1.15447419E-06  4.02669102E-05 -7.15313502E-05
 -1.63687542E-04  2.05403992E-05  5.05225839E-05  1.67483987E-06  8.00062006E-07
  4.04593740E-04 -2.29340007E-04 -1.59674953E-04  6.99261752E-05  8.31750533E-05
  9.29013596E-05  2.05773042E-06  1.80089365E-03  6.42148238E-05 -9.60496304E-05
 -4.53316578E-06 -5.47659727E-04 -3.71326592E-04  3.83204359E-05 -4.53477290E-04
 -1.00852472E-05 -1.33323735E-05 -4.63524622E-05 -1.98140978E-04  4.13985291E-05
 -8.47933214E-06  3.25770293E-06  9.61210198E-04 -3.72925182E-04  9.86126503E-05
  1.49937944E-05 -7.90822819E-05 -1.43651271E-04 -1.51849085E-04 -1.71154914E-05
 -6.77333790E-06 -1.16720841E-05  5.07329583E-03  1.38124117E-04 -2.88562601E-05
 -5.50452233E-07 -4.53979370E-07  4.01923891E-03 -1.82768169E-03  1.14551102E-03
  6.00220990E-05 -3.38096809E-04 -2.28302043E-04 -1.24689771E-04  1.18973127E-04
  5.37113293E-06 -6.84315449E-06  9.95888886E-01  2.75581506E-02 -5.00416889E-04
 -4.45938563E-04 -5.42927138E-06 -1.47100415E-02 -1.34050192E-03  3.37375618E-04
  3.42025438E-05 -1.45814658E-03 -1.46557644E-03 -1.50792314E-03  1.32152917E-04
  3.94859091E-06 -1.01861450E-06 -8.12974423E-04 -2.11756537E-04  5.33358535E-05
 -1.88271160E-05  1.27387304E-06  3.15836810E-04 -4.86976463E-04  5.21450129E-04
  6.70969902E-05 -5.68131339E-05 -7.35697904E-05 -8.22644551E-05  2.94441230E-05
  7.79923727E-06 -1.55576989E-06 -1.56710866E-04  1.61648228E-04 -1.62099485E-04
  1.61971825E-04  1.88172123E-04  2.60256865E-03  1.91285572E-04  2.60535411E-03
 -4.43208268E-05 -3.04898131E-04 -4.25962471E-05 -2.62271786E-04 -3.73343029E-06
  1.47819835E-04 -6.03697840E-05  1.00665256E-04 -4.36400586E-05 -1.78218662E-04
 -5.10064047E-05  3.91471383E-06  3.02390392E-06  8.90859349E-04  4.16879326E-04
  7.23380925E-05 -1.30374513E-05 -7.59214354E-05 -1.33077034E-04 -1.46678802E-04
  3.08275132E-05 -1.86960796E-06 -7.49976323E-07 -1.54239092E-04  8.61786852E-05
 -1.04705072E-04  4.51545036E-05  4.53851305E-05  1.71781725E-03 -8.99023046E-05
  2.38033014E-05 -1.35843550E-04 -5.35299850E-04 -2.99414303E-04  1.73489283E-05
  4.46737990E-04  6.24472207E-05 -1.27378303E-05  5.43264820E-03  1.59433329E-04
  1.19650999E-05 -6.43374494E-07  8.33091856E-06  3.96106743E-03  1.96021320E-03
  1.10736364E-03  4.61401055E-06 -3.38328598E-04 -2.46642712E-04 -1.23228001E-04
 -1.21213150E-04 -1.75896638E-05 -1.04497114E-05  7.00659780E-04 -1.80391011E-04
 -5.60299406E-05 -1.04421461E-05 -3.41965856E-06  4.19660566E-04  4.86168765E-04
  4.91530433E-04  5.13400131E-05 -4.53813443E-05 -9.11970648E-05 -8.24125214E-05
 -3.45747904E-05  3.70405755E-06  2.83963845E-06  9.95885125E-01  2.76053901E-02
  5.07081134E-04 -4.41327181E-04 -2.89374751E-05 -1.48386589E-02  1.21666857E-03
  3.94469032E-04  1.80671740E-04 -1.45565553E-03 -1.51798676E-03 -1.48381503E-03
 -1.24142750E-04 -2.49340801E-05 -1.30666130E-05 -1.48258394E-04  1.44364094E-04
 -1.75229394E-04  1.32947375E-04 -5.35706384E-05 -2.84511544E-04 -4.29504766E-05
 -2.67825635E-04  1.76892859E-04  2.55010022E-03  2.11714284E-04  2.67106433E-03
  1.60866137E-05  1.11868623E-04  3.42093563E-05  2.96570549E-04  1.22698444E-05
 -3.63544604E-05 -6.54297908E-05  6.41048673E-06  2.86336123E-06 -3.69563393E-04
  1.31635476E-04 -9.35147634E-05 -1.07703022E-05  1.28208485E-04  3.07177673E-05
 -5.67655656E-05 -3.57094380E-05 -6.69599404E-06  6.00270695E-06 -1.64110118E-05
 -1.17149568E-04  5.41954884E-05  7.72596867E-06 -1.60777524E-05  1.22097341E-04
  7.13338094E-05 -4.67328692E-05  9.20823253E-05 -1.50217839E-05 -3.26260769E-05
 -1.34811564E-04  4.03272672E-05 -4.55134311E-06 -6.72976506E-06  9.95795912E-01
  2.87871414E-02 -5.53224835E-05  1.58377556E-04  6.67963894E-05 -1.75803580E-02
  1.75251054E-04 -1.04158998E-03 -1.26947277E-04 -1.65682511E-03 -1.69548695E-03
 -1.63196112E-03  8.62802168E-06  4.51955266E-07  2.67821239E-06 -5.39405575E-03
 -8.49745339E-05  8.09253906E-05  1.22604901E-05  1.41985241E-06  4.47084237E-03
  1.72835727E-03 -1.05095145E-03 -6.10729127E-05 -3.61975505E-04 -3.03686886E-04
 -8.55581637E-05  1.86223011E-04  1.02973636E-05 -1.33596437E-05 -5.74091589E-03
 -9.78472703E-05 -8.85439873E-05  1.02240752E-05 -6.21865760E-06  4.27102302E-03
 -1.60996286E-03 -1.07846560E-03 -7.56982023E-05 -3.53226672E-04 -2.81374723E-04
 -9.08517332E-05 -1.99909382E-04 -2.55675883E-05 -1.44626489E-05  2.41264071E-04
  2.71360198E-03  2.56352462E-04  2.64579230E-03 -1.58935770E-04 -1.80811028E-05
 -1.59983294E-04 -1.53807478E-05 -1.58096255E-04  1.56516116E-05 -1.57305100E-04
  1.89277853E-05  3.35629804E-05  2.24920996E-04 -4.62182364E-05 -1.52617808E-04
 -1.93999443E-01  4.36073061E-01  9.79333130E-04  7.94512619E-02  2.09158734E-03
  4.18715076E-01  2.19403577E-03  4.82922297E-02  1.35263137E-03  2.11363656E-02
  1.42778497E-02 -1.79658244E-03 -3.50532589E-03 -1.24649499E-04  4.83153454E-04
 -5.44368273E-02  1.22200954E-01 -1.71786319E-02 -6.20699311E-04  1.56694793E-02
  1.16455778E-01 -1.12394763E-02 -1.24857649E-03  9.45471626E-03  3.00692207E-03
  2.73333626E-03  3.49996614E-03 -1.90743372E-03 -1.15305653E-03 -3.20290237E-03
 -2.03359041E-02  3.48257788E-02 -1.48923710E-02  8.57351333E-03  8.39690253E-04
  3.96067145E-02 -8.34283364E-03  8.37917603E-03  5.30315860E-04  5.59028644E-03
  7.98397303E-04 -4.95503502E-04 -2.01685801E-03 -1.66771386E-04  7.71461349E-05
 -6.85124310E-02  1.28832225E-01 -6.76922356E-02 -5.61048460E-02 -1.32101091E-03
  3.44967534E-02 -6.71738200E-03  1.03566901E-02  3.66437413E-04  1.22866755E-02
  5.35667339E-03 -4.67311593E-03  1.56074852E-02  3.88041136E-04  2.42143739E-04
 -2.15611368E-02  4.13994220E-02  1.61231878E-02 -1.59293385E-02 -1.42916411E-03
  9.06315381E-03  4.08496810E-03  2.01867586E-04  1.26262594E-03  3.94682539E-03
  1.49539301E-03 -1.21533300E-03 -3.95168068E-03 -3.85931797E-04  1.62265150E-04
  8.18081065E-03  3.72886526E-03  7.94425881E-03  2.77994232E-03  2.43885403E-02
  1.69068624E-03  2.43597901E-02  1.54289174E-03  8.17415972E-03  4.02792670E-04
  8.49111253E-03  1.60454428E-03  1.13287510E-01 -2.46891132E-03  3.16695594E-02
 -7.21702522E-04  5.68804580E-02 -1.27851776E-01  6.36563115E-04 -2.30697883E-02
 -6.11965391E-04 -1.24068015E-01  3.56590455E-04 -1.49257233E-02 -3.49204354E-04
 -6.05614052E-03 -4.30226852E-03  4.58674537E-04  1.18697520E-03  5.20817962E-05
 -1.26861511E-04 -1.94402897E-01  4.37109104E-01 -5.90699553E-02 -3.52975702E-03
  5.62752366E-02  4.19012113E-01 -3.64311292E-02 -1.58137096E-03  3.38553873E-02
  1.01013703E-02  1.04286191E-02  1.30768828E-02 -6.72695769E-03 -3.95981773E-03
 -1.12935699E-02 -1.09831168E-02  2.02422391E-02  2.55468213E-02  4.81919606E-03