
    -----------------------------------------------------------------------
          Psi4: An Open-Source Ab Initio Electronic Structure Package
                               Psi4 1.3.2 release

                         Git: Rev {HEAD} ecbda83 


    R. M. Parrish, L. A. Burns, D. G. A. Smith, A. C. Simmonett,
    A. E. DePrince III, E. G. Hohenstein, U. Bozkaya, A. Yu. Sokolov,
    R. Di Remigio, R. M. Richard, J. F. Gonthier, A. M. James,
    H. R. McAlexander, A. Kumar, M. Saitow, X. Wang, B. P. Pritchard,
    P. Verma, H. F. Schaefer III, K. Patkowski, R. A. King, E. F. Valeev,
    F. A. Evangelista, J. M. Turney, T. D. Crawford, and C. D. Sherrill,
    J. Chem. Theory Comput. 13(7) pp 3185--3197 (2017).
    (doi: 10.1021/acs.jctc.7b00174)


                         Additional Contributions by
    P. Kraus, H. Kruse, M. H. Lechner, M. C. Schieber, R. A. Shaw,
    A. Alenaizan, R. Galvelis, Z. L. Glick, S. Lehtola, and J. P. Misiewicz

    -----------------------------------------------------------------------


    Psi4 started on: Friday, 05 February 2021 04:58AM

    Process ID: 35330
    Host:       node37.bme.utexas.edu
    PSIDATADIR: /home/xy3866/psi4conda/share/psi4
    Memory:     500.0 MiB
    Threads:    8
    
  ==> Input File <==

--------------------------------------------------------------------------
#psi4
#
memory 32 gb

molecule  {
0 1
  N        1.0119030     0.0333230     0.0008060
  N        1.7066429    -1.0775373    -0.4262714
  C       -0.4063900     0.0163860    -0.0081010
  C       -1.1124080     1.1967220    -0.2540550
  C       -1.0729400    -1.1865160     0.2388070
  C        1.8312940     1.0508850     0.4071570
  C       -2.5072630     1.1720280    -0.2304200
  C       -2.4668310    -1.1992430     0.2370020
  C        3.1277520     0.5983640     0.2378140
  C       -3.1875810    -0.0227020     0.0140150
  C        2.9917500    -0.7051290    -0.2688550
  H       -0.5788940     2.1134690    -0.4901430
  H       -0.4926250    -2.0861370     0.4161180
  H        1.4325560     1.9713960     0.8093900
  H       -3.0617120     2.0872770    -0.4220560
  H       -2.9921950    -2.1322260     0.4251330
  H        4.0379080     1.1354570     0.4652770
  H       -4.2743140    -0.0387150     0.0221240
  H        3.7631710    -1.4121260    -0.5458550
units angstrom
no_reorient  #important for SAPT in psi4, default
symmetry c1  #important for SAPT in psi4, default
}

set PROPERTIES_ORIGIN ["COM"]
properties('MP2/aug-cc-pvtz', properties = ['dipole'])
--------------------------------------------------------------------------

  Memory set to  29.802 GiB by Python driver.
    SCF Algorithm Type (re)set to DF.

*** tstart() called on node37.bme.utexas.edu
*** at Fri Feb  5 04:58:32 2021

   => Loading Basis Set <=

    Name: AUG-CC-PVTZ
    Role: ORBITAL
    Keyword: BASIS
    atoms 1-2   entry N          line   281 file /home/xy3866/psi4conda/share/psi4/basis/aug-cc-pvtz.gbs 
    atoms 3-11  entry C          line   235 file /home/xy3866/psi4conda/share/psi4/basis/aug-cc-pvtz.gbs 
    atoms 12-19 entry H          line    36 file /home/xy3866/psi4conda/share/psi4/basis/aug-cc-pvtz.gbs 


         ---------------------------------------------------------
                                   SCF
               by Justin Turney, Rob Parrish, Andy Simmonett
                          and Daniel G. A. Smith
                              RHF Reference
                        8 Threads,  30517 MiB Core
         ---------------------------------------------------------

  ==> Geometry <==

    Molecular point group: c1
    Full point group: C1

    Geometry (in Angstrom), charge = 0, multiplicity = 1:

       Center              X                  Y                   Z               Mass       
    ------------   -----------------  -----------------  -----------------  -----------------
         N            0.996260880472     0.046660067538     0.006304392705    14.003074004430
         N            1.691000780472    -1.064200232462    -0.420773007295    14.003074004430
         C           -0.422032119528     0.029723067538    -0.002602607295    12.000000000000
         C           -1.128050119528     1.210059067538    -0.248556607295    12.000000000000
         C           -1.088582119528    -1.173178932462     0.244305392705    12.000000000000
         C            1.815651880472     1.064222067538     0.412655392705    12.000000000000
         C           -2.522905119528     1.185365067538    -0.224921607295    12.000000000000
         C           -2.482473119528    -1.185905932462     0.242500392705    12.000000000000
         C            3.112109880472     0.611701067538     0.243312392705    12.000000000000
         C           -3.203223119528    -0.009364932462     0.019513392705    12.000000000000
         C            2.976107880472    -0.691791932462    -0.263356607295    12.000000000000
         H           -0.594536119528     2.126806067538    -0.484644607295     1.007825032230
         H           -0.508267119528    -2.072799932462     0.421616392705     1.007825032230
         H            1.416913880472     1.984733067538     0.814888392705     1.007825032230
         H           -3.077354119528     2.100614067538    -0.416557607295     1.007825032230
         H           -3.007837119528    -2.118888932462     0.430631392705     1.007825032230
         H            4.022265880472     1.148794067538     0.470775392705     1.007825032230
         H           -4.289956119528    -0.025377932462     0.027622392705     1.007825032230
         H            3.747528880472    -1.398788932462    -0.540356607295     1.007825032230

  Running in c1 symmetry.

  Rotational constants: A =      0.11750  B =      0.02401  C =      0.02046 [cm^-1]
  Rotational constants: A =   3522.42811  B =    719.69269  C =    613.25051 [MHz]
  Nuclear repulsion =  545.731246635310640

  Charge       = 0
  Multiplicity = 1
  Electrons    = 76
  Nalpha       = 38
  Nbeta        = 38

  ==> Algorithm <==

  SCF Algorithm Type is DF.
  DIIS enabled.
  MOM disabled.
  Fractional occupation disabled.
  Guess Type is SAD.
  Energy threshold   = 1.00e-10
  Density threshold  = 1.00e-10
  Integral threshold = 0.00e+00

  ==> Primary Basis <==

  Basis Set: AUG-CC-PVTZ
    Blend: AUG-CC-PVTZ
    Number of shells: 226
    Number of basis function: 690
    Number of Cartesian functions: 805
    Spherical Harmonics?: true
    Max angular momentum: 3

   => Loading Basis Set <=

    Name: (AUG-CC-PVTZ AUX)
    Role: JKFIT
    Keyword: DF_BASIS_SCF
    atoms 1-2   entry N          line   224 file /home/xy3866/psi4conda/share/psi4/basis/aug-cc-pvtz-jkfit.gbs 
    atoms 3-11  entry C          line   162 file /home/xy3866/psi4conda/share/psi4/basis/aug-cc-pvtz-jkfit.gbs 
    atoms 12-19 entry H          line    70 file /home/xy3866/psi4conda/share/psi4/basis/aug-cc-pvtz-jkfit.gbs 

  ==> Pre-Iterations <==

   -------------------------------------------------------
    Irrep   Nso     Nmo     Nalpha   Nbeta   Ndocc  Nsocc
   -------------------------------------------------------
     A        690     690       0       0       0       0
   -------------------------------------------------------
    Total     690     690      38      38      38       0
   -------------------------------------------------------

  ==> Integral Setup <==

  DFHelper Memory: AOs need 5.125 GiB; user supplied 22.352 GiB. Using in-core AOs.

  ==> MemDFJK: Density-Fitted J/K Matrices <==

    J tasked:                   Yes
    K tasked:                   Yes
    wK tasked:                   No
    OpenMP threads:               8
    Memory [MiB]:             22888
    Algorithm:                 Disk
    Schwarz Cutoff:           1E-12
    Mask sparsity (%):       7.0788
    Fitting Condition:        1E-10

   => Auxiliary Basis Set <=

  Basis Set: (AUG-CC-PVTZ AUX)
    Blend: AUG-CC-PVTZ-JKFIT
    Number of shells: 442
    Number of basis function: 1512
    Number of Cartesian functions: 1881
    Spherical Harmonics?: true
    Max angular momentum: 4

  Minimum eigenvalue in the overlap matrix is 5.7107897217E-07.
  Using Symmetric Orthogonalization.

  SCF Guess: Superposition of Atomic Densities via on-the-fly atomic UHF.

  ==> Iterations <==

                           Total Energy        Delta E     RMS |[F,P]|

   @DF-RHF iter SAD:  -454.06722579556214   -4.54067e+02   0.00000e+00 
   @DF-RHF iter   1:  -454.22364248276847   -1.56417e-01   9.56100e-04 DIIS
   @DF-RHF iter   2:  -454.43621530207366   -2.12573e-01   4.58511e-04 DIIS
   @DF-RHF iter   3:  -454.48218016126674   -4.59649e-02   1.12573e-04 DIIS
   @DF-RHF iter   4:  -454.48550886498521   -3.32870e-03   5.83832e-05 DIIS
   @DF-RHF iter   5:  -454.48632163082340   -8.12766e-04   7.31114e-06 DIIS
   @DF-RHF iter   6:  -454.48635116133033   -2.95305e-05   3.47381e-06 DIIS
   @DF-RHF iter   7:  -454.48635755193686   -6.39061e-06   1.73442e-06 DIIS
   @DF-RHF iter   8:  -454.48635971580427   -2.16387e-06   7.59238e-07 DIIS
   @DF-RHF iter   9:  -454.48636030869619   -5.92892e-07   2.95659e-07 DIIS
   @DF-RHF iter  10:  -454.48636037938252   -7.06863e-08   7.80638e-08 DIIS
   @DF-RHF iter  11:  -454.48636038453640   -5.15388e-09   2.50969e-08 DIIS
   @DF-RHF iter  12:  -454.48636038505924   -5.22846e-10   1.43694e-08 DIIS
   @DF-RHF iter  13:  -454.48636038523068   -1.71440e-10   5.74274e-09 DIIS
   @DF-RHF iter  14:  -454.48636038527309   -4.24052e-11   2.42670e-09 DIIS
   @DF-RHF iter  15:  -454.48636038528173   -8.64020e-12   1.09753e-09 DIIS
   @DF-RHF iter  16:  -454.48636038528332   -1.59162e-12   3.22518e-10 DIIS
   @DF-RHF iter  17:  -454.48636038528190    1.42109e-12   9.80165e-11 DIIS
  Energy and wave function converged.


  ==> Post-Iterations <==

    Orbital Energies [Eh]
    ---------------------

    Doubly Occupied:                                                      

       1A    -15.650381     2A    -15.593035     3A    -11.291281  
       4A    -11.285442     5A    -11.261602     6A    -11.247803  
       7A    -11.246181     8A    -11.245562     9A    -11.240403  
      10A    -11.240244    11A    -11.228325    12A     -1.374045  
      13A     -1.174946    14A     -1.110933    15A     -1.063569  
      16A     -1.024069    17A     -0.996873    18A     -0.860031  
      19A     -0.846994    20A     -0.794958    21A     -0.778395  
      22A     -0.742656    23A     -0.686194    24A     -0.647630  
      25A     -0.638468    26A     -0.613215    27A     -0.596616  
      28A     -0.592903    29A     -0.587399    30A     -0.563710  
      31A     -0.519725    32A     -0.510153    33A     -0.506761  
      34A     -0.465882    35A     -0.395750    36A     -0.350843  
      37A     -0.346202    38A     -0.312240  

    Virtual:                                                              

      39A      0.026053    40A      0.030959    41A      0.033881  
      42A      0.041107    43A      0.043439    44A      0.049682  
      45A      0.055448    46A      0.063770    47A      0.082693  
      48A      0.085770    49A      0.091889    50A      0.094350  
      51A      0.097534    52A      0.102219    53A      0.109578  
      54A      0.109879    55A      0.112497    56A      0.115715  
      57A      0.119873    58A      0.122050    59A      0.124443  
      60A      0.125246    61A      0.129190    62A      0.131415  
      63A      0.137656    64A      0.138568    65A      0.144736  
      66A      0.146804    67A      0.151197    68A      0.155748  
      69A      0.160953    70A      0.163277    71A      0.169689  
      72A      0.172726    73A      0.183759    74A      0.185108  
      75A      0.193197    76A      0.202999    77A      0.210146  
      78A      0.219879    79A      0.221804    80A      0.227420  
      81A      0.233242    82A      0.239506    83A      0.242417  
      84A      0.252557    85A      0.256116    86A      0.258029  
      87A      0.259954    88A      0.269389    89A      0.271258  
      90A      0.275659    91A      0.286774    92A      0.289115  
      93A      0.294023    94A      0.298005    95A      0.303890  
      96A      0.307295    97A      0.312266    98A      0.314514  
      99A      0.316109   100A      0.320606   101A      0.324801  
     102A      0.325856   103A      0.332532   104A      0.334819  
     105A      0.335319   106A      0.339671   107A      0.345750  
     108A      0.352686   109A      0.358220   110A      0.364865  
     111A      0.367270   112A      0.374844   113A      0.386836  
     114A      0.391933   115A      0.394330   116A      0.406070  
     117A      0.412893   118A      0.414872   119A      0.420223  
     120A      0.428926   121A      0.433261   122A      0.437540  
     123A      0.443706   124A      0.449005   125A      0.449901  
     126A      0.452299   127A      0.459761   128A      0.465366  
     129A      0.470069   130A      0.472616   131A      0.474856  
     132A      0.477991   133A      0.484264   134A      0.486144  
     135A      0.488466   136A      0.491257   137A      0.498193  
     138A      0.499800   139A      0.506397   140A      0.509817  
     141A      0.515270   142A      0.518806   143A      0.523109  
     144A      0.528000   145A      0.530133   146A      0.531891  
     147A      0.535677   148A      0.541235   149A      0.544572  
     150A      0.546333   151A      0.553945   152A      0.556817  
     153A      0.558358   154A      0.570468   155A      0.580621  
     156A      0.585443   157A      0.599539   158A      0.604740  
     159A      0.608365   160A      0.618094   161A      0.619891  
     162A      0.627486   163A      0.638061   164A      0.639366  
     165A      0.646485   166A      0.653893   167A      0.659765  
     168A      0.664208   169A      0.666216   170A      0.670620  
     171A      0.673677   172A      0.689454   173A      0.691073  
     174A      0.701250   175A      0.705747   176A      0.709622  
     177A      0.717191   178A      0.720813   179A      0.726749  
     180A      0.734126   181A      0.739209   182A      0.748721  
     183A      0.763623   184A      0.766221   185A      0.769052  
     186A      0.775185   187A      0.784295   188A      0.791532  
     189A      0.800620   190A      0.805239   191A      0.810528  
     192A      0.815608   193A      0.828471   194A      0.832444  
     195A      0.839093   196A      0.843090   197A      0.845876  
     198A      0.853410   199A      0.860621   200A      0.866134  
     201A      0.873250   202A      0.878582   203A      0.886413  
     204A      0.890250   205A      0.890812   206A      0.892558  
     207A      0.902484   208A      0.905834   209A      0.911611  
     210A      0.921232   211A      0.923066   212A      0.925821  
     213A      0.934102   214A      0.940644   215A      0.947499  
     216A      0.954246   217A      0.963363   218A      0.967577  
     219A      0.978277   220A      0.984856   221A      0.989428  
     222A      0.999575   223A      1.001456   224A      1.007716  
     225A      1.012080   226A      1.018206   227A      1.021500  
     228A      1.026746   229A      1.038354   230A      1.041716  
     231A      1.049267   232A      1.054091   233A      1.058500  
     234A      1.062907   235A      1.066159   236A      1.074619  
     237A      1.076226   238A      1.080181   239A      1.084014  
     240A      1.088593   241A      1.095263   242A      1.095694  
     243A      1.106566   244A      1.112298   245A      1.119459  
     246A      1.120182   247A      1.129076   248A      1.132401  
     249A      1.136102   250A      1.138785   251A      1.148548  
     252A      1.155950   253A      1.160387   254A      1.172653  
     255A      1.176210   256A      1.181628   257A      1.187603  
     258A      1.192468   259A      1.199400   260A      1.204203  
     261A      1.211218   262A      1.214731   263A      1.217944  
     264A      1.220420   265A      1.231813   266A      1.237724  
     267A      1.241325   268A      1.243225   269A      1.257953  
     270A      1.260509   271A      1.266175   272A      1.279781  
     273A      1.286836   274A      1.289150   275A      1.298874  
     276A      1.299585   277A      1.306610   278A      1.319986  
     279A      1.326523   280A      1.341307   281A      1.344944  
     282A      1.364383   283A      1.370737   284A      1.379522  
     285A      1.386159   286A      1.394800   287A      1.400980  
     288A      1.403943   289A      1.412044   290A      1.424011  
     291A      1.432429   292A      1.441252   293A      1.450763  
     294A      1.454878   295A      1.464893   296A      1.470630  
     297A      1.478555   298A      1.487297   299A      1.492842  
     300A      1.506067   301A      1.509314   302A      1.511689  
     303A      1.522871   304A      1.532566   305A      1.539809  
     306A      1.546493   307A      1.552452   308A      1.558354  
     309A      1.566142   310A      1.577195   311A      1.582772  
     312A      1.605583   313A      1.612618   314A      1.626523  
     315A      1.636472   316A      1.644904   317A      1.657057  
     318A      1.667936   319A      1.674573   320A      1.686412  
     321A      1.698929   322A      1.707536   323A      1.710783  
     324A      1.722836   325A      1.729286   326A      1.736881  
     327A      1.755404   328A      1.761959   329A      1.769125  
     330A      1.770074   331A      1.781539   332A      1.793650  
     333A      1.795491   334A      1.811690   335A      1.821068  
     336A      1.828946   337A      1.835702   338A      1.839560  
     339A      1.844060   340A      1.863284   341A      1.867463  
     342A      1.878258   343A      1.880817   344A      1.893029  
     345A      1.906804   346A      1.919046   347A      1.933565  
     348A      1.938679   349A      1.941015   350A      1.948577  
     351A      1.963338   352A      1.973996   353A      1.982520  
     354A      1.983341   355A      1.998821   356A      2.002900  
     357A      2.010073   358A      2.019016   359A      2.027947  
     360A      2.033407   361A      2.036826   362A      2.041576  
     363A      2.043929   364A      2.049023   365A      2.053935  
     366A      2.061258   367A      2.073594   368A      2.082837  
     369A      2.088404   370A      2.097101   371A      2.102872  
     372A      2.114021   373A      2.124429   374A      2.133917  
     375A      2.142167   376A      2.159265   377A      2.180012  
     378A      2.182696   379A      2.198250   380A      2.218203  
     381A      2.219505   382A      2.232351   383A      2.251620  
     384A      2.256412   385A      2.261919   386A      2.264813  
     387A      2.293801   388A      2.316520   389A      2.331816  
     390A      2.338945   391A      2.347216   392A      2.350397  
     393A      2.361933   394A      2.367171   395A      2.382826  
     396A      2.393779   397A      2.398870   398A      2.419785  
     399A      2.423194   400A      2.433657   401A      2.446235  
     402A      2.453829   403A      2.469633   404A      2.480279  
     405A      2.504812   406A      2.509487   407A      2.523822  
     408A      2.541056   409A      2.551590   410A      2.559551  
     411A      2.577882   412A      2.591927   413A      2.602815  
     414A      2.618146   415A      2.622174   416A      2.668484  
     417A      2.678659   418A      2.688919   419A      2.704263  
     420A      2.738719   421A      2.743053   422A      2.774865  
     423A      2.788649   424A      2.801638   425A      2.816439  
     426A      2.824084   427A      2.854066   428A      2.866654  
     429A      2.887597   430A      2.909224   431A      2.951559  
     432A      2.966472   433A      2.991701   434A      3.034347  
     435A      3.043589   436A      3.064895   437A      3.093873  
     438A      3.140256   439A      3.161222   440A      3.181135  
     441A      3.190600   442A      3.198128   443A      3.216862  
     444A      3.238314   445A      3.242610   446A      3.246543  
     447A      3.277230   448A      3.308016   449A      3.315505  
     450A      3.320564   451A      3.348060   452A      3.359191  
     453A      3.372197   454A      3.376977   455A      3.380843  
     456A      3.391986   457A      3.396807   458A      3.413582  
     459A      3.420801   460A      3.443625   461A      3.456072  
     462A      3.464225   463A      3.471034   464A      3.489239  
     465A      3.498742   466A      3.519838   467A      3.523717  
     468A      3.531973   469A      3.546339   470A      3.550803  
     471A      3.556868   472A      3.564854   473A      3.574036  
     474A      3.580190   475A      3.589165   476A      3.599080  
     477A      3.614823   478A      3.619802   479A      3.635013  
     480A      3.648921   481A      3.658562   482A      3.665812  
     483A      3.671103   484A      3.688475   485A      3.707835  
     486A      3.714361   487A      3.720994   488A      3.744129  
     489A      3.751368   490A      3.767738   491A      3.782672  
     492A      3.791847   493A      3.800613   494A      3.804714  
     495A      3.831022   496A      3.844364   497A      3.846178  
     498A      3.847195   499A      3.857635   500A      3.870291  
     501A      3.881014   502A      3.886655   503A      3.901813  
     504A      3.919746   505A      3.923905   506A      3.932109  
     507A      3.938757   508A      3.942666   509A      3.953514  
     510A      3.968689   511A      3.972939   512A      3.978209  
     513A      3.984495   514A      3.991518   515A      3.997842  
     516A      4.031000   517A      4.036038   518A      4.045736  
     519A      4.060456   520A      4.077417   521A      4.084678  
     522A      4.101129   523A      4.114779   524A      4.131915  
     525A      4.133022   526A      4.142289   527A      4.156061  
     528A      4.164790   529A      4.176956   530A      4.193309  
     531A      4.199782   532A      4.212606   533A      4.221210  
     534A      4.235017   535A      4.239242   536A      4.246100  
     537A      4.265379   538A      4.276092   539A      4.285524  
     540A      4.298192   541A      4.311474   542A      4.325526  
     543A      4.328648   544A      4.342462   545A      4.350846  
     546A      4.361006   547A      4.375807   548A      4.383452  
     549A      4.398016   550A      4.403532   551A      4.409575  
     552A      4.422925   553A      4.436321   554A      4.439689  
     555A      4.447337   556A      4.465082   557A      4.466920  
     558A      4.492592   559A      4.499940   560A      4.514992  
     561A      4.522530   562A      4.538156   563A      4.554965  
     564A      4.580762   565A      4.591303   566A      4.625263  
     567A      4.636087   568A      4.648073   569A      4.667924  
     570A      4.691333   571A      4.706561   572A      4.711159  
     573A      4.727745   574A      4.737027   575A      4.753959  
     576A      4.772917   577A      4.785911   578A      4.826235  
     579A      4.839648   580A      4.861644   581A      4.869685  
     582A      4.887458   583A      4.911145   584A      4.917914  
     585A      4.920692   586A      4.943038   587A      4.960758  
     588A      4.962000   589A      4.973506   590A      4.995362  
     591A      5.008371   592A      5.012621   593A      5.055126  
     594A      5.062100   595A      5.063788   596A      5.082117  
     597A      5.088103   598A      5.101170   599A      5.115069  
     600A      5.120662   601A      5.128342   602A      5.143150  
     603A      5.147401   604A      5.163106   605A      5.167870  
     606A      5.172086   607A      5.194663   608A      5.204188  
     609A      5.220764   610A      5.252122   611A      5.262654  
     612A      5.273775   613A      5.287813   614A      5.305207  
     615A      5.318213   616A      5.323669   617A      5.333610  
     618A      5.363337   619A      5.399766   620A      5.417641  
     621A      5.425059   622A      5.430156   623A      5.444406  
     624A      5.482384   625A      5.503402   626A      5.522274  
     627A      5.539904   628A      5.588183   629A      5.620748  
     630A      5.642529   631A      5.699927   632A      5.720974  
     633A      5.735806   634A      5.748038   635A      5.765093  
     636A      5.787978   637A      5.797838   638A      5.833200  
     639A      5.851024   640A      5.860508   641A      5.881731  
     642A      5.903984   643A      5.932595   644A      5.939585  
     645A      5.982833   646A      5.989015   647A      6.045796  
     648A      6.082040   649A      6.110313   650A      6.130292  
     651A      6.162882   652A      6.179659   653A      6.180626  
     654A      6.225382   655A      6.256047   656A      6.291446  
     657A      6.331059   658A      6.362732   659A      6.382965  
     660A      6.423121   661A      6.488908   662A      6.527808  
     663A      6.554683   664A      6.630444   665A      6.692514  
     666A      6.712584   667A      6.752286   668A      6.772843  
     669A      6.879546   670A      6.890721   671A      7.009711  
     672A      7.016760   673A      7.027553   674A      7.082114  
     675A      7.199090   676A      7.239381   677A      7.306238  
     678A      7.441116   679A      7.724921   680A     15.536247  
     681A     16.124786   682A     16.304279   683A     16.831350  
     684A     17.510619   685A     18.382092   686A     18.480740  
     687A     19.191683   688A     19.720716   689A     19.853750  
     690A     21.207505  

    Final Occupation by Irrep:
              A 
    DOCC [    38 ]

  @DF-RHF Final Energy:  -454.48636038528190

   => Energetics <=

    Nuclear Repulsion Energy =            545.7312466353106402
    One-Electron Energy =               -1697.1723745693414003
    Two-Electron Energy =                 696.9547675487488050
    Total Energy =                       -454.4863603852818414

Computation Completed

*** tstop() called on node37.bme.utexas.edu at Fri Feb  5 05:00:33 2021
Module time:
	user time   =     393.88 seconds =       6.56 minutes
	system time =      96.08 seconds =       1.60 minutes
	total time  =        121 seconds =       2.02 minutes
Total time:
	user time   =     393.88 seconds =       6.56 minutes
	system time =      96.08 seconds =       1.60 minutes
	total time  =        121 seconds =       2.02 minutes
   => Loading Basis Set <=

    Name: (AUG-CC-PVTZ AUX)
    Role: RIFIT
    Keyword: DF_BASIS_MP2
    atoms 1-2   entry N          line   206 file /home/xy3866/psi4conda/share/psi4/basis/aug-cc-pvtz-ri.gbs 
    atoms 3-11  entry C          line   148 file /home/xy3866/psi4conda/share/psi4/basis/aug-cc-pvtz-ri.gbs 
    atoms 12-19 entry H          line    30 file /home/xy3866/psi4conda/share/psi4/basis/aug-cc-pvtz-ri.gbs 


*** tstart() called on node37.bme.utexas.edu
*** at Fri Feb  5 05:00:33 2021


  //>>>>>>>>>>>>>>>>>>>>>>>>>>>>>>>>>>>//
  //               DFMP2               //
  //<<<<<<<<<<<<<<<<<<<<<<<<<<<<<<<<<<<//

	 --------------------------------------------------------
	                          DF-MP2                         
	      2nd-Order Density-Fitted Moller-Plesset Theory     
	              RMP2 Wavefunction,   8 Threads             
	                                                         
	        Rob Parrish, Justin Turney, Andy Simmonett,      
	           Ed Hohenstein, and C. David Sherrill          
	 --------------------------------------------------------

   => Auxiliary Basis Set <=

  Basis Set: (AUG-CC-PVTZ AUX)
    Blend: AUG-CC-PVTZ-RI
    Number of shells: 420
    Number of basis function: 1534
    Number of Cartesian functions: 1936
    Spherical Harmonics?: true
    Max angular momentum: 4

	 --------------------------------------------------------
	                 NBF =   690, NAUX =  1534
	 --------------------------------------------------------
	   CLASS    FOCC     OCC    AOCC    AVIR     VIR    FVIR
	   PAIRS       0      38      38     652     652       0
	 --------------------------------------------------------

  DFHelper Memory: AOs need 5.125 GiB; user supplied 22.352 GiB. Using in-core AOs.


         ------------------------------------------------------------
                                     CPHF                           
                                  Rob Parrish                       
         ------------------------------------------------------------

  ==> Geometry <==

    Molecular point group: c1
    Full point group: C1

    Geometry (in Angstrom), charge = 0, multiplicity = 1:

       Center              X                  Y                   Z               Mass       
    ------------   -----------------  -----------------  -----------------  -----------------
         N            0.996260880472     0.046660067538     0.006304392705    14.003074004430
         N            1.691000780472    -1.064200232462    -0.420773007295    14.003074004430
         C           -0.422032119528     0.029723067538    -0.002602607295    12.000000000000
         C           -1.128050119528     1.210059067538    -0.248556607295    12.000000000000
         C           -1.088582119528    -1.173178932462     0.244305392705    12.000000000000
         C            1.815651880472     1.064222067538     0.412655392705    12.000000000000
         C           -2.522905119528     1.185365067538    -0.224921607295    12.000000000000
         C           -2.482473119528    -1.185905932462     0.242500392705    12.000000000000
         C            3.112109880472     0.611701067538     0.243312392705    12.000000000000
         C           -3.203223119528    -0.009364932462     0.019513392705    12.000000000000
         C            2.976107880472    -0.691791932462    -0.263356607295    12.000000000000
         H           -0.594536119528     2.126806067538    -0.484644607295     1.007825032230
         H           -0.508267119528    -2.072799932462     0.421616392705     1.007825032230
         H            1.416913880472     1.984733067538     0.814888392705     1.007825032230
         H           -3.077354119528     2.100614067538    -0.416557607295     1.007825032230
         H           -3.007837119528    -2.118888932462     0.430631392705     1.007825032230
         H            4.022265880472     1.148794067538     0.470775392705     1.007825032230
         H           -4.289956119528    -0.025377932462     0.027622392705     1.007825032230
         H            3.747528880472    -1.398788932462    -0.540356607295     1.007825032230

  Nuclear repulsion =  545.731246635310640
  Reference energy  = -454.486360385281898

  ==> Basis Set <==

  Basis Set: AUG-CC-PVTZ
    Blend: AUG-CC-PVTZ
    Number of shells: 226
    Number of basis function: 690
    Number of Cartesian functions: 805
    Spherical Harmonics?: true
    Max angular momentum: 3

  ==> CGRSolver (by Rob Parrish) <==

   Number of roots    =         1
   Preconditioning    =    JACOBI
   Convergence cutoff =     1E-06
   Maximum iterations =       100

  ==> CPHFRHamiltonian (by Rob Parrish) <== 

  ==> MemDFJK: Density-Fitted J/K Matrices <==

    J tasked:                   Yes
    K tasked:                   Yes
    wK tasked:                   No
    OpenMP threads:               8
    Memory [MiB]:             22888
    Algorithm:                 Disk
    Schwarz Cutoff:           1E-12
    Mask sparsity (%):       7.0788
    Fitting Condition:        1E-10

   => Auxiliary Basis Set <=

  Basis Set: (AUG-CC-PVTZ AUX)
    Blend: AUG-CC-PVTZ-JKFIT
    Number of shells: 442
    Number of basis function: 1512
    Number of Cartesian functions: 1881
    Spherical Harmonics?: true
    Max angular momentum: 4

  ==> CPHF Iterations <==

  => Iterations <=

             Iter  Converged  Remaining    Residual
  CGR           1          0          1   9.047E-02
  CGR           2          0          1   3.883E-02
  CGR           3          0          1   2.301E-02
  CGR           4          0          1   8.024E-03
  CGR           5          0          1   2.494E-03
  CGR           6          0          1   1.333E-03
  CGR           7          0          1   6.117E-04
  CGR           8          0          1   2.485E-04
  CGR           9          0          1   1.025E-04
  CGR          10          0          1   2.830E-05
  CGR          11          0          1   1.117E-05
  CGR          12          0          1   4.227E-06
  CGR          13          0          1   1.758E-06
  CGR          14          1          0   7.078E-07

    CGRSolver converged.

	-----------------------------------------------------------
	 ==================> DF-MP2 Energies <==================== 
	-----------------------------------------------------------
	 Reference Energy          =    -454.4863603852818983 [Eh]
	 Singles Energy            =      -0.0000000000000000 [Eh]
	 Same-Spin Energy          =      -0.5097136520987848 [Eh]
	 Opposite-Spin Energy      =      -1.5485996228070120 [Eh]
	 Correlation Energy        =      -2.0583132749057969 [Eh]
	 Total Energy              =    -456.5446736601876978 [Eh]
	-----------------------------------------------------------
	 ================> DF-SCS-MP2 Energies <================== 
	-----------------------------------------------------------
	 SCS Same-Spin Scale       =       0.3333333333333333 [-]
	 SCS Opposite-Spin Scale   =       1.2000000000000000 [-]
	 SCS Same-Spin Energy      =      -0.1699045506995949 [Eh]
	 SCS Opposite-Spin Energy  =      -1.8583195473684144 [Eh]
	 SCS Correlation Energy    =      -2.0282240980680095 [Eh]
	 SCS Total Energy          =    -456.5145844833498927 [Eh]
	-----------------------------------------------------------



Properties will be evaluated at  -0.000000,  -0.000000,   0.000000 [a0]

Properties computed using the MP2 density matrix

  Nuclear Dipole Moment: [e a0]
     X:    -2.1558      Y:     1.6389      Z:     0.6799

  Electronic Dipole Moment: [e a0]
     X:     1.8219      Y:    -0.9841      Z:    -0.3849

  Dipole Moment: [e a0]
     X:    -0.3339      Y:     0.6548      Z:     0.2950     Total:     0.7920

  Dipole Moment: [D]
     X:    -0.8487      Y:     1.6643      Z:     0.7498     Total:     2.0131


*** tstop() called on node37.bme.utexas.edu at Fri Feb  5 05:05:17 2021
Module time:
	user time   =    1297.25 seconds =      21.62 minutes
	system time =     256.50 seconds =       4.28 minutes
	total time  =        284 seconds =       4.73 minutes
Total time:
	user time   =    1691.31 seconds =      28.19 minutes
	system time =     352.58 seconds =       5.88 minutes
	total time  =        405 seconds =       6.75 minutes

    Psi4 stopped on: Friday, 05 February 2021 05:05AM
    Psi4 wall time for execution: 0:06:45.62

*** Psi4 exiting successfully. Buy a developer a beer!
