
    -----------------------------------------------------------------------
          Psi4: An Open-Source Ab Initio Electronic Structure Package
                               Psi4 1.4a3.dev225 

                         Git: Rev {master} 7105e37 


    D. G. A. Smith, L. A. Burns, A. C. Simmonett, R. M. Parrish,
    M. C. Schieber, R. Galvelis, P. Kraus, H. Kruse, R. Di Remigio,
    A. Alenaizan, A. M. James, S. Lehtola, J. P. Misiewicz, M. Scheurer,
    R. A. Shaw, J. B. Schriber, Y. Xie, Z. L. Glick, D. A. Sirianni,
    J. S. O'Brien, J. M. Waldrop, A. Kumar, E. G. Hohenstein,
    B. P. Pritchard, B. R. Brooks, H. F. Schaefer III, A. Yu. Sokolov,
    K. Patkowski, A. E. DePrince III, U. Bozkaya, R. A. King,
    F. A. Evangelista, J. M. Turney, T. D. Crawford, C. D. Sherrill,
    J. Chem. Phys. 152(18) 184108 (2020). https://doi.org/10.1063/5.0006002

                            Additional Code Authors
    E. T. Seidl, C. L. Janssen, E. F. Valeev, M. L. Leininger,
    J. F. Gonthier, R. M. Richard, H. R. McAlexander, M. Saitow, X. Wang,
    P. Verma, and M. H. Lechner

             Previous Authors, Complete List of Code Contributors,
                       and Citations for Specific Modules
    https://github.com/psi4/psi4/blob/master/codemeta.json
    https://github.com/psi4/psi4/graphs/contributors
    http://psicode.org/psi4manual/master/introduction.html#citing-psifour

    -----------------------------------------------------------------------


    Psi4 started on: Saturday, 20 March 2021 12:43PM

    Process ID: 134816
    Host:       c446-022.stampede2.tacc.utexas.edu
    PSIDATADIR: /home1/07844/xy3866/miniconda3/envs/p4env/share/psi4
    Memory:     500.0 MiB
    Threads:    32
    
  ==> Input File <==

--------------------------------------------------------------------------
#psi4
#
memory 32 gb

molecule  {
0 1
  N        1.0119030     0.0333230     0.0008060
  N        1.6997840    -1.0566340    -0.4179730
  C       -0.4063900     0.0163860    -0.0081010
  C       -1.1124080     1.1967220    -0.2540550
  C       -1.0729400    -1.1865160     0.2388070
  C        1.8312940     1.0508850     0.4071570
  C       -2.5072630     1.1720280    -0.2304200
  C       -2.4668310    -1.1992430     0.2370020
  C        3.1277520     0.5983640     0.2378140
  C       -3.1875810    -0.0227020     0.0140150
  C        2.9438002    -0.7181747    -0.2743893
  H       -0.5788940     2.1134690    -0.4901430
  H       -0.4926250    -2.0861370     0.4161180
  H        1.4325560     1.9713960     0.8093900
  H       -3.0617120     2.0872770    -0.4220560
  H       -2.9921950    -2.1322260     0.4251330
  H        4.0379080     1.1354570     0.4652770
  H       -4.2743140    -0.0387150     0.0221240
  H        3.7631710    -1.4121260    -0.5458550
units angstrom
no_reorient  #important for SAPT in psi4, default
symmetry c1  #important for SAPT in psi4, default
}

set PROPERTIES_ORIGIN ["COM"]
properties('MP2/aug-cc-pvtz', properties = ['dipole'])
--------------------------------------------------------------------------

  Memory set to  29.802 GiB by Python driver.
    SCF Algorithm Type (re)set to DF.

*** tstart() called on c446-022.stampede2.tacc.utexas.edu
*** at Sat Mar 20 12:43:39 2021

   => Loading Basis Set <=

    Name: AUG-CC-PVTZ
    Role: ORBITAL
    Keyword: BASIS
    atoms 1-2   entry N          line   285 file /home1/07844/xy3866/miniconda3/envs/p4env/share/psi4/basis/aug-cc-pvtz.gbs 
    atoms 3-11  entry C          line   239 file /home1/07844/xy3866/miniconda3/envs/p4env/share/psi4/basis/aug-cc-pvtz.gbs 
    atoms 12-19 entry H          line    40 file /home1/07844/xy3866/miniconda3/envs/p4env/share/psi4/basis/aug-cc-pvtz.gbs 


         ---------------------------------------------------------
                                   SCF
               by Justin Turney, Rob Parrish, Andy Simmonett
                          and Daniel G. A. Smith
                              RHF Reference
                       32 Threads,  30517 MiB Core
         ---------------------------------------------------------

  ==> Geometry <==

    Molecular point group: c1
    Full point group: C1

    Geometry (in Angstrom), charge = 0, multiplicity = 1:

       Center              X                  Y                   Z               Mass       
    ------------   -----------------  -----------------  -----------------  -----------------
         N            1.000921456012     0.045714948916     0.005958783335    14.003074004430
         N            1.688802456012    -1.044242051084    -0.412820216665    14.003074004430
         C           -0.417371543988     0.028777948916    -0.002948216665    12.000000000000
         C           -1.123389543988     1.209113948916    -0.248902216665    12.000000000000
         C           -1.083921543988    -1.174124051084     0.243959783335    12.000000000000
         C            1.820312456012     1.063276948916     0.412309783335    12.000000000000
         C           -2.518244543988     1.184419948916    -0.225267216665    12.000000000000
         C           -2.477812543988    -1.186851051084     0.242154783335    12.000000000000
         C            3.116770456012     0.610755948916     0.242966783335    12.000000000000
         C           -3.198562543988    -0.010310051084     0.019167783335    12.000000000000
         C            2.932818656012    -0.705782751084    -0.269236516665    12.000000000000
         H           -0.589875543988     2.125860948916    -0.484990216665     1.007825032230
         H           -0.503606543988    -2.073745051084     0.421270783335     1.007825032230
         H            1.421574456012     1.983787948916     0.814542783335     1.007825032230
         H           -3.072693543988     2.099668948916    -0.416903216665     1.007825032230
         H           -3.003176543988    -2.119834051084     0.430285783335     1.007825032230
         H            4.026926456012     1.147848948916     0.470429783335     1.007825032230
         H           -4.285295543988    -0.026323051084     0.027276783335     1.007825032230
         H            3.752189456012    -1.399734051084    -0.540702216665     1.007825032230

  Running in c1 symmetry.

  Rotational constants: A =      0.11787  B =      0.02414  C =      0.02056 [cm^-1]
  Rotational constants: A =   3533.62907  B =    723.59620  C =    616.33630 [MHz]
  Nuclear repulsion =  547.234202816339575

  Charge       = 0
  Multiplicity = 1
  Electrons    = 76
  Nalpha       = 38
  Nbeta        = 38

  ==> Algorithm <==

  SCF Algorithm Type is DF.
  DIIS enabled.
  MOM disabled.
  Fractional occupation disabled.
  Guess Type is SAD.
  Energy threshold   = 1.00e-10
  Density threshold  = 1.00e-10
  Integral threshold = 1.00e-12

  ==> Primary Basis <==

  Basis Set: AUG-CC-PVTZ
    Blend: AUG-CC-PVTZ
    Number of shells: 226
    Number of basis functions: 690
    Number of Cartesian functions: 805
    Spherical Harmonics?: true
    Max angular momentum: 3

   => Loading Basis Set <=

    Name: (AUG-CC-PVTZ AUX)
    Role: JKFIT
    Keyword: DF_BASIS_SCF
    atoms 1-2   entry N          line   224 file /home1/07844/xy3866/miniconda3/envs/p4env/share/psi4/basis/aug-cc-pvtz-jkfit.gbs 
    atoms 3-11  entry C          line   162 file /home1/07844/xy3866/miniconda3/envs/p4env/share/psi4/basis/aug-cc-pvtz-jkfit.gbs 
    atoms 12-19 entry H          line    70 file /home1/07844/xy3866/miniconda3/envs/p4env/share/psi4/basis/aug-cc-pvtz-jkfit.gbs 

  ==> Integral Setup <==

  DFHelper Memory: AOs need 4.971 GiB; user supplied 22.352 GiB. Using in-core AOs.

  ==> MemDFJK: Density-Fitted J/K Matrices <==

    J tasked:                   Yes
    K tasked:                   Yes
    wK tasked:                   No
    OpenMP threads:              32
    Memory [MiB]:             22888
    Algorithm:                 Core
    Schwarz Cutoff:           1E-12
    Mask sparsity (%):      11.5295
    Fitting Condition:        1E-10

   => Auxiliary Basis Set <=

  Basis Set: (AUG-CC-PVTZ AUX)
    Blend: AUG-CC-PVTZ-JKFIT
    Number of shells: 442
    Number of basis functions: 1512
    Number of Cartesian functions: 1881
    Spherical Harmonics?: true
    Max angular momentum: 4

  Minimum eigenvalue in the overlap matrix is 5.6954710093E-07.
  Reciprocal condition number of the overlap matrix is 3.0268571752E-08.
    Using symmetric orthogonalization.

  ==> Pre-Iterations <==

  SCF Guess: Superposition of Atomic Densities via on-the-fly atomic UHF (no occupation information).

   -------------------------
    Irrep   Nso     Nmo    
   -------------------------
     A        690     690 
   -------------------------
    Total     690     690
   -------------------------

  ==> Iterations <==

                           Total Energy        Delta E     RMS |[F,P]|

   @DF-RHF iter SAD:  -454.18065473845058   -4.54181e+02   0.00000e+00 
   @DF-RHF iter   1:  -454.22411212537071   -4.34574e-02   9.60680e-04 DIIS
   @DF-RHF iter   2:  -454.43881958278581   -2.14707e-01   4.58628e-04 DIIS
   @DF-RHF iter   3:  -454.48490583230995   -4.60862e-02   1.09598e-04 DIIS
   @DF-RHF iter   4:  -454.48815749263719   -3.25166e-03   5.68317e-05 DIIS
   @DF-RHF iter   5:  -454.48893095623669   -7.73464e-04   7.59235e-06 DIIS
   @DF-RHF iter   6:  -454.48896365023739   -3.26940e-05   3.65303e-06 DIIS
   @DF-RHF iter   7:  -454.48897114632246   -7.49609e-06   1.86228e-06 DIIS
   @DF-RHF iter   8:  -454.48897363530170   -2.48898e-06   7.38777e-07 DIIS
   @DF-RHF iter   9:  -454.48897423638749   -6.01086e-07   2.68394e-07 DIIS
   @DF-RHF iter  10:  -454.48897428985867   -5.34712e-08   7.60128e-08 DIIS
   @DF-RHF iter  11:  -454.48897429463625   -4.77758e-09   2.63849e-08 DIIS
   @DF-RHF iter  12:  -454.48897429526323   -6.26983e-10   1.48956e-08 DIIS
   @DF-RHF iter  13:  -454.48897429546008   -1.96849e-10   6.37761e-09 DIIS
   @DF-RHF iter  14:  -454.48897429551465   -5.45697e-11   2.43244e-09 DIIS
   @DF-RHF iter  15:  -454.48897429552011   -5.45697e-12   1.01153e-09 DIIS
   @DF-RHF iter  16:  -454.48897429552210   -1.98952e-12   3.25743e-10 DIIS
   @DF-RHF iter  17:  -454.48897429552295   -8.52651e-13   1.04660e-10 DIIS
   @DF-RHF iter  18:  -454.48897429552369   -7.38964e-13   5.44648e-11 DIIS
  Energy and wave function converged.


  ==> Post-Iterations <==

    Orbital Energies [Eh]
    ---------------------

    Doubly Occupied:                                                      

       1A    -15.647597     2A    -15.588558     3A    -11.291109  
       4A    -11.283701     5A    -11.259332     6A    -11.247619  
       7A    -11.245783     8A    -11.245505     9A    -11.240104  
      10A    -11.239925    11A    -11.228028    12A     -1.389073  
      13A     -1.178334    14A     -1.116726    15A     -1.064658  
      16A     -1.024094    17A     -0.996209    18A     -0.857901  
      19A     -0.847907    20A     -0.799291    21A     -0.775286  
      22A     -0.743727    23A     -0.685907    24A     -0.649773  
      25A     -0.639768    26A     -0.618137    27A     -0.597229  
      28A     -0.594083    29A     -0.590931    30A     -0.557593  
      31A     -0.519559    32A     -0.510983    33A     -0.506717  
      34A     -0.463206    35A     -0.397213    36A     -0.355303  
      37A     -0.346308    38A     -0.311170  

    Virtual:                                                              

      39A      0.026156    40A      0.031051    41A      0.033859  
      42A      0.041197    43A      0.043479    44A      0.049819  
      45A      0.055556    46A      0.063621    47A      0.083116  
      48A      0.085845    49A      0.092062    50A      0.094899  
      51A      0.097551    52A      0.102318    53A      0.109284  
      54A      0.110078    55A      0.112479    56A      0.115798  
      57A      0.119762    58A      0.122183    59A      0.124524  
      60A      0.125616    61A      0.129537    62A      0.132066  
      63A      0.137643    64A      0.139086    65A      0.145168  
      66A      0.146647    67A      0.151294    68A      0.155830  
      69A      0.160983    70A      0.163514    71A      0.169758  
      72A      0.173044    73A      0.185527    74A      0.186414  
      75A      0.193347    76A      0.203279    77A      0.211252  
      78A      0.219991    79A      0.221938    80A      0.227825  
      81A      0.233090    82A      0.238643    83A      0.242643  
      84A      0.252477    85A      0.256106    86A      0.258152  
      87A      0.260331    88A      0.269433    89A      0.271663  
      90A      0.275381    91A      0.286461    92A      0.289491  
      93A      0.294002    94A      0.298040    95A      0.304125  
      96A      0.307312    97A      0.312338    98A      0.314934  
      99A      0.316390   100A      0.320631   101A      0.324924  
     102A      0.326075   103A      0.332329   104A      0.334053  
     105A      0.336369   106A      0.339780   107A      0.346693  
     108A      0.352753   109A      0.359393   110A      0.364930  
     111A      0.367526   112A      0.374889   113A      0.387188  
     114A      0.391871   115A      0.394729   116A      0.406552  
     117A      0.412355   118A      0.416182   119A      0.420679  
     120A      0.429408   121A      0.434326   122A      0.438197  
     123A      0.443665   124A      0.449654   125A      0.451687  
     126A      0.452365   127A      0.460199   128A      0.465441  
     129A      0.470373   130A      0.474137   131A      0.475298  
     132A      0.479436   133A      0.484781   134A      0.487227  
     135A      0.488903   136A      0.491057   137A      0.498065  
     138A      0.499500   139A      0.506514   140A      0.509772  
     141A      0.515635   142A      0.519125   143A      0.522977  
     144A      0.528185   145A      0.529616   146A      0.531641  
     147A      0.536631   148A      0.540961   149A      0.543521  
     150A      0.545940   151A      0.554255   152A      0.556113  
     153A      0.558969   154A      0.572529   155A      0.579416  
     156A      0.585256   157A      0.601014   158A      0.607335  
     159A      0.608575   160A      0.618675   161A      0.620827  
     162A      0.627542   163A      0.638204   164A      0.640558  
     165A      0.647209   166A      0.654757   167A      0.659218  
     168A      0.663264   169A      0.668321   170A      0.670058  
     171A      0.673158   172A      0.687681   173A      0.690934  
     174A      0.702256   175A      0.705852   176A      0.712390  
     177A      0.719330   178A      0.721340   179A      0.729502  
     180A      0.735078   181A      0.736812   182A      0.749421  
     183A      0.762874   184A      0.768840   185A      0.770966  
     186A      0.779829   187A      0.784200   188A      0.797344  
     189A      0.802174   190A      0.805890   191A      0.814002  
     192A      0.816402   193A      0.828394   194A      0.831650  
     195A      0.840412   196A      0.845013   197A      0.847296  
     198A      0.854365   199A      0.862622   200A      0.868019  
     201A      0.873993   202A      0.879974   203A      0.887950  
     204A      0.891288   205A      0.891680   206A      0.893737  
     207A      0.902861   208A      0.908198   209A      0.913223  
     210A      0.922430   211A      0.924547   212A      0.927088  
     213A      0.934515   214A      0.940909   215A      0.948504  
     216A      0.954035   217A      0.964497   218A      0.968433  
     219A      0.978345   220A      0.986965   221A      0.989533  
     222A      1.000798   223A      1.003121   224A      1.009296  
     225A      1.013137   226A      1.017713   227A      1.022473  
     228A      1.028752   229A      1.039094   230A      1.043294  
     231A      1.050067   232A      1.055157   233A      1.058716  
     234A      1.064565   235A      1.067894   236A      1.073999  
     237A      1.076977   238A      1.080073   239A      1.081435  
     240A      1.089244   241A      1.095287   242A      1.096890  
     243A      1.106813   244A      1.112474   245A      1.118689  
     246A      1.119799   247A      1.129767   248A      1.134168  
     249A      1.136346   250A      1.137413   251A      1.149248  
     252A      1.155043   253A      1.161298   254A      1.172650  
     255A      1.177098   256A      1.180633   257A      1.187811  
     258A      1.195319   259A      1.200982   260A      1.203717  
     261A      1.209756   262A      1.214335   263A      1.217309  
     264A      1.219779   265A      1.232963   266A      1.240022  
     267A      1.241941   268A      1.245083   269A      1.258256  
     270A      1.261351   271A      1.265513   272A      1.280170  
     273A      1.286277   274A      1.288336   275A      1.298286  
     276A      1.299815   277A      1.306540   278A      1.320121  
     279A      1.327585   280A      1.342557   281A      1.346540  
     282A      1.360976   283A      1.371412   284A      1.379065  
     285A      1.384975   286A      1.393880   287A      1.401135  
     288A      1.404881   289A      1.411206   290A      1.427868  
     291A      1.430035   292A      1.441267   293A      1.449707  
     294A      1.454824   295A      1.463012   296A      1.471264  
     297A      1.478403   298A      1.487690   299A      1.492506  
     300A      1.505241   301A      1.510320   302A      1.513398  
     303A      1.522154   304A      1.533796   305A      1.540711  
     306A      1.546758   307A      1.553538   308A      1.559130  
     309A      1.567573   310A      1.578231   311A      1.582659  
     312A      1.606135   313A      1.613754   314A      1.626811  
     315A      1.635825   316A      1.644377   317A      1.659579  
     318A      1.667073   319A      1.674077   320A      1.686869  
     321A      1.699095   322A      1.710370   323A      1.711394  
     324A      1.723002   325A      1.729637   326A      1.737978  
     327A      1.756570   328A      1.761809   329A      1.767406  
     330A      1.771833   331A      1.782338   332A      1.794064  
     333A      1.799090   334A      1.811876   335A      1.821451  
     336A      1.831661   337A      1.836386   338A      1.838895  
     339A      1.844357   340A      1.864408   341A      1.868273  
     342A      1.880389   343A      1.883458   344A      1.896508  
     345A      1.908348   346A      1.918859   347A      1.935698  
     348A      1.939379   349A      1.940834   350A      1.950015  
     351A      1.962783   352A      1.974781   353A      1.982141  
     354A      1.986136   355A      1.999108   356A      2.003658  
     357A      2.010488   358A      2.020417   359A      2.028061  
     360A      2.033424   361A      2.039751   362A      2.041868  
     363A      2.043102   364A      2.050592   365A      2.054098  
     366A      2.064874   367A      2.074712   368A      2.083406  
     369A      2.091403   370A      2.094993   371A      2.102286  
     372A      2.117656   373A      2.126650   374A      2.132153  
     375A      2.143745   376A      2.162090   377A      2.176180  
     378A      2.188254   379A      2.203678   380A      2.219998  
     381A      2.227573   382A      2.236612   383A      2.253221  
     384A      2.257885   385A      2.263410   386A      2.266313  
     387A      2.296558   388A      2.316519   389A      2.333377  
     390A      2.340861   391A      2.349535   392A      2.352864  
     393A      2.362869   394A      2.370105   395A      2.383920  
     396A      2.394255   397A      2.399955   398A      2.421035  
     399A      2.425509   400A      2.437477   401A      2.451733  
     402A      2.458658   403A      2.470956   404A      2.478078  
     405A      2.503584   406A      2.512281   407A      2.522332  
     408A      2.535571   409A      2.552129   410A      2.560848  
     411A      2.579312   412A      2.594318   413A      2.607237  
     414A      2.621077   415A      2.627337   416A      2.668609  
     417A      2.680884   418A      2.688589   419A      2.709531  
     420A      2.742639   421A      2.753657   422A      2.775597  
     423A      2.795196   424A      2.806550   425A      2.819325  
     426A      2.829899   427A      2.861899   428A      2.867325  
     429A      2.892107   430A      2.912115   431A      2.959732  
     432A      2.980549   433A      3.007062   434A      3.040851  
     435A      3.052309   436A      3.070823   437A      3.111499  
     438A      3.150078   439A      3.173408   440A      3.184817  
     441A      3.196129   442A      3.203345   443A      3.216964  
     444A      3.234547   445A      3.245973   446A      3.251151  
     447A      3.283542   448A      3.308985   449A      3.320242  
     450A      3.324936   451A      3.352913   452A      3.360942  
     453A      3.372958   454A      3.379933   455A      3.381963  
     456A      3.395717   457A      3.405297   458A      3.418707  
     459A      3.424938   460A      3.445149   461A      3.457295  
     462A      3.465888   463A      3.475400   464A      3.491649  
     465A      3.501754   466A      3.519377   467A      3.526456  
     468A      3.532121   469A      3.546352   470A      3.551911  
     471A      3.558397   472A      3.563489   473A      3.569280  
     474A      3.581823   475A      3.586684   476A      3.599932  
     477A      3.616640   478A      3.621974   479A      3.637281  
     480A      3.651520   481A      3.657944   482A      3.667386  
     483A      3.670943   484A      3.688912   485A      3.711633  
     486A      3.717138   487A      3.721581   488A      3.745117  
     489A      3.751612   490A      3.770280   491A      3.783114  
     492A      3.796809   493A      3.798086   494A      3.806308  
     495A      3.832579   496A      3.843131   497A      3.847479  
     498A      3.850087   499A      3.858896   500A      3.873366  
     501A      3.879224   502A      3.888331   503A      3.902110  
     504A      3.916414   505A      3.924448   506A      3.929515  
     507A      3.941569   508A      3.946339   509A      3.951008  
     510A      3.968367   511A      3.974938   512A      3.980297  
     513A      3.987193   514A      3.996354   515A      4.003719  
     516A      4.033941   517A      4.037380   518A      4.048930  
     519A      4.067802   520A      4.083541   521A      4.089148  
     522A      4.103412   523A      4.120265   524A      4.137719  
     525A      4.139143   526A      4.147322   527A      4.161525  
     528A      4.177071   529A      4.187804   530A      4.198528  
     531A      4.205902   532A      4.211248   533A      4.224725  
     534A      4.232949   535A      4.237073   536A      4.246909  
     537A      4.266559   538A      4.277508   539A      4.285833  
     540A      4.302068   541A      4.317732   542A      4.331745  
     543A      4.332270   544A      4.342884   545A      4.354625  
     546A      4.359535   547A      4.381459   548A      4.385892  
     549A      4.397798   550A      4.410029   551A      4.414948  
     552A      4.427425   553A      4.437388   554A      4.439422  
     555A      4.452138   556A      4.464814   557A      4.472919  
     558A      4.499288   559A      4.501918   560A      4.524143  
     561A      4.527352   562A      4.556549   563A      4.565928  
     564A      4.586579   565A      4.593071   566A      4.627994  
     567A      4.638305   568A      4.651598   569A      4.669908  
     570A      4.690494   571A      4.707460   572A      4.712464  
     573A      4.727835   574A      4.735058   575A      4.760182  
     576A      4.783837   577A      4.787163   578A      4.810319  
     579A      4.821699   580A      4.856352   581A      4.862524  
     582A      4.885366   583A      4.902197   584A      4.915297  
     585A      4.921292   586A      4.945279   587A      4.958315  
     588A      4.960912   589A      4.971511   590A      4.994104  
     591A      5.005994   592A      5.011588   593A      5.040074  
     594A      5.055344   595A      5.062399   596A      5.077000  
     597A      5.084146   598A      5.096093   599A      5.112119  
     600A      5.119524   601A      5.127108   602A      5.144617  
     603A      5.151261   604A      5.163322   605A      5.169822  
     606A      5.171653   607A      5.199752   608A      5.210164  
     609A      5.221594   610A      5.236241   611A      5.263103  
     612A      5.272960   613A      5.287349   614A      5.307604  
     615A      5.316517   616A      5.330929   617A      5.334200  
     618A      5.365974   619A      5.401439   620A      5.417250  
     621A      5.425978   622A      5.432235   623A      5.453775  
     624A      5.480694   625A      5.491527   626A      5.527679  
     627A      5.549066   628A      5.591135   629A      5.623224  
     630A      5.640317   631A      5.709694   632A      5.732476  
     633A      5.739854   634A      5.748367   635A      5.771338  
     636A      5.794436   637A      5.809840   638A      5.836846  
     639A      5.857304   640A      5.868423   641A      5.890915  
     642A      5.911450   643A      5.941783   644A      5.953655  
     645A      5.998460   646A      6.019103   647A      6.068575  
     648A      6.087470   649A      6.118389   650A      6.145950  
     651A      6.168137   652A      6.189837   653A      6.214482  
     654A      6.235307   655A      6.261857   656A      6.308490  
     657A      6.336109   658A      6.361211   659A      6.391896  
     660A      6.430271   661A      6.491877   662A      6.531722  
     663A      6.557294   664A      6.640106   665A      6.704803  
     666A      6.722318   667A      6.764120   668A      6.796385  
     669A      6.890518   670A      6.900989   671A      7.010203  
     672A      7.025783   673A      7.055441   674A      7.090510  
     675A      7.223981   676A      7.229998   677A      7.319354  
     678A      7.449610   679A      7.836790   680A     16.061624  
     681A     16.129490   682A     16.468684   683A     16.862291  
     684A     17.741077   685A     18.358522   686A     18.586379  
     687A     19.206956   688A     19.738992   689A     19.860202  
     690A     21.332394  

    Final Occupation by Irrep:
              A 
    DOCC [    38 ]

  @DF-RHF Final Energy:  -454.48897429552369

   => Energetics <=

    Nuclear Repulsion Energy =            547.2342028163395753
    One-Electron Energy =               -1700.1376613070237909
    Two-Electron Energy =                 698.4144841951605258
    Total Energy =                       -454.4889742955236898

Computation Completed

*** tstop() called on c446-022.stampede2.tacc.utexas.edu at Sat Mar 20 12:44:19 2021
Module time:
	user time   =     736.45 seconds =      12.27 minutes
	system time =      50.49 seconds =       0.84 minutes
	total time  =         40 seconds =       0.67 minutes
Total time:
	user time   =     736.45 seconds =      12.27 minutes
	system time =      50.49 seconds =       0.84 minutes
	total time  =         40 seconds =       0.67 minutes
   => Loading Basis Set <=

    Name: (AUG-CC-PVTZ AUX)
    Role: RIFIT
    Keyword: DF_BASIS_MP2
    atoms 1-2   entry N          line   206 file /home1/07844/xy3866/miniconda3/envs/p4env/share/psi4/basis/aug-cc-pvtz-ri.gbs 
    atoms 3-11  entry C          line   148 file /home1/07844/xy3866/miniconda3/envs/p4env/share/psi4/basis/aug-cc-pvtz-ri.gbs 
    atoms 12-19 entry H          line    30 file /home1/07844/xy3866/miniconda3/envs/p4env/share/psi4/basis/aug-cc-pvtz-ri.gbs 


*** tstart() called on c446-022.stampede2.tacc.utexas.edu
*** at Sat Mar 20 12:44:20 2021


  //>>>>>>>>>>>>>>>>>>>>>>>>>>>>>>>>>>>//
  //               DFMP2               //
  //<<<<<<<<<<<<<<<<<<<<<<<<<<<<<<<<<<<//

	 --------------------------------------------------------
	                          DF-MP2                         
	      2nd-Order Density-Fitted Moller-Plesset Theory     
	              RMP2 Wavefunction,  32 Threads             
	                                                         
	        Rob Parrish, Justin Turney, Andy Simmonett,      
	           Ed Hohenstein, and C. David Sherrill          
	 --------------------------------------------------------

   => Auxiliary Basis Set <=

  Basis Set: (AUG-CC-PVTZ AUX)
    Blend: AUG-CC-PVTZ-RI
    Number of shells: 420
    Number of basis functions: 1534
    Number of Cartesian functions: 1936
    Spherical Harmonics?: true
    Max angular momentum: 4

	 --------------------------------------------------------
	                 NBF =   690, NAUX =  1534
	 --------------------------------------------------------
	   CLASS    FOCC     OCC    AOCC    AVIR     VIR    FVIR
	   PAIRS       0      38      38     652     652       0
	 --------------------------------------------------------

  DFHelper Memory: AOs need 5.212 GiB; user supplied 22.352 GiB. Using in-core AOs.


         ------------------------------------------------------------
                                     CPHF                           
                                  Rob Parrish                       
         ------------------------------------------------------------

  ==> Geometry <==

    Molecular point group: c1
    Full point group: C1

    Geometry (in Angstrom), charge = 0, multiplicity = 1:

       Center              X                  Y                   Z               Mass       
    ------------   -----------------  -----------------  -----------------  -----------------
         N            1.000921456012     0.045714948916     0.005958783335    14.003074004430
         N            1.688802456012    -1.044242051084    -0.412820216665    14.003074004430
         C           -0.417371543988     0.028777948916    -0.002948216665    12.000000000000
         C           -1.123389543988     1.209113948916    -0.248902216665    12.000000000000
         C           -1.083921543988    -1.174124051084     0.243959783335    12.000000000000
         C            1.820312456012     1.063276948916     0.412309783335    12.000000000000
         C           -2.518244543988     1.184419948916    -0.225267216665    12.000000000000
         C           -2.477812543988    -1.186851051084     0.242154783335    12.000000000000
         C            3.116770456012     0.610755948916     0.242966783335    12.000000000000
         C           -3.198562543988    -0.010310051084     0.019167783335    12.000000000000
         C            2.932818656012    -0.705782751084    -0.269236516665    12.000000000000
         H           -0.589875543988     2.125860948916    -0.484990216665     1.007825032230
         H           -0.503606543988    -2.073745051084     0.421270783335     1.007825032230
         H            1.421574456012     1.983787948916     0.814542783335     1.007825032230
         H           -3.072693543988     2.099668948916    -0.416903216665     1.007825032230
         H           -3.003176543988    -2.119834051084     0.430285783335     1.007825032230
         H            4.026926456012     1.147848948916     0.470429783335     1.007825032230
         H           -4.285295543988    -0.026323051084     0.027276783335     1.007825032230
         H            3.752189456012    -1.399734051084    -0.540702216665     1.007825032230

  Nuclear repulsion =  547.234202816339575
  Reference energy  = -454.488974295523690

  ==> Basis Set <==

  Basis Set: AUG-CC-PVTZ
    Blend: AUG-CC-PVTZ
    Number of shells: 226
    Number of basis functions: 690
    Number of Cartesian functions: 805
    Spherical Harmonics?: true
    Max angular momentum: 3

  ==> CGRSolver (by Rob Parrish) <==

   Number of roots    =         1
   Preconditioning    =    JACOBI
   Convergence cutoff =     1E-06
   Maximum iterations =       100

  ==> CPHFRHamiltonian (by Rob Parrish) <== 

  ==> MemDFJK: Density-Fitted J/K Matrices <==

    J tasked:                   Yes
    K tasked:                   Yes
    wK tasked:                   No
    OpenMP threads:              32
    Memory [MiB]:             22888
    Algorithm:                 Core
    Schwarz Cutoff:           1E-12
    Mask sparsity (%):       7.0401
    Fitting Condition:        1E-10

   => Auxiliary Basis Set <=

  Basis Set: (AUG-CC-PVTZ AUX)
    Blend: AUG-CC-PVTZ-JKFIT
    Number of shells: 442
    Number of basis functions: 1512
    Number of Cartesian functions: 1881
    Spherical Harmonics?: true
    Max angular momentum: 4

  ==> CPHF Iterations <==

  => Iterations <=

             Iter  Converged  Remaining    Residual
  CGR           1          0          1   9.084E-02
  CGR           2          0          1   3.751E-02
  CGR           3          0          1   2.183E-02
  CGR           4          0          1   7.598E-03
  CGR           5          0          1   2.465E-03
  CGR           6          0          1   1.381E-03
  CGR           7          0          1   6.402E-04
  CGR           8          0          1   2.336E-04
  CGR           9          0          1   9.265E-05
  CGR          10          0          1   2.472E-05
  CGR          11          0          1   9.437E-06
  CGR          12          0          1   3.379E-06
  CGR          13          0          1   1.378E-06
  CGR          14          1          0   5.373E-07

    CGRSolver converged.

	-----------------------------------------------------------
	 ==================> DF-MP2 Energies <==================== 
	-----------------------------------------------------------
	 Reference Energy          =    -454.4889742955236898 [Eh]
	 Singles Energy            =      -0.0000000000000000 [Eh]
	 Same-Spin Energy          =      -0.5082993912517606 [Eh]
	 Opposite-Spin Energy      =      -1.5455235433841787 [Eh]
	 Correlation Energy        =      -2.0538229346359396 [Eh]
	 Total Energy              =    -456.5427972301596355 [Eh]
	-----------------------------------------------------------
	 ================> DF-SCS-MP2 Energies <================== 
	-----------------------------------------------------------
	 SCS Same-Spin Scale       =       0.3333333333333333 [-]
	 SCS Opposite-Spin Scale   =       1.2000000000000000 [-]
	 SCS Same-Spin Energy      =      -0.1694331304172535 [Eh]
	 SCS Opposite-Spin Energy  =      -1.8546282520610144 [Eh]
	 SCS Correlation Energy    =      -2.0240613824782678 [Eh]
	 SCS Total Energy          =    -456.5130356780019838 [Eh]
	-----------------------------------------------------------



Properties will be evaluated at   0.000000,   0.000000,  -0.000000 [a0]

Properties computed using the MP2 density matrix

  Nuclear Dipole Moment: [e a0]
     X:    -2.1208      Y:     1.6318      Z:     0.6773

  Electronic Dipole Moment: [e a0]
     X:     1.8012      Y:    -0.9961      Z:    -0.3906

  Dipole Moment: [e a0]
     X:    -0.3196      Y:     0.6356      Z:     0.2867     Total:     0.7671

  Dipole Moment: [D]
     X:    -0.8124      Y:     1.6156      Z:     0.7287     Total:     1.9497


*** tstop() called on c446-022.stampede2.tacc.utexas.edu at Sat Mar 20 12:48:28 2021
Module time:
	user time   =    2189.41 seconds =      36.49 minutes
	system time =      70.15 seconds =       1.17 minutes
	total time  =        248 seconds =       4.13 minutes
Total time:
	user time   =    2926.80 seconds =      48.78 minutes
	system time =     120.66 seconds =       2.01 minutes
	total time  =        289 seconds =       4.82 minutes

    Psi4 stopped on: Saturday, 20 March 2021 12:48PM
    Psi4 wall time for execution: 0:04:50.41

*** Psi4 exiting successfully. Buy a developer a beer!
