
    -----------------------------------------------------------------------
          Psi4: An Open-Source Ab Initio Electronic Structure Package
                               Psi4 1.3.2 release

                         Git: Rev {HEAD} ecbda83 


    R. M. Parrish, L. A. Burns, D. G. A. Smith, A. C. Simmonett,
    A. E. DePrince III, E. G. Hohenstein, U. Bozkaya, A. Yu. Sokolov,
    R. Di Remigio, R. M. Richard, J. F. Gonthier, A. M. James,
    H. R. McAlexander, A. Kumar, M. Saitow, X. Wang, B. P. Pritchard,
    P. Verma, H. F. Schaefer III, K. Patkowski, R. A. King, E. F. Valeev,
    F. A. Evangelista, J. M. Turney, T. D. Crawford, and C. D. Sherrill,
    J. Chem. Theory Comput. 13(7) pp 3185--3197 (2017).
    (doi: 10.1021/acs.jctc.7b00174)


                         Additional Contributions by
    P. Kraus, H. Kruse, M. H. Lechner, M. C. Schieber, R. A. Shaw,
    A. Alenaizan, R. Galvelis, Z. L. Glick, S. Lehtola, and J. P. Misiewicz

    -----------------------------------------------------------------------


    Psi4 started on: Friday, 05 February 2021 12:35PM

    Process ID: 11780
    Host:       node37.bme.utexas.edu
    PSIDATADIR: /home/xy3866/psi4conda/share/psi4
    Memory:     500.0 MiB
    Threads:    8
    
  ==> Input File <==

--------------------------------------------------------------------------
#psi4
#
memory 32 gb

molecule  {
0 1
  N        1.0119030     0.0333230     0.0008060
  N        1.6997840    -1.0566340    -0.4179730
  C       -0.4063900     0.0163860    -0.0081010
  C       -1.0912584     1.2086200    -0.2564578
  C       -1.0729400    -1.1865160     0.2388070
  C        1.8312940     1.0508850     0.4071570
  C       -2.5072630     1.1720280    -0.2304200
  C       -2.4668310    -1.1992430     0.2370020
  C        3.1277520     0.5983640     0.2378140
  C       -3.1875810    -0.0227020     0.0140150
  C        2.9917500    -0.7051290    -0.2688550
  H       -0.5788940     2.1134690    -0.4901430
  H       -0.4926250    -2.0861370     0.4161180
  H        1.4325560     1.9713960     0.8093900
  H       -3.0617120     2.0872770    -0.4220560
  H       -2.9921950    -2.1322260     0.4251330
  H        4.0379080     1.1354570     0.4652770
  H       -4.2743140    -0.0387150     0.0221240
  H        3.7631710    -1.4121260    -0.5458550
units angstrom
no_reorient  #important for SAPT in psi4, default
symmetry c1  #important for SAPT in psi4, default
}

set PROPERTIES_ORIGIN ["COM"]
properties('MP2/aug-cc-pvtz', properties = ['dipole'])
--------------------------------------------------------------------------

  Memory set to  29.802 GiB by Python driver.
    SCF Algorithm Type (re)set to DF.

*** tstart() called on node37.bme.utexas.edu
*** at Fri Feb  5 12:35:07 2021

   => Loading Basis Set <=

    Name: AUG-CC-PVTZ
    Role: ORBITAL
    Keyword: BASIS
    atoms 1-2   entry N          line   281 file /home/xy3866/psi4conda/share/psi4/basis/aug-cc-pvtz.gbs 
    atoms 3-11  entry C          line   235 file /home/xy3866/psi4conda/share/psi4/basis/aug-cc-pvtz.gbs 
    atoms 12-19 entry H          line    36 file /home/xy3866/psi4conda/share/psi4/basis/aug-cc-pvtz.gbs 


         ---------------------------------------------------------
                                   SCF
               by Justin Turney, Rob Parrish, Andy Simmonett
                          and Daniel G. A. Smith
                              RHF Reference
                        8 Threads,  30517 MiB Core
         ---------------------------------------------------------

  ==> Geometry <==

    Molecular point group: c1
    Full point group: C1

    Geometry (in Angstrom), charge = 0, multiplicity = 1:

       Center              X                  Y                   Z               Mass       
    ------------   -----------------  -----------------  -----------------  -----------------
         N            0.995165920478     0.043637299157     0.005697949529    14.003074004430
         N            1.683046920478    -1.046319700843    -0.413081050471    14.003074004430
         C           -0.423127079522     0.026700299157    -0.003209050471    12.000000000000
         C           -1.107995479522     1.218934299157    -0.251565850471    12.000000000000
         C           -1.089677079522    -1.176201700843     0.243698949529    12.000000000000
         C            1.814556920478     1.061199299157     0.412048949529    12.000000000000
         C           -2.524000079522     1.182342299157    -0.225528050471    12.000000000000
         C           -2.483568079522    -1.188928700843     0.241893949529    12.000000000000
         C            3.111014920478     0.608678299157     0.242705949529    12.000000000000
         C           -3.204318079522    -0.012387700843     0.018906949529    12.000000000000
         C            2.975012920478    -0.694814700843    -0.263963050471    12.000000000000
         H           -0.595631079522     2.123783299157    -0.485251050471     1.007825032230
         H           -0.509362079522    -2.075822700843     0.421009949529     1.007825032230
         H            1.415818920478     1.981710299157     0.814281949529     1.007825032230
         H           -3.078449079522     2.097591299157    -0.417164050471     1.007825032230
         H           -3.008932079522    -2.121911700843     0.430024949529     1.007825032230
         H            4.021170920478     1.145771299157     0.470168949529     1.007825032230
         H           -4.291051079522    -0.028400700843     0.027015949529     1.007825032230
         H            3.746433920478    -1.401811700843    -0.540963050471     1.007825032230

  Running in c1 symmetry.

  Rotational constants: A =      0.11778  B =      0.02404  C =      0.02048 [cm^-1]
  Rotational constants: A =   3530.96318  B =    720.69392  C =    614.12065 [MHz]
  Nuclear repulsion =  546.172828094803322

  Charge       = 0
  Multiplicity = 1
  Electrons    = 76
  Nalpha       = 38
  Nbeta        = 38

  ==> Algorithm <==

  SCF Algorithm Type is DF.
  DIIS enabled.
  MOM disabled.
  Fractional occupation disabled.
  Guess Type is SAD.
  Energy threshold   = 1.00e-10
  Density threshold  = 1.00e-10
  Integral threshold = 0.00e+00

  ==> Primary Basis <==

  Basis Set: AUG-CC-PVTZ
    Blend: AUG-CC-PVTZ
    Number of shells: 226
    Number of basis function: 690
    Number of Cartesian functions: 805
    Spherical Harmonics?: true
    Max angular momentum: 3

   => Loading Basis Set <=

    Name: (AUG-CC-PVTZ AUX)
    Role: JKFIT
    Keyword: DF_BASIS_SCF
    atoms 1-2   entry N          line   224 file /home/xy3866/psi4conda/share/psi4/basis/aug-cc-pvtz-jkfit.gbs 
    atoms 3-11  entry C          line   162 file /home/xy3866/psi4conda/share/psi4/basis/aug-cc-pvtz-jkfit.gbs 
    atoms 12-19 entry H          line    70 file /home/xy3866/psi4conda/share/psi4/basis/aug-cc-pvtz-jkfit.gbs 

  ==> Pre-Iterations <==

   -------------------------------------------------------
    Irrep   Nso     Nmo     Nalpha   Nbeta   Ndocc  Nsocc
   -------------------------------------------------------
     A        690     690       0       0       0       0
   -------------------------------------------------------
    Total     690     690      38      38      38       0
   -------------------------------------------------------

  ==> Integral Setup <==

  DFHelper Memory: AOs need 5.126 GiB; user supplied 22.352 GiB. Using in-core AOs.

  ==> MemDFJK: Density-Fitted J/K Matrices <==

    J tasked:                   Yes
    K tasked:                   Yes
    wK tasked:                   No
    OpenMP threads:               8
    Memory [MiB]:             22888
    Algorithm:                 Disk
    Schwarz Cutoff:           1E-12
    Mask sparsity (%):       7.0607
    Fitting Condition:        1E-10

   => Auxiliary Basis Set <=

  Basis Set: (AUG-CC-PVTZ AUX)
    Blend: AUG-CC-PVTZ-JKFIT
    Number of shells: 442
    Number of basis function: 1512
    Number of Cartesian functions: 1881
    Spherical Harmonics?: true
    Max angular momentum: 4

  Minimum eigenvalue in the overlap matrix is 5.7968188398E-07.
  Using Symmetric Orthogonalization.

  SCF Guess: Superposition of Atomic Densities via on-the-fly atomic UHF.

  ==> Iterations <==

                           Total Energy        Delta E     RMS |[F,P]|

   @DF-RHF iter SAD:  -454.09340994023148   -4.54093e+02   0.00000e+00 
   @DF-RHF iter   1:  -454.22686472482314   -1.33455e-01   9.50845e-04 DIIS
   @DF-RHF iter   2:  -454.43832349455272   -2.11459e-01   4.51596e-04 DIIS
   @DF-RHF iter   3:  -454.48289095487723   -4.45675e-02   1.11058e-04 DIIS
   @DF-RHF iter   4:  -454.48614561544650   -3.25466e-03   5.73267e-05 DIIS
   @DF-RHF iter   5:  -454.48693076446921   -7.85149e-04   7.30954e-06 DIIS
   @DF-RHF iter   6:  -454.48695899095566   -2.82265e-05   3.39009e-06 DIIS
   @DF-RHF iter   7:  -454.48696497412868   -5.98317e-06   1.75787e-06 DIIS
   @DF-RHF iter   8:  -454.48696704844281   -2.07431e-06   7.19136e-07 DIIS
   @DF-RHF iter   9:  -454.48696763430200   -5.85859e-07   2.83514e-07 DIIS
   @DF-RHF iter  10:  -454.48696770140168   -6.70997e-08   7.69150e-08 DIIS
   @DF-RHF iter  11:  -454.48696770673513   -5.33345e-09   2.52469e-08 DIIS
   @DF-RHF iter  12:  -454.48696770732965   -5.94525e-10   1.34494e-08 DIIS
   @DF-RHF iter  13:  -454.48696770750047   -1.70814e-10   6.10048e-09 DIIS
   @DF-RHF iter  14:  -454.48696770754475   -4.42810e-11   2.41144e-09 DIIS
   @DF-RHF iter  15:  -454.48696770755339   -8.64020e-12   1.04505e-09 DIIS
   @DF-RHF iter  16:  -454.48696770755339    0.00000e+00   3.13641e-10 DIIS
   @DF-RHF iter  17:  -454.48696770755470   -1.30740e-12   1.00611e-10 DIIS
   @DF-RHF iter  18:  -454.48696770755402    6.82121e-13   4.91622e-11 DIIS
  Energy and wave function converged.


  ==> Post-Iterations <==

    Orbital Energies [Eh]
    ---------------------

    Doubly Occupied:                                                      

       1A    -15.651173     2A    -15.590471     3A    -11.292285  
       4A    -11.282293     5A    -11.259350     6A    -11.250546  
       7A    -11.247353     8A    -11.246676     9A    -11.241236  
      10A    -11.241064    11A    -11.227886    12A     -1.382233  
      13A     -1.174469    14A     -1.109569    15A     -1.063621  
      16A     -1.022872    17A     -0.998277    18A     -0.860588  
      19A     -0.848805    20A     -0.797544    21A     -0.776568  
      22A     -0.742543    23A     -0.687736    24A     -0.648850  
      25A     -0.641452    26A     -0.615267    27A     -0.598802  
      28A     -0.593587    29A     -0.588028    30A     -0.563444  
      31A     -0.518834    32A     -0.510027    33A     -0.509199  
      34A     -0.462796    35A     -0.394939    36A     -0.349414  
      37A     -0.344468    38A     -0.313519  

    Virtual:                                                              

      39A      0.026102    40A      0.030997    41A      0.033824  
      42A      0.041179    43A      0.043405    44A      0.049740  
      45A      0.055423    46A      0.063741    47A      0.082915  
      48A      0.086048    49A      0.091520    50A      0.094564  
      51A      0.096449    52A      0.101773    53A      0.109546  
      54A      0.109912    55A      0.112469    56A      0.115729  
      57A      0.119961    58A      0.122091    59A      0.124565  
      60A      0.125154    61A      0.129377    62A      0.131538  
      63A      0.137416    64A      0.138677    65A      0.144729  
      66A      0.146825    67A      0.151224    68A      0.155541  
      69A      0.161182    70A      0.163106    71A      0.169469  
      72A      0.172898    73A      0.184822    74A      0.185209  
      75A      0.193207    76A      0.203064    77A      0.210251  
      78A      0.219741    79A      0.222364    80A      0.227245  
      81A      0.234215    82A      0.239659    83A      0.242704  
      84A      0.252846    85A      0.256411    86A      0.257911  
      87A      0.260450    88A      0.269972    89A      0.271626  
      90A      0.275990    91A      0.286694    92A      0.289322  
      93A      0.294290    94A      0.297463    95A      0.304173  
      96A      0.307093    97A      0.312236    98A      0.314654  
      99A      0.316385   100A      0.320201   101A      0.324810  
     102A      0.325930   103A      0.332572   104A      0.334575  
     105A      0.336490   106A      0.340037   107A      0.345844  
     108A      0.352654   109A      0.359009   110A      0.364651  
     111A      0.366959   112A      0.375135   113A      0.387365  
     114A      0.391993   115A      0.395133   116A      0.406281  
     117A      0.413284   118A      0.415629   119A      0.420529  
     120A      0.429380   121A      0.433230   122A      0.438839  
     123A      0.443494   124A      0.448717   125A      0.451070  
     126A      0.452332   127A      0.459878   128A      0.464617  
     129A      0.469929   130A      0.472043   131A      0.473488  
     132A      0.477893   133A      0.484040   134A      0.486200  
     135A      0.488123   136A      0.491627   137A      0.498148  
     138A      0.499848   139A      0.506616   140A      0.510045  
     141A      0.515969   142A      0.518606   143A      0.523400  
     144A      0.527749   145A      0.530152   146A      0.531985  
     147A      0.534823   148A      0.540996   149A      0.544878  
     150A      0.545782   151A      0.554404   152A      0.556703  
     153A      0.558551   154A      0.569508   155A      0.581383  
     156A      0.586155   157A      0.599483   158A      0.605079  
     159A      0.608355   160A      0.618058   161A      0.620766  
     162A      0.628531   163A      0.638236   164A      0.639754  
     165A      0.646642   166A      0.653615   167A      0.660501  
     168A      0.663986   169A      0.666237   170A      0.671996  
     171A      0.674256   172A      0.690367   173A      0.691414  
     174A      0.702319   175A      0.705884   176A      0.710532  
     177A      0.717755   178A      0.721162   179A      0.727592  
     180A      0.733927   181A      0.738758   182A      0.747548  
     183A      0.762139   184A      0.766215   185A      0.769113  
     186A      0.774671   187A      0.784736   188A      0.793061  
     189A      0.800057   190A      0.805146   191A      0.811323  
     192A      0.814137   193A      0.829334   194A      0.832168  
     195A      0.838581   196A      0.843295   197A      0.845456  
     198A      0.852435   199A      0.860545   200A      0.865966  
     201A      0.873608   202A      0.879605   203A      0.886187  
     204A      0.890763   205A      0.891290   206A      0.892401  
     207A      0.903425   208A      0.906767   209A      0.912119  
     210A      0.921990   211A      0.922416   212A      0.925580  
     213A      0.934810   214A      0.938954   215A      0.948286  
     216A      0.953772   217A      0.962938   218A      0.967814  
     219A      0.978991   220A      0.985170   221A      0.989663  
     222A      0.998883   223A      1.001634   224A      1.006929  
     225A      1.012199   226A      1.017708   227A      1.021705  
     228A      1.027704   229A      1.037724   230A      1.042750  
     231A      1.049975   232A      1.054189   233A      1.057838  
     234A      1.063405   235A      1.066549   236A      1.075496  
     237A      1.076668   238A      1.080791   239A      1.084125  
     240A      1.089175   241A      1.094710   242A      1.095584  
     243A      1.105018   244A      1.112340   245A      1.119889  
     246A      1.121394   247A      1.129134   248A      1.132516  
     249A      1.136244   250A      1.139033   251A      1.148944  
     252A      1.155975   253A      1.160213   254A      1.173576  
     255A      1.176324   256A      1.181309   257A      1.188517  
     258A      1.194120   259A      1.199309   260A      1.203974  
     261A      1.210782   262A      1.215509   263A      1.218396  
     264A      1.220288   265A      1.233036   266A      1.237399  
     267A      1.241559   268A      1.243967   269A      1.256481  
     270A      1.260240   271A      1.266692   272A      1.280454  
     273A      1.286488   274A      1.289380   275A      1.298144  
     276A      1.300634   277A      1.307659   278A      1.320405  
     279A      1.326561   280A      1.340654   281A      1.346748  
     282A      1.365079   283A      1.370209   284A      1.380123  
     285A      1.385468   286A      1.395732   287A      1.400436  
     288A      1.402876   289A      1.410317   290A      1.422927  
     291A      1.432210   292A      1.441381   293A      1.449951  
     294A      1.454568   295A      1.465122   296A      1.471010  
     297A      1.478359   298A      1.487372   299A      1.492893  
     300A      1.505590   301A      1.509724   302A      1.510845  
     303A      1.523426   304A      1.532720   305A      1.540310  
     306A      1.545251   307A      1.551626   308A      1.558635  
     309A      1.565685   310A      1.576454   311A      1.581881  
     312A      1.605417   313A      1.612570   314A      1.626909  
     315A      1.635864   316A      1.645578   317A      1.659217  
     318A      1.667392   319A      1.674536   320A      1.686506  
     321A      1.698500   322A      1.706978   323A      1.710186  
     324A      1.721400   325A      1.728929   326A      1.736213  
     327A      1.755484   328A      1.760807   329A      1.769216  
     330A      1.770186   331A      1.782513   332A      1.792435  
     333A      1.795852   334A      1.812896   335A      1.820838  
     336A      1.828708   337A      1.831833   338A      1.839324  
     339A      1.844801   340A      1.863028   341A      1.866962  
     342A      1.878549   343A      1.880729   344A      1.895369  
     345A      1.905890   346A      1.918338   347A      1.936492  
     348A      1.939331   349A      1.941303   350A      1.950478  
     351A      1.964533   352A      1.976863   353A      1.983687  
     354A      1.986029   355A      1.999543   356A      2.004154  
     357A      2.012078   358A      2.020102   359A      2.028860  
     360A      2.032091   361A      2.037936   362A      2.039434  
     363A      2.043350   364A      2.051111   365A      2.053974  
     366A      2.063067   367A      2.073284   368A      2.085119  
     369A      2.087871   370A      2.094708   371A      2.099057  
     372A      2.113040   373A      2.123255   374A      2.133227  
     375A      2.142622   376A      2.159585   377A      2.181304  
     378A      2.184862   379A      2.199605   380A      2.218469  
     381A      2.220604   382A      2.233220   383A      2.252818  
     384A      2.258394   385A      2.263802   386A      2.266155  
     387A      2.294786   388A      2.314978   389A      2.329965  
     390A      2.340120   391A      2.347692   392A      2.351968  
     393A      2.361906   394A      2.368378   395A      2.382214  
     396A      2.391939   397A      2.397720   398A      2.419903  
     399A      2.424254   400A      2.431819   401A      2.445342  
     402A      2.453573   403A      2.468792   404A      2.477780  
     405A      2.504951   406A      2.511625   407A      2.524082  
     408A      2.544168   409A      2.551523   410A      2.561218  
     411A      2.579837   412A      2.591873   413A      2.604005  
     414A      2.620298   415A      2.622045   416A      2.672008  
     417A      2.680707   418A      2.691051   419A      2.703924  
     420A      2.738896   421A      2.743114   422A      2.766792  
     423A      2.789474   424A      2.800939   425A      2.817428  
     426A      2.832305   427A      2.858071   428A      2.862203  
     429A      2.884610   430A      2.908730   431A      2.949521  
     432A      2.971116   433A      2.994571   434A      3.033088  
     435A      3.049939   436A      3.060449   437A      3.099698  
     438A      3.141188   439A      3.166225   440A      3.179759  
     441A      3.191699   442A      3.199452   443A      3.215498  
     444A      3.241009   445A      3.243618   446A      3.247200  
     447A      3.279089   448A      3.307114   449A      3.317226  
     450A      3.320299   451A      3.347376   452A      3.361187  
     453A      3.372828   454A      3.378041   455A      3.380370  
     456A      3.395405   457A      3.400626   458A      3.412698  
     459A      3.422441   460A      3.445086   461A      3.456348  
     462A      3.463973   463A      3.470421   464A      3.484028  
     465A      3.499761   466A      3.518322   467A      3.522734  
     468A      3.531729   469A      3.545061   470A      3.552520  
     471A      3.558977   472A      3.563105   473A      3.576561  
     474A      3.580771   475A      3.586493   476A      3.601872  
     477A      3.614064   478A      3.620837   479A      3.637830  
     480A      3.644216   481A      3.657965   482A      3.663421  
     483A      3.670806   484A      3.687657   485A      3.710633  
     486A      3.716583   487A      3.720437   488A      3.746041  
     489A      3.747788   490A      3.765507   491A      3.783284  
     492A      3.793052   493A      3.804117   494A      3.804498  
     495A      3.833423   496A      3.841905   497A      3.844704  
     498A      3.846871   499A      3.855835   500A      3.869104  
     501A      3.880118   502A      3.887896   503A      3.901465  
     504A      3.917639   505A      3.923192   506A      3.931593  
     507A      3.939976   508A      3.942919   509A      3.953998  
     510A      3.966306   511A      3.972579   512A      3.980064  
     513A      3.983614   514A      3.992674   515A      3.997465  
     516A      4.030874   517A      4.036072   518A      4.046900  
     519A      4.064020   520A      4.079011   521A      4.090897  
     522A      4.103235   523A      4.117208   524A      4.128301  
     525A      4.135624   526A      4.137747   527A      4.156116  
     528A      4.166921   529A      4.179516   530A      4.194360  
     531A      4.202623   532A      4.210891   533A      4.224934  
     534A      4.233565   535A      4.241698   536A      4.247556  
     537A      4.264364   538A      4.274779   539A      4.286185  
     540A      4.297731   541A      4.314393   542A      4.326527  
     543A      4.329899   544A      4.344462   545A      4.354171  
     546A      4.359340   547A      4.376376   548A      4.382960  
     549A      4.396734   550A      4.405629   551A      4.406962  
     552A      4.425131   553A      4.432116   554A      4.440907  
     555A      4.451317   556A      4.463610   557A      4.469319  
     558A      4.493992   559A      4.500629   560A      4.516070  
     561A      4.522694   562A      4.541124   563A      4.553579  
     564A      4.583636   565A      4.592436   566A      4.625950  
     567A      4.636009   568A      4.647413   569A      4.668089  
     570A      4.686056   571A      4.704103   572A      4.707585  
     573A      4.723834   574A      4.734721   575A      4.755076  
     576A      4.774431   577A      4.788057   578A      4.824922  
     579A      4.841745   580A      4.859688   581A      4.868321  
     582A      4.885343   583A      4.904836   584A      4.915863  
     585A      4.921936   586A      4.940663   587A      4.957455  
     588A      4.960045   589A      4.972403   590A      4.995973  
     591A      5.007311   592A      5.012192   593A      5.052586  
     594A      5.060809   595A      5.064556   596A      5.081631  
     597A      5.089256   598A      5.109500   599A      5.118525  
     600A      5.120686   601A      5.129751   602A      5.143455  
     603A      5.146763   604A      5.165305   605A      5.166457  
     606A      5.176527   607A      5.197245   608A      5.206870  
     609A      5.222006   610A      5.252144   611A      5.265499  
     612A      5.276642   613A      5.286394   614A      5.305554  
     615A      5.316662   616A      5.328250   617A      5.337825  
     618A      5.364592   619A      5.401462   620A      5.422656  
     621A      5.426068   622A      5.438641   623A      5.450624  
     624A      5.487684   625A      5.498641   626A      5.524402  
     627A      5.543198   628A      5.591176   629A      5.622187  
     630A      5.642909   631A      5.701067   632A      5.727021  
     633A      5.738127   634A      5.750123   635A      5.772459  
     636A      5.791328   637A      5.805256   638A      5.842084  
     639A      5.851446   640A      5.867899   641A      5.885694  
     642A      5.904187   643A      5.934145   644A      5.942888  
     645A      5.992037   646A      6.003628   647A      6.058379  
     648A      6.078053   649A      6.126139   650A      6.134860  
     651A      6.164018   652A      6.195434   653A      6.212721  
     654A      6.233068   655A      6.255737   656A      6.300808  
     657A      6.334787   658A      6.371052   659A      6.381860  
     660A      6.426697   661A      6.482106   662A      6.535398  
     663A      6.561143   664A      6.636142   665A      6.686691  
     666A      6.714810   667A      6.759952   668A      6.775720  
     669A      6.878650   670A      6.892812   671A      6.992048  
     672A      7.028099   673A      7.041573   674A      7.092270  
     675A      7.214551   676A      7.241179   677A      7.302807  
     678A      7.440113   679A      7.778148   680A     15.684835  
     681A     16.083279   682A     16.344319   683A     16.833278  
     684A     17.611769   685A     18.372429   686A     18.516230  
     687A     19.177253   688A     19.630100   689A     19.834047  
     690A     21.279785  

    Final Occupation by Irrep:
              A 
    DOCC [    38 ]

  @DF-RHF Final Energy:  -454.48696770755402

   => Energetics <=

    Nuclear Repulsion Energy =            546.1728280948033216
    One-Electron Energy =               -1698.0240297335549258
    Two-Electron Energy =                 697.3642339311976457
    Total Energy =                       -454.4869677075540721

Computation Completed

*** tstop() called on node37.bme.utexas.edu at Fri Feb  5 12:37:18 2021
Module time:
	user time   =     421.88 seconds =       7.03 minutes
	system time =     107.08 seconds =       1.78 minutes
	total time  =        131 seconds =       2.18 minutes
Total time:
	user time   =     421.88 seconds =       7.03 minutes
	system time =     107.08 seconds =       1.78 minutes
	total time  =        131 seconds =       2.18 minutes
   => Loading Basis Set <=

    Name: (AUG-CC-PVTZ AUX)
    Role: RIFIT
    Keyword: DF_BASIS_MP2
    atoms 1-2   entry N          line   206 file /home/xy3866/psi4conda/share/psi4/basis/aug-cc-pvtz-ri.gbs 
    atoms 3-11  entry C          line   148 file /home/xy3866/psi4conda/share/psi4/basis/aug-cc-pvtz-ri.gbs 
    atoms 12-19 entry H          line    30 file /home/xy3866/psi4conda/share/psi4/basis/aug-cc-pvtz-ri.gbs 


*** tstart() called on node37.bme.utexas.edu
*** at Fri Feb  5 12:37:18 2021


  //>>>>>>>>>>>>>>>>>>>>>>>>>>>>>>>>>>>//
  //               DFMP2               //
  //<<<<<<<<<<<<<<<<<<<<<<<<<<<<<<<<<<<//

	 --------------------------------------------------------
	                          DF-MP2                         
	      2nd-Order Density-Fitted Moller-Plesset Theory     
	              RMP2 Wavefunction,   8 Threads             
	                                                         
	        Rob Parrish, Justin Turney, Andy Simmonett,      
	           Ed Hohenstein, and C. David Sherrill          
	 --------------------------------------------------------

   => Auxiliary Basis Set <=

  Basis Set: (AUG-CC-PVTZ AUX)
    Blend: AUG-CC-PVTZ-RI
    Number of shells: 420
    Number of basis function: 1534
    Number of Cartesian functions: 1936
    Spherical Harmonics?: true
    Max angular momentum: 4

	 --------------------------------------------------------
	                 NBF =   690, NAUX =  1534
	 --------------------------------------------------------
	   CLASS    FOCC     OCC    AOCC    AVIR     VIR    FVIR
	   PAIRS       0      38      38     652     652       0
	 --------------------------------------------------------

  DFHelper Memory: AOs need 5.126 GiB; user supplied 22.352 GiB. Using in-core AOs.


         ------------------------------------------------------------
                                     CPHF                           
                                  Rob Parrish                       
         ------------------------------------------------------------

  ==> Geometry <==

    Molecular point group: c1
    Full point group: C1

    Geometry (in Angstrom), charge = 0, multiplicity = 1:

       Center              X                  Y                   Z               Mass       
    ------------   -----------------  -----------------  -----------------  -----------------
         N            0.995165920478     0.043637299157     0.005697949529    14.003074004430
         N            1.683046920478    -1.046319700843    -0.413081050471    14.003074004430
         C           -0.423127079522     0.026700299157    -0.003209050471    12.000000000000
         C           -1.107995479522     1.218934299157    -0.251565850471    12.000000000000
         C           -1.089677079522    -1.176201700843     0.243698949529    12.000000000000
         C            1.814556920478     1.061199299157     0.412048949529    12.000000000000
         C           -2.524000079522     1.182342299157    -0.225528050471    12.000000000000
         C           -2.483568079522    -1.188928700843     0.241893949529    12.000000000000
         C            3.111014920478     0.608678299157     0.242705949529    12.000000000000
         C           -3.204318079522    -0.012387700843     0.018906949529    12.000000000000
         C            2.975012920478    -0.694814700843    -0.263963050471    12.000000000000
         H           -0.595631079522     2.123783299157    -0.485251050471     1.007825032230
         H           -0.509362079522    -2.075822700843     0.421009949529     1.007825032230
         H            1.415818920478     1.981710299157     0.814281949529     1.007825032230
         H           -3.078449079522     2.097591299157    -0.417164050471     1.007825032230
         H           -3.008932079522    -2.121911700843     0.430024949529     1.007825032230
         H            4.021170920478     1.145771299157     0.470168949529     1.007825032230
         H           -4.291051079522    -0.028400700843     0.027015949529     1.007825032230
         H            3.746433920478    -1.401811700843    -0.540963050471     1.007825032230

  Nuclear repulsion =  546.172828094803322
  Reference energy  = -454.486967707554015

  ==> Basis Set <==

  Basis Set: AUG-CC-PVTZ
    Blend: AUG-CC-PVTZ
    Number of shells: 226
    Number of basis function: 690
    Number of Cartesian functions: 805
    Spherical Harmonics?: true
    Max angular momentum: 3

  ==> CGRSolver (by Rob Parrish) <==

   Number of roots    =         1
   Preconditioning    =    JACOBI
   Convergence cutoff =     1E-06
   Maximum iterations =       100

  ==> CPHFRHamiltonian (by Rob Parrish) <== 

  ==> MemDFJK: Density-Fitted J/K Matrices <==

    J tasked:                   Yes
    K tasked:                   Yes
    wK tasked:                   No
    OpenMP threads:               8
    Memory [MiB]:             22888
    Algorithm:                 Disk
    Schwarz Cutoff:           1E-12
    Mask sparsity (%):       7.0607
    Fitting Condition:        1E-10

   => Auxiliary Basis Set <=

  Basis Set: (AUG-CC-PVTZ AUX)
    Blend: AUG-CC-PVTZ-JKFIT
    Number of shells: 442
    Number of basis function: 1512
    Number of Cartesian functions: 1881
    Spherical Harmonics?: true
    Max angular momentum: 4

  ==> CPHF Iterations <==

  => Iterations <=

             Iter  Converged  Remaining    Residual
  CGR           1          0          1   8.722E-02
  CGR           2          0          1   3.602E-02
  CGR           3          0          1   2.198E-02
  CGR           4          0          1   7.957E-03
  CGR           5          0          1   2.493E-03
  CGR           6          0          1   1.320E-03
  CGR           7          0          1   6.086E-04
  CGR           8          0          1   2.416E-04
  CGR           9          0          1   9.971E-05
  CGR          10          0          1   2.720E-05
  CGR          11          0          1   1.070E-05
  CGR          12          0          1   4.076E-06
  CGR          13          0          1   1.599E-06
  CGR          14          1          0   6.061E-07

    CGRSolver converged.

	-----------------------------------------------------------
	 ==================> DF-MP2 Energies <==================== 
	-----------------------------------------------------------
	 Reference Energy          =    -454.4869677075540153 [Eh]
	 Singles Energy            =      -0.0000000000000000 [Eh]
	 Same-Spin Energy          =      -0.5096796415111335 [Eh]
	 Opposite-Spin Energy      =      -1.5481027899594726 [Eh]
	 Correlation Energy        =      -2.0577824314706064 [Eh]
	 Total Energy              =    -456.5447501390246430 [Eh]
	-----------------------------------------------------------
	 ================> DF-SCS-MP2 Energies <================== 
	-----------------------------------------------------------
	 SCS Same-Spin Scale       =       0.3333333333333333 [-]
	 SCS Opposite-Spin Scale   =       1.2000000000000000 [-]
	 SCS Same-Spin Energy      =      -0.1698932138370445 [Eh]
	 SCS Opposite-Spin Energy  =      -1.8577233479513671 [Eh]
	 SCS Correlation Energy    =      -2.0276165617884114 [Eh]
	 SCS Total Energy          =    -456.5145842693424356 [Eh]
	-----------------------------------------------------------



Properties will be evaluated at  -0.000000,  -0.000000,  -0.000000 [a0]

Properties computed using the MP2 density matrix

  Nuclear Dipole Moment: [e a0]
     X:    -2.1640      Y:     1.6162      Z:     0.6753

  Electronic Dipole Moment: [e a0]
     X:     1.8095      Y:    -0.9725      Z:    -0.3852

  Dipole Moment: [e a0]
     X:    -0.3544      Y:     0.6437      Z:     0.2901     Total:     0.7900

  Dipole Moment: [D]
     X:    -0.9009      Y:     1.6361      Z:     0.7374     Total:     2.0080


*** tstop() called on node37.bme.utexas.edu at Fri Feb  5 12:41:54 2021
Module time:
	user time   =    1288.56 seconds =      21.48 minutes
	system time =     221.73 seconds =       3.70 minutes
	total time  =        276 seconds =       4.60 minutes
Total time:
	user time   =    1710.71 seconds =      28.51 minutes
	system time =     328.81 seconds =       5.48 minutes
	total time  =        407 seconds =       6.78 minutes

    Psi4 stopped on: Friday, 05 February 2021 12:41PM
    Psi4 wall time for execution: 0:06:47.87

*** Psi4 exiting successfully. Buy a developer a beer!
