
    -----------------------------------------------------------------------
          Psi4: An Open-Source Ab Initio Electronic Structure Package
                               Psi4 1.3.2 release

                         Git: Rev {HEAD} ecbda83 


    R. M. Parrish, L. A. Burns, D. G. A. Smith, A. C. Simmonett,
    A. E. DePrince III, E. G. Hohenstein, U. Bozkaya, A. Yu. Sokolov,
    R. Di Remigio, R. M. Richard, J. F. Gonthier, A. M. James,
    H. R. McAlexander, A. Kumar, M. Saitow, X. Wang, B. P. Pritchard,
    P. Verma, H. F. Schaefer III, K. Patkowski, R. A. King, E. F. Valeev,
    F. A. Evangelista, J. M. Turney, T. D. Crawford, and C. D. Sherrill,
    J. Chem. Theory Comput. 13(7) pp 3185--3197 (2017).
    (doi: 10.1021/acs.jctc.7b00174)


                         Additional Contributions by
    P. Kraus, H. Kruse, M. H. Lechner, M. C. Schieber, R. A. Shaw,
    A. Alenaizan, R. Galvelis, Z. L. Glick, S. Lehtola, and J. P. Misiewicz

    -----------------------------------------------------------------------


    Psi4 started on: Friday, 05 February 2021 05:25AM

    Process ID: 36648
    Host:       node37.bme.utexas.edu
    PSIDATADIR: /home/xy3866/psi4conda/share/psi4
    Memory:     500.0 MiB
    Threads:    8
    
  ==> Input File <==

--------------------------------------------------------------------------
#psi4
#
memory 32 gb

molecule  {
0 1
  N        1.0119030     0.0333230     0.0008060
  N        1.6933186    -1.0356236    -0.4096292
  C       -0.4063900     0.0163860    -0.0081010
  C       -1.1124080     1.1967220    -0.2540550
  C       -1.0729400    -1.1865160     0.2388070
  C        1.8312940     1.0508850     0.4071570
  C       -2.5072630     1.1720280    -0.2304200
  C       -2.4668310    -1.1992430     0.2370020
  C        3.1277520     0.5983640     0.2378140
  C       -3.1875810    -0.0227020     0.0140150
  C        2.9917500    -0.7051290    -0.2688550
  H       -0.5788940     2.1134690    -0.4901430
  H       -0.4926250    -2.0861370     0.4161180
  H        1.4325560     1.9713960     0.8093900
  H       -3.0617120     2.0872770    -0.4220560
  H       -2.9921950    -2.1322260     0.4251330
  H        4.0379080     1.1354570     0.4652770
  H       -4.2743140    -0.0387150     0.0221240
  H        3.7631710    -1.4121260    -0.5458550
units angstrom
no_reorient  #important for SAPT in psi4, default
symmetry c1  #important for SAPT in psi4, default
}

set PROPERTIES_ORIGIN ["COM"]
properties('MP2/aug-cc-pvtz', properties = ['dipole'])
--------------------------------------------------------------------------

  Memory set to  29.802 GiB by Python driver.
    SCF Algorithm Type (re)set to DF.

*** tstart() called on node37.bme.utexas.edu
*** at Fri Feb  5 05:25:46 2021

   => Loading Basis Set <=

    Name: AUG-CC-PVTZ
    Role: ORBITAL
    Keyword: BASIS
    atoms 1-2   entry N          line   281 file /home/xy3866/psi4conda/share/psi4/basis/aug-cc-pvtz.gbs 
    atoms 3-11  entry C          line   235 file /home/xy3866/psi4conda/share/psi4/basis/aug-cc-pvtz.gbs 
    atoms 12-19 entry H          line    36 file /home/xy3866/psi4conda/share/psi4/basis/aug-cc-pvtz.gbs 


         ---------------------------------------------------------
                                   SCF
               by Justin Turney, Rob Parrish, Andy Simmonett
                          and Daniel G. A. Smith
                              RHF Reference
                        8 Threads,  30517 MiB Core
         ---------------------------------------------------------

  ==> Geometry <==

    Molecular point group: c1
    Full point group: C1

    Geometry (in Angstrom), charge = 0, multiplicity = 1:

       Center              X                  Y                   Z               Mass       
    ------------   -----------------  -----------------  -----------------  -----------------
         N            0.997555964667     0.042586174692     0.004686818033    14.003074004430
         N            1.678971564667    -1.026360425308    -0.405748381967    14.003074004430
         C           -0.420737035333     0.025649174692    -0.004220181967    12.000000000000
         C           -1.126755035333     1.205985174692    -0.250174181967    12.000000000000
         C           -1.087287035333    -1.177252825308     0.242687818033    12.000000000000
         C            1.816946964667     1.060148174692     0.411037818033    12.000000000000
         C           -2.521610035333     1.181291174692    -0.226539181967    12.000000000000
         C           -2.481178035333    -1.189979825308     0.240882818033    12.000000000000
         C            3.113404964667     0.607627174692     0.241694818033    12.000000000000
         C           -3.201928035333    -0.013438825308     0.017895818033    12.000000000000
         C            2.977402964667    -0.695865825308    -0.264974181967    12.000000000000
         H           -0.593241035333     2.122732174692    -0.486262181967     1.007825032230
         H           -0.506972035333    -2.076873825308     0.419998818033     1.007825032230
         H            1.418208964667     1.980659174692     0.813270818033     1.007825032230
         H           -3.076059035333     2.096540174692    -0.418175181967     1.007825032230
         H           -3.006542035333    -2.122962825308     0.429013818033     1.007825032230
         H            4.023560964667     1.144720174692     0.469157818033     1.007825032230
         H           -4.288661035333    -0.029451825308     0.026004818033     1.007825032230
         H            3.748823964667    -1.402862825308    -0.541974181967     1.007825032230

  Running in c1 symmetry.

  Rotational constants: A =      0.11866  B =      0.02403  C =      0.02050 [cm^-1]
  Rotational constants: A =   3557.38027  B =    720.53798  C =    614.64023 [MHz]
  Nuclear repulsion =  547.006499036284481

  Charge       = 0
  Multiplicity = 1
  Electrons    = 76
  Nalpha       = 38
  Nbeta        = 38

  ==> Algorithm <==

  SCF Algorithm Type is DF.
  DIIS enabled.
  MOM disabled.
  Fractional occupation disabled.
  Guess Type is SAD.
  Energy threshold   = 1.00e-10
  Density threshold  = 1.00e-10
  Integral threshold = 0.00e+00

  ==> Primary Basis <==

  Basis Set: AUG-CC-PVTZ
    Blend: AUG-CC-PVTZ
    Number of shells: 226
    Number of basis function: 690
    Number of Cartesian functions: 805
    Spherical Harmonics?: true
    Max angular momentum: 3

   => Loading Basis Set <=

    Name: (AUG-CC-PVTZ AUX)
    Role: JKFIT
    Keyword: DF_BASIS_SCF
    atoms 1-2   entry N          line   224 file /home/xy3866/psi4conda/share/psi4/basis/aug-cc-pvtz-jkfit.gbs 
    atoms 3-11  entry C          line   162 file /home/xy3866/psi4conda/share/psi4/basis/aug-cc-pvtz-jkfit.gbs 
    atoms 12-19 entry H          line    70 file /home/xy3866/psi4conda/share/psi4/basis/aug-cc-pvtz-jkfit.gbs 

  ==> Pre-Iterations <==

   -------------------------------------------------------
    Irrep   Nso     Nmo     Nalpha   Nbeta   Ndocc  Nsocc
   -------------------------------------------------------
     A        690     690       0       0       0       0
   -------------------------------------------------------
    Total     690     690      38      38      38       0
   -------------------------------------------------------

  ==> Integral Setup <==

  DFHelper Memory: AOs need 5.126 GiB; user supplied 22.352 GiB. Using in-core AOs.

  ==> MemDFJK: Density-Fitted J/K Matrices <==

    J tasked:                   Yes
    K tasked:                   Yes
    wK tasked:                   No
    OpenMP threads:               8
    Memory [MiB]:             22888
    Algorithm:                 Disk
    Schwarz Cutoff:           1E-12
    Mask sparsity (%):       7.0565
    Fitting Condition:        1E-10

   => Auxiliary Basis Set <=

  Basis Set: (AUG-CC-PVTZ AUX)
    Blend: AUG-CC-PVTZ-JKFIT
    Number of shells: 442
    Number of basis function: 1512
    Number of Cartesian functions: 1881
    Spherical Harmonics?: true
    Max angular momentum: 4

  Minimum eigenvalue in the overlap matrix is 5.7061723295E-07.
  Using Symmetric Orthogonalization.

  SCF Guess: Superposition of Atomic Densities via on-the-fly atomic UHF.

  ==> Iterations <==

                           Total Energy        Delta E     RMS |[F,P]|

   @DF-RHF iter SAD:  -454.17021470687496   -4.54170e+02   0.00000e+00 
   @DF-RHF iter   1:  -454.22555642834419   -5.53417e-02   9.58918e-04 DIIS
   @DF-RHF iter   2:  -454.43894375139286   -2.13387e-01   4.58776e-04 DIIS
   @DF-RHF iter   3:  -454.48484651371467   -4.59028e-02   1.10451e-04 DIIS
   @DF-RHF iter   4:  -454.48807443202372   -3.22792e-03   5.71193e-05 DIIS
   @DF-RHF iter   5:  -454.48885269381884   -7.78262e-04   7.44607e-06 DIIS
   @DF-RHF iter   6:  -454.48888036150834   -2.76677e-05   3.35131e-06 DIIS
   @DF-RHF iter   7:  -454.48888610196673   -5.74046e-06   1.78091e-06 DIIS
   @DF-RHF iter   8:  -454.48888806964692   -1.96768e-06   6.85759e-07 DIIS
   @DF-RHF iter   9:  -454.48888861451138   -5.44864e-07   2.78637e-07 DIIS
   @DF-RHF iter  10:  -454.48888867526659   -6.07552e-08   7.17192e-08 DIIS
   @DF-RHF iter  11:  -454.48888867963484   -4.36825e-09   2.26307e-08 DIIS
   @DF-RHF iter  12:  -454.48888868002558   -3.90742e-10   1.25868e-08 DIIS
   @DF-RHF iter  13:  -454.48888868014598   -1.20394e-10   4.96123e-09 DIIS
   @DF-RHF iter  14:  -454.48888868017542   -2.94449e-11   2.11749e-09 DIIS
   @DF-RHF iter  15:  -454.48888868017946   -4.03588e-12   9.48642e-10 DIIS
   @DF-RHF iter  16:  -454.48888868018003   -5.68434e-13   3.06525e-10 DIIS
   @DF-RHF iter  17:  -454.48888868018156   -1.53477e-12   1.20086e-10 DIIS
   @DF-RHF iter  18:  -454.48888868017985    1.70530e-12   5.37048e-11 DIIS
  Energy and wave function converged.


  ==> Post-Iterations <==

    Orbital Energies [Eh]
    ---------------------

    Doubly Occupied:                                                      

       1A    -15.653231     2A    -15.588521     3A    -11.292191  
       4A    -11.279530     5A    -11.257689     6A    -11.248671  
       7A    -11.247317     8A    -11.246419     9A    -11.241721  
      10A    -11.241514    11A    -11.227802    12A     -1.391421  
      13A     -1.176156    14A     -1.109869    15A     -1.064422  
      16A     -1.024834    17A     -0.999502    18A     -0.861563  
      19A     -0.848939    20A     -0.799695    21A     -0.776863  
      22A     -0.742493    23A     -0.687395    24A     -0.650803  
      25A     -0.641354    26A     -0.617582    27A     -0.598172  
      28A     -0.596536    29A     -0.589330    30A     -0.563395  
      31A     -0.520959    32A     -0.511486    33A     -0.507244  
      34A     -0.459703    35A     -0.394329    36A     -0.349142  
      37A     -0.346167    38A     -0.313671  

    Virtual:                                                              

      39A      0.026135    40A      0.031053    41A      0.033817  
      42A      0.041214    43A      0.043396    44A      0.049821  
      45A      0.055484    46A      0.063633    47A      0.082978  
      48A      0.086156    49A      0.091782    50A      0.094335  
      51A      0.097195    52A      0.102010    53A      0.109452  
      54A      0.109918    55A      0.112408    56A      0.115759  
      57A      0.119823    58A      0.122137    59A      0.124579  
      60A      0.125397    61A      0.129431    62A      0.131718  
      63A      0.137409    64A      0.138745    65A      0.144885  
      66A      0.146846    67A      0.150894    68A      0.155815  
      69A      0.160793    70A      0.163146    71A      0.169577  
      72A      0.172974    73A      0.185000    74A      0.186396  
      75A      0.193419    76A      0.202985    77A      0.210432  
      78A      0.219716    79A      0.221698    80A      0.227111  
      81A      0.233300    82A      0.239366    83A      0.242658  
      84A      0.253268    85A      0.256151    86A      0.257970  
      87A      0.260775    88A      0.269601    89A      0.271365  
      90A      0.275781    91A      0.286494    92A      0.289351  
      93A      0.294451    94A      0.297810    95A      0.303875  
      96A      0.307740    97A      0.312376    98A      0.314713  
      99A      0.316355   100A      0.320629   101A      0.324907  
     102A      0.325949   103A      0.333031   104A      0.334763  
     105A      0.337518   106A      0.340282   107A      0.345967  
     108A      0.352915   109A      0.359400   110A      0.364858  
     111A      0.367242   112A      0.375251   113A      0.387620  
     114A      0.391534   115A      0.395687   116A      0.407171  
     117A      0.413218   118A      0.415968   119A      0.420585  
     120A      0.429160   121A      0.434181   122A      0.439557  
     123A      0.443529   124A      0.449482   125A      0.451000  
     126A      0.454388   127A      0.460346   128A      0.465012  
     129A      0.469759   130A      0.471087   131A      0.474522  
     132A      0.478285   133A      0.484105   134A      0.487162  
     135A      0.488646   136A      0.492004   137A      0.498624  
     138A      0.499590   139A      0.506596   140A      0.509888  
     141A      0.515429   142A      0.518740   143A      0.523604  
     144A      0.529023   145A      0.530172   146A      0.531597  
     147A      0.535486   148A      0.540827   149A      0.544230  
     150A      0.545539   151A      0.554367   152A      0.556786  
     153A      0.558378   154A      0.570070   155A      0.579980  
     156A      0.586735   157A      0.599161   158A      0.604895  
     159A      0.609083   160A      0.618694   161A      0.621828  
     162A      0.629893   163A      0.638741   164A      0.639771  
     165A      0.646738   166A      0.654150   167A      0.660590  
     168A      0.664396   169A      0.666230   170A      0.670722  
     171A      0.674277   172A      0.689390   173A      0.691678  
     174A      0.702082   175A      0.705337   176A      0.710465  
     177A      0.720095   178A      0.722666   179A      0.728214  
     180A      0.734066   181A      0.739156   182A      0.749128  
     183A      0.763723   184A      0.766830   185A      0.770054  
     186A      0.776144   187A      0.785408   188A      0.793072  
     189A      0.801949   190A      0.805612   191A      0.813201  
     192A      0.815310   193A      0.829652   194A      0.832453  
     195A      0.840506   196A      0.844290   197A      0.846243  
     198A      0.853977   199A      0.860991   200A      0.867111  
     201A      0.873761   202A      0.878821   203A      0.886102  
     204A      0.891122   205A      0.891512   206A      0.892791  
     207A      0.901964   208A      0.906067   209A      0.912926  
     210A      0.922005   211A      0.923351   212A      0.925960  
     213A      0.936292   214A      0.940970   215A      0.948462  
     216A      0.954700   217A      0.963427   218A      0.967545  
     219A      0.978874   220A      0.987139   221A      0.989504  
     222A      1.000210   223A      1.002218   224A      1.007982  
     225A      1.012245   226A      1.018057   227A      1.021139  
     228A      1.028250   229A      1.037776   230A      1.042617  
     231A      1.049347   232A      1.054120   233A      1.058153  
     234A      1.063208   235A      1.065533   236A      1.075167  
     237A      1.076503   238A      1.080110   239A      1.084309  
     240A      1.089697   241A      1.095119   242A      1.095902  
     243A      1.106229   244A      1.112187   245A      1.119455  
     246A      1.121340   247A      1.128998   248A      1.131557  
     249A      1.136308   250A      1.139096   251A      1.149240  
     252A      1.155997   253A      1.160852   254A      1.172764  
     255A      1.177071   256A      1.181726   257A      1.188236  
     258A      1.194851   259A      1.199811   260A      1.204252  
     261A      1.211035   262A      1.215237   263A      1.218192  
     264A      1.220298   265A      1.233185   266A      1.238274  
     267A      1.241113   268A      1.244500   269A      1.258599  
     270A      1.261133   271A      1.266880   272A      1.280488  
     273A      1.287374   274A      1.290128   275A      1.298781  
     276A      1.301177   277A      1.308161   278A      1.320686  
     279A      1.326366   280A      1.341348   281A      1.347160  
     282A      1.363966   283A      1.371461   284A      1.380634  
     285A      1.385562   286A      1.396643   287A      1.401361  
     288A      1.403749   289A      1.411911   290A      1.424396  
     291A      1.432706   292A      1.441496   293A      1.451047  
     294A      1.454752   295A      1.465272   296A      1.471035  
     297A      1.480203   298A      1.487791   299A      1.492929  
     300A      1.505660   301A      1.510418   302A      1.512231  
     303A      1.523692   304A      1.533761   305A      1.540936  
     306A      1.546230   307A      1.552508   308A      1.558716  
     309A      1.565910   310A      1.578303   311A      1.582514  
     312A      1.606211   313A      1.612534   314A      1.627304  
     315A      1.634566   316A      1.647034   317A      1.661721  
     318A      1.669288   319A      1.674710   320A      1.687050  
     321A      1.698537   322A      1.707492   323A      1.711299  
     324A      1.724022   325A      1.729666   326A      1.737263  
     327A      1.755212   328A      1.761749   329A      1.770126  
     330A      1.771200   331A      1.781718   332A      1.793944  
     333A      1.796353   334A      1.814190   335A      1.821515  
     336A      1.830060   337A      1.834973   338A      1.840453  
     339A      1.843816   340A      1.864476   341A      1.867374  
     342A      1.879623   343A      1.882462   344A      1.895928  
     345A      1.908056   346A      1.918820   347A      1.934759  
     348A      1.939980   349A      1.944082   350A      1.950961  
     351A      1.965642   352A      1.977364   353A      1.984542  
     354A      1.985089   355A      1.999131   356A      2.003287  
     357A      2.011714   358A      2.018958   359A      2.028523  
     360A      2.033013   361A      2.040461   362A      2.041049  
     363A      2.043794   364A      2.051007   365A      2.055238  
     366A      2.064028   367A      2.075821   368A      2.084927  
     369A      2.089183   370A      2.096121   371A      2.102581  
     372A      2.114449   373A      2.124942   374A      2.133588  
     375A      2.143909   376A      2.160003   377A      2.181175  
     378A      2.186846   379A      2.200212   380A      2.217644  
     381A      2.221666   382A      2.234949   383A      2.251314  
     384A      2.255237   385A      2.265202   386A      2.267562  
     387A      2.293776   388A      2.317674   389A      2.333245  
     390A      2.339981   391A      2.348126   392A      2.353554  
     393A      2.362682   394A      2.367831   395A      2.382969  
     396A      2.393451   397A      2.398231   398A      2.421036  
     399A      2.423405   400A      2.432146   401A      2.452569  
     402A      2.454172   403A      2.469472   404A      2.479300  
     405A      2.506740   406A      2.516931   407A      2.525487  
     408A      2.547171   409A      2.551054   410A      2.562984  
     411A      2.581853   412A      2.593134   413A      2.604221  
     414A      2.622195   415A      2.626032   416A      2.672887  
     417A      2.684237   418A      2.689936   419A      2.709462  
     420A      2.744879   421A      2.747693   422A      2.775509  
     423A      2.797487   424A      2.803986   425A      2.820716  
     426A      2.828330   427A      2.856517   428A      2.869245  
     429A      2.892851   430A      2.907496   431A      2.955328  
     432A      2.978266   433A      2.997735   434A      3.031554  
     435A      3.057645   436A      3.067361   437A      3.107942  
     438A      3.141183   439A      3.165073   440A      3.181873  
     441A      3.203035   442A      3.206196   443A      3.217246  
     444A      3.241513   445A      3.244009   446A      3.249032  
     447A      3.279794   448A      3.308788   449A      3.320031  
     450A      3.321494   451A      3.349154   452A      3.361120  
     453A      3.373363   454A      3.379530   455A      3.382016  
     456A      3.397989   457A      3.404603   458A      3.419313  
     459A      3.424624   460A      3.446725   461A      3.456641  
     462A      3.466184   463A      3.472976   464A      3.489834  
     465A      3.500659   466A      3.520456   467A      3.525726  
     468A      3.531714   469A      3.546426   470A      3.550741  
     471A      3.556509   472A      3.564518   473A      3.579814  
     474A      3.580537   475A      3.590079   476A      3.602611  
     477A      3.617044   478A      3.620123   479A      3.638669  
     480A      3.650474   481A      3.659530   482A      3.664754  
     483A      3.672799   484A      3.691605   485A      3.712258  
     486A      3.714748   487A      3.722355   488A      3.746206  
     489A      3.751602   490A      3.770030   491A      3.786089  
     492A      3.793361   493A      3.806071   494A      3.808722  
     495A      3.834274   496A      3.844081   497A      3.845391  
     498A      3.848321   499A      3.857676   500A      3.871274  
     501A      3.882136   502A      3.888031   503A      3.901753  
     504A      3.919824   505A      3.924383   506A      3.933884  
     507A      3.941013   508A      3.944216   509A      3.955772  
     510A      3.969639   511A      3.973233   512A      3.979271  
     513A      3.985933   514A      3.992831   515A      3.996118  
     516A      4.031902   517A      4.036977   518A      4.047237  
     519A      4.064178   520A      4.081209   521A      4.088413  
     522A      4.102840   523A      4.119902   524A      4.133758  
     525A      4.137592   526A      4.143774   527A      4.158836  
     528A      4.172178   529A      4.184388   530A      4.195384  
     531A      4.205438   532A      4.212659   533A      4.228459  
     534A      4.237363   535A      4.244543   536A      4.249154  
     537A      4.266046   538A      4.278175   539A      4.288563  
     540A      4.298439   541A      4.317960   542A      4.328414  
     543A      4.333799   544A      4.343852   545A      4.357681  
     546A      4.360457   547A      4.376477   548A      4.385599  
     549A      4.398743   550A      4.406762   551A      4.408974  
     552A      4.424421   553A      4.438311   554A      4.441180  
     555A      4.450751   556A      4.468876   557A      4.469797  
     558A      4.497262   559A      4.500283   560A      4.520268  
     561A      4.523814   562A      4.548307   563A      4.559908  
     564A      4.589072   565A      4.590974   566A      4.625109  
     567A      4.637860   568A      4.650347   569A      4.669748  
     570A      4.689999   571A      4.705101   572A      4.713407  
     573A      4.726896   574A      4.737345   575A      4.757908  
     576A      4.774000   577A      4.784926   578A      4.823691  
     579A      4.837940   580A      4.861314   581A      4.869380  
     582A      4.886956   583A      4.913382   584A      4.917626  
     585A      4.921342   586A      4.947082   587A      4.959943  
     588A      4.963860   589A      4.973700   590A      4.994977  
     591A      5.009161   592A      5.012436   593A      5.053914  
     594A      5.061481   595A      5.067404   596A      5.083246  
     597A      5.089407   598A      5.101726   599A      5.116629  
     600A      5.121982   601A      5.127670   602A      5.146426  
     603A      5.153376   604A      5.162769   605A      5.168500  
     606A      5.178162   607A      5.198059   608A      5.217629  
     609A      5.225549   610A      5.252409   611A      5.266878  
     612A      5.275938   613A      5.286660   614A      5.305896  
     615A      5.319526   616A      5.327995   617A      5.332737  
     618A      5.362824   619A      5.399476   620A      5.422203  
     621A      5.426059   622A      5.428277   623A      5.453916  
     624A      5.491649   625A      5.492911   626A      5.524140  
     627A      5.545214   628A      5.590572   629A      5.621035  
     630A      5.643211   631A      5.700728   632A      5.728297  
     633A      5.736192   634A      5.749691   635A      5.766520  
     636A      5.793988   637A      5.813569   638A      5.847290  
     639A      5.856240   640A      5.867782   641A      5.889493  
     642A      5.901236   643A      5.942418   644A      5.954205  
     645A      5.998186   646A      6.012222   647A      6.069018  
     648A      6.076755   649A      6.132337   650A      6.143104  
     651A      6.164284   652A      6.191731   653A      6.232055  
     654A      6.246083   655A      6.268225   656A      6.314582  
     657A      6.333787   658A      6.366198   659A      6.377087  
     660A      6.430082   661A      6.490327   662A      6.535476  
     663A      6.567110   664A      6.640360   665A      6.682012  
     666A      6.718533   667A      6.773341   668A      6.786669  
     669A      6.888126   670A      6.903922   671A      7.011234  
     672A      7.033970   673A      7.060231   674A      7.105590  
     675A      7.238994   676A      7.248522   677A      7.313350  
     678A      7.457457   679A      7.829026   680A     15.850107  
     681A     16.131438   682A     16.400120   683A     16.853240  
     684A     17.685555   685A     18.381975   686A     18.583293  
     687A     19.215798   688A     19.739019   689A     19.857910  
     690A     21.381721  

    Final Occupation by Irrep:
              A 
    DOCC [    38 ]

  @DF-RHF Final Energy:  -454.48888868017985

   => Energetics <=

    Nuclear Repulsion Energy =            547.0064990362844810
    One-Electron Energy =               -1699.6555180819877933
    Two-Electron Energy =                 698.1601303655235142
    Total Energy =                       -454.4888886801799117

Computation Completed

*** tstop() called on node37.bme.utexas.edu at Fri Feb  5 05:27:58 2021
Module time:
	user time   =     416.20 seconds =       6.94 minutes
	system time =      98.72 seconds =       1.65 minutes
	total time  =        132 seconds =       2.20 minutes
Total time:
	user time   =     416.20 seconds =       6.94 minutes
	system time =      98.72 seconds =       1.65 minutes
	total time  =        132 seconds =       2.20 minutes
   => Loading Basis Set <=

    Name: (AUG-CC-PVTZ AUX)
    Role: RIFIT
    Keyword: DF_BASIS_MP2
    atoms 1-2   entry N          line   206 file /home/xy3866/psi4conda/share/psi4/basis/aug-cc-pvtz-ri.gbs 
    atoms 3-11  entry C          line   148 file /home/xy3866/psi4conda/share/psi4/basis/aug-cc-pvtz-ri.gbs 
    atoms 12-19 entry H          line    30 file /home/xy3866/psi4conda/share/psi4/basis/aug-cc-pvtz-ri.gbs 


*** tstart() called on node37.bme.utexas.edu
*** at Fri Feb  5 05:27:58 2021


  //>>>>>>>>>>>>>>>>>>>>>>>>>>>>>>>>>>>//
  //               DFMP2               //
  //<<<<<<<<<<<<<<<<<<<<<<<<<<<<<<<<<<<//

	 --------------------------------------------------------
	                          DF-MP2                         
	      2nd-Order Density-Fitted Moller-Plesset Theory     
	              RMP2 Wavefunction,   8 Threads             
	                                                         
	        Rob Parrish, Justin Turney, Andy Simmonett,      
	           Ed Hohenstein, and C. David Sherrill          
	 --------------------------------------------------------

   => Auxiliary Basis Set <=

  Basis Set: (AUG-CC-PVTZ AUX)
    Blend: AUG-CC-PVTZ-RI
    Number of shells: 420
    Number of basis function: 1534
    Number of Cartesian functions: 1936
    Spherical Harmonics?: true
    Max angular momentum: 4

	 --------------------------------------------------------
	                 NBF =   690, NAUX =  1534
	 --------------------------------------------------------
	   CLASS    FOCC     OCC    AOCC    AVIR     VIR    FVIR
	   PAIRS       0      38      38     652     652       0
	 --------------------------------------------------------

  DFHelper Memory: AOs need 5.126 GiB; user supplied 22.352 GiB. Using in-core AOs.


         ------------------------------------------------------------
                                     CPHF                           
                                  Rob Parrish                       
         ------------------------------------------------------------

  ==> Geometry <==

    Molecular point group: c1
    Full point group: C1

    Geometry (in Angstrom), charge = 0, multiplicity = 1:

       Center              X                  Y                   Z               Mass       
    ------------   -----------------  -----------------  -----------------  -----------------
         N            0.997555964667     0.042586174692     0.004686818033    14.003074004430
         N            1.678971564667    -1.026360425308    -0.405748381967    14.003074004430
         C           -0.420737035333     0.025649174692    -0.004220181967    12.000000000000
         C           -1.126755035333     1.205985174692    -0.250174181967    12.000000000000
         C           -1.087287035333    -1.177252825308     0.242687818033    12.000000000000
         C            1.816946964667     1.060148174692     0.411037818033    12.000000000000
         C           -2.521610035333     1.181291174692    -0.226539181967    12.000000000000
         C           -2.481178035333    -1.189979825308     0.240882818033    12.000000000000
         C            3.113404964667     0.607627174692     0.241694818033    12.000000000000
         C           -3.201928035333    -0.013438825308     0.017895818033    12.000000000000
         C            2.977402964667    -0.695865825308    -0.264974181967    12.000000000000
         H           -0.593241035333     2.122732174692    -0.486262181967     1.007825032230
         H           -0.506972035333    -2.076873825308     0.419998818033     1.007825032230
         H            1.418208964667     1.980659174692     0.813270818033     1.007825032230
         H           -3.076059035333     2.096540174692    -0.418175181967     1.007825032230
         H           -3.006542035333    -2.122962825308     0.429013818033     1.007825032230
         H            4.023560964667     1.144720174692     0.469157818033     1.007825032230
         H           -4.288661035333    -0.029451825308     0.026004818033     1.007825032230
         H            3.748823964667    -1.402862825308    -0.541974181967     1.007825032230

  Nuclear repulsion =  547.006499036284481
  Reference energy  = -454.488888680179855

  ==> Basis Set <==

  Basis Set: AUG-CC-PVTZ
    Blend: AUG-CC-PVTZ
    Number of shells: 226
    Number of basis function: 690
    Number of Cartesian functions: 805
    Spherical Harmonics?: true
    Max angular momentum: 3

  ==> CGRSolver (by Rob Parrish) <==

   Number of roots    =         1
   Preconditioning    =    JACOBI
   Convergence cutoff =     1E-06
   Maximum iterations =       100

  ==> CPHFRHamiltonian (by Rob Parrish) <== 

  ==> MemDFJK: Density-Fitted J/K Matrices <==

    J tasked:                   Yes
    K tasked:                   Yes
    wK tasked:                   No
    OpenMP threads:               8
    Memory [MiB]:             22888
    Algorithm:                 Disk
    Schwarz Cutoff:           1E-12
    Mask sparsity (%):       7.0565
    Fitting Condition:        1E-10

   => Auxiliary Basis Set <=

  Basis Set: (AUG-CC-PVTZ AUX)
    Blend: AUG-CC-PVTZ-JKFIT
    Number of shells: 442
    Number of basis function: 1512
    Number of Cartesian functions: 1881
    Spherical Harmonics?: true
    Max angular momentum: 4

  ==> CPHF Iterations <==

  => Iterations <=

             Iter  Converged  Remaining    Residual
  CGR           1          0          1   8.403E-02
  CGR           2          0          1   3.252E-02
  CGR           3          0          1   2.018E-02
  CGR           4          0          1   7.637E-03
  CGR           5          0          1   2.330E-03
  CGR           6          0          1   1.202E-03
  CGR           7          0          1   5.634E-04
  CGR           8          0          1   2.250E-04
  CGR           9          0          1   9.262E-05
  CGR          10          0          1   2.522E-05
  CGR          11          0          1   9.484E-06
  CGR          12          0          1   3.548E-06
  CGR          13          0          1   1.409E-06
  CGR          14          1          0   5.570E-07

    CGRSolver converged.

	-----------------------------------------------------------
	 ==================> DF-MP2 Energies <==================== 
	-----------------------------------------------------------
	 Reference Energy          =    -454.4888886801798549 [Eh]
	 Singles Energy            =      -0.0000000000000000 [Eh]
	 Same-Spin Energy          =      -0.5096372592368433 [Eh]
	 Opposite-Spin Energy      =      -1.5472292177384555 [Eh]
	 Correlation Energy        =      -2.0568664769752987 [Eh]
	 Total Energy              =    -456.5457551571551562 [Eh]
	-----------------------------------------------------------
	 ================> DF-SCS-MP2 Energies <================== 
	-----------------------------------------------------------
	 SCS Same-Spin Scale       =       0.3333333333333333 [-]
	 SCS Opposite-Spin Scale   =       1.2000000000000000 [-]
	 SCS Same-Spin Energy      =      -0.1698790864122811 [Eh]
	 SCS Opposite-Spin Energy  =      -1.8566750612861465 [Eh]
	 SCS Correlation Energy    =      -2.0265541476984277 [Eh]
	 SCS Total Energy          =    -456.5154428278783030 [Eh]
	-----------------------------------------------------------



Properties will be evaluated at  -0.000000,   0.000000,  -0.000000 [a0]

Properties computed using the MP2 density matrix

  Nuclear Dipole Moment: [e a0]
     X:    -2.1460      Y:     1.6083      Z:     0.6677

  Electronic Dipole Moment: [e a0]
     X:     1.7827      Y:    -0.9754      Z:    -0.3820

  Dipole Moment: [e a0]
     X:    -0.3633      Y:     0.6328      Z:     0.2858     Total:     0.7837

  Dipole Moment: [D]
     X:    -0.9235      Y:     1.6085      Z:     0.7264     Total:     1.9919


*** tstop() called on node37.bme.utexas.edu at Fri Feb  5 05:32:45 2021
Module time:
	user time   =    1295.96 seconds =      21.60 minutes
	system time =     252.86 seconds =       4.21 minutes
	total time  =        287 seconds =       4.78 minutes
Total time:
	user time   =    1712.34 seconds =      28.54 minutes
	system time =     351.58 seconds =       5.86 minutes
	total time  =        419 seconds =       6.98 minutes

    Psi4 stopped on: Friday, 05 February 2021 05:32AM
    Psi4 wall time for execution: 0:06:58.84

*** Psi4 exiting successfully. Buy a developer a beer!
