
    -----------------------------------------------------------------------
          Psi4: An Open-Source Ab Initio Electronic Structure Package
                               Psi4 1.3.2 release

                         Git: Rev {HEAD} ecbda83 


    R. M. Parrish, L. A. Burns, D. G. A. Smith, A. C. Simmonett,
    A. E. DePrince III, E. G. Hohenstein, U. Bozkaya, A. Yu. Sokolov,
    R. Di Remigio, R. M. Richard, J. F. Gonthier, A. M. James,
    H. R. McAlexander, A. Kumar, M. Saitow, X. Wang, B. P. Pritchard,
    P. Verma, H. F. Schaefer III, K. Patkowski, R. A. King, E. F. Valeev,
    F. A. Evangelista, J. M. Turney, T. D. Crawford, and C. D. Sherrill,
    J. Chem. Theory Comput. 13(7) pp 3185--3197 (2017).
    (doi: 10.1021/acs.jctc.7b00174)


                         Additional Contributions by
    P. Kraus, H. Kruse, M. H. Lechner, M. C. Schieber, R. A. Shaw,
    A. Alenaizan, R. Galvelis, Z. L. Glick, S. Lehtola, and J. P. Misiewicz

    -----------------------------------------------------------------------


    Psi4 started on: Friday, 05 February 2021 07:39AM

    Process ID: 43011
    Host:       node37.bme.utexas.edu
    PSIDATADIR: /home/xy3866/psi4conda/share/psi4
    Memory:     500.0 MiB
    Threads:    8
    
  ==> Input File <==

--------------------------------------------------------------------------
#psi4
#
memory 32 gb

molecule  {
0 1
  N        1.0119030     0.0333230     0.0008060
  N        1.7200573    -1.0452770    -0.4135634
  C       -0.4063900     0.0163860    -0.0081010
  C       -1.1124080     1.1967220    -0.2540550
  C       -1.0729400    -1.1865160     0.2388070
  C        1.8312940     1.0508850     0.4071570
  C       -2.5072630     1.1720280    -0.2304200
  C       -2.4668310    -1.1992430     0.2370020
  C        3.1277520     0.5983640     0.2378140
  C       -3.1875810    -0.0227020     0.0140150
  C        2.9917500    -0.7051290    -0.2688550
  H       -0.5788940     2.1134690    -0.4901430
  H       -0.4926250    -2.0861370     0.4161180
  H        1.4325560     1.9713960     0.8093900
  H       -3.0617120     2.0872770    -0.4220560
  H       -2.9921950    -2.1322260     0.4251330
  H        4.0379080     1.1354570     0.4652770
  H       -4.2743140    -0.0387150     0.0221240
  H        3.7631710    -1.4121260    -0.5458550
units angstrom
no_reorient  #important for SAPT in psi4, default
symmetry c1  #important for SAPT in psi4, default
}

set PROPERTIES_ORIGIN ["COM"]
properties('MP2/aug-cc-pvtz', properties = ['dipole'])
--------------------------------------------------------------------------

  Memory set to  29.802 GiB by Python driver.
    SCF Algorithm Type (re)set to DF.

*** tstart() called on node37.bme.utexas.edu
*** at Fri Feb  5 07:39:12 2021

   => Loading Basis Set <=

    Name: AUG-CC-PVTZ
    Role: ORBITAL
    Keyword: BASIS
    atoms 1-2   entry N          line   281 file /home/xy3866/psi4conda/share/psi4/basis/aug-cc-pvtz.gbs 
    atoms 3-11  entry C          line   235 file /home/xy3866/psi4conda/share/psi4/basis/aug-cc-pvtz.gbs 
    atoms 12-19 entry H          line    36 file /home/xy3866/psi4conda/share/psi4/basis/aug-cc-pvtz.gbs 


         ---------------------------------------------------------
                                   SCF
               by Justin Turney, Rob Parrish, Andy Simmonett
                          and Daniel G. A. Smith
                              RHF Reference
                        8 Threads,  30517 MiB Core
         ---------------------------------------------------------

  ==> Geometry <==

    Molecular point group: c1
    Full point group: C1

    Geometry (in Angstrom), charge = 0, multiplicity = 1:

       Center              X                  Y                   Z               Mass       
    ------------   -----------------  -----------------  -----------------  -----------------
         N            0.994957038811     0.043524457812     0.005069211123    14.003074004430
         N            1.703111338811    -1.035075542188    -0.409300188877    14.003074004430
         C           -0.423335961189     0.026587457812    -0.003837788877    12.000000000000
         C           -1.129353961189     1.206923457812    -0.249791788877    12.000000000000
         C           -1.089885961189    -1.176314542188     0.243070211123    12.000000000000
         C            1.814348038811     1.061086457812     0.411420211123    12.000000000000
         C           -2.524208961189     1.182229457812    -0.226156788877    12.000000000000
         C           -2.483776961189    -1.189041542188     0.241265211123    12.000000000000
         C            3.110806038811     0.608565457812     0.242077211123    12.000000000000
         C           -3.204526961189    -0.012500542188     0.018278211123    12.000000000000
         C            2.974804038811    -0.694927542188    -0.264591788877    12.000000000000
         H           -0.595839961189     2.123670457812    -0.485879788877     1.007825032230
         H           -0.509570961189    -2.075935542188     0.420381211123     1.007825032230
         H            1.415610038811     1.981597457812     0.813653211123     1.007825032230
         H           -3.078657961189     2.097478457812    -0.417792788877     1.007825032230
         H           -3.009140961189    -2.122024542188     0.429396211123     1.007825032230
         H            4.020962038811     1.145658457812     0.469540211123     1.007825032230
         H           -4.291259961189    -0.028513542188     0.026387211123     1.007825032230
         H            3.746225038811    -1.401924542188    -0.541591788877     1.007825032230

  Running in c1 symmetry.

  Rotational constants: A =      0.11840  B =      0.02399  C =      0.02046 [cm^-1]
  Rotational constants: A =   3549.40696  B =    719.19067  C =    613.48620 [MHz]
  Nuclear repulsion =  546.645468474080076

  Charge       = 0
  Multiplicity = 1
  Electrons    = 76
  Nalpha       = 38
  Nbeta        = 38

  ==> Algorithm <==

  SCF Algorithm Type is DF.
  DIIS enabled.
  MOM disabled.
  Fractional occupation disabled.
  Guess Type is SAD.
  Energy threshold   = 1.00e-10
  Density threshold  = 1.00e-10
  Integral threshold = 0.00e+00

  ==> Primary Basis <==

  Basis Set: AUG-CC-PVTZ
    Blend: AUG-CC-PVTZ
    Number of shells: 226
    Number of basis function: 690
    Number of Cartesian functions: 805
    Spherical Harmonics?: true
    Max angular momentum: 3

   => Loading Basis Set <=

    Name: (AUG-CC-PVTZ AUX)
    Role: JKFIT
    Keyword: DF_BASIS_SCF
    atoms 1-2   entry N          line   224 file /home/xy3866/psi4conda/share/psi4/basis/aug-cc-pvtz-jkfit.gbs 
    atoms 3-11  entry C          line   162 file /home/xy3866/psi4conda/share/psi4/basis/aug-cc-pvtz-jkfit.gbs 
    atoms 12-19 entry H          line    70 file /home/xy3866/psi4conda/share/psi4/basis/aug-cc-pvtz-jkfit.gbs 

  ==> Pre-Iterations <==

   -------------------------------------------------------
    Irrep   Nso     Nmo     Nalpha   Nbeta   Ndocc  Nsocc
   -------------------------------------------------------
     A        690     690       0       0       0       0
   -------------------------------------------------------
    Total     690     690      38      38      38       0
   -------------------------------------------------------

  ==> Integral Setup <==

  DFHelper Memory: AOs need 5.125 GiB; user supplied 22.352 GiB. Using in-core AOs.

  ==> MemDFJK: Density-Fitted J/K Matrices <==

    J tasked:                   Yes
    K tasked:                   Yes
    wK tasked:                   No
    OpenMP threads:               8
    Memory [MiB]:             22888
    Algorithm:                 Disk
    Schwarz Cutoff:           1E-12
    Mask sparsity (%):       7.0762
    Fitting Condition:        1E-10

   => Auxiliary Basis Set <=

  Basis Set: (AUG-CC-PVTZ AUX)
    Blend: AUG-CC-PVTZ-JKFIT
    Number of shells: 442
    Number of basis function: 1512
    Number of Cartesian functions: 1881
    Spherical Harmonics?: true
    Max angular momentum: 4

  Minimum eigenvalue in the overlap matrix is 5.7090236326E-07.
  Using Symmetric Orthogonalization.

  SCF Guess: Superposition of Atomic Densities via on-the-fly atomic UHF.

  ==> Iterations <==

                           Total Energy        Delta E     RMS |[F,P]|

   @DF-RHF iter SAD:  -454.15684254492953   -4.54157e+02   0.00000e+00 
   @DF-RHF iter   1:  -454.22471870752332   -6.78762e-02   9.62980e-04 DIIS
   @DF-RHF iter   2:  -454.43881916783755   -2.14100e-01   4.64840e-04 DIIS
   @DF-RHF iter   3:  -454.48575816237229   -4.69390e-02   1.12691e-04 DIIS
   @DF-RHF iter   4:  -454.48910579913252   -3.34764e-03   5.82681e-05 DIIS
   @DF-RHF iter   5:  -454.48991817903811   -8.12380e-04   7.44987e-06 DIIS
   @DF-RHF iter   6:  -454.48994842103099   -3.02420e-05   3.53322e-06 DIIS
   @DF-RHF iter   7:  -454.48995513210514   -6.71107e-06   1.83705e-06 DIIS
   @DF-RHF iter   8:  -454.48995743475649   -2.30265e-06   7.29662e-07 DIIS
   @DF-RHF iter   9:  -454.48995803443222   -5.99676e-07   2.75543e-07 DIIS
   @DF-RHF iter  10:  -454.48995809310395   -5.86717e-08   7.63960e-08 DIIS
   @DF-RHF iter  11:  -454.48995809796179   -4.85784e-09   2.57219e-08 DIIS
   @DF-RHF iter  12:  -454.48995809851215   -5.50358e-10   1.43939e-08 DIIS
   @DF-RHF iter  13:  -454.48995809868813   -1.75987e-10   6.02129e-09 DIIS
   @DF-RHF iter  14:  -454.48995809873361   -4.54747e-11   2.43190e-09 DIIS
   @DF-RHF iter  15:  -454.48995809873975   -6.13909e-12   1.03060e-09 DIIS
   @DF-RHF iter  16:  -454.48995809874339   -3.63798e-12   3.18406e-10 DIIS
   @DF-RHF iter  17:  -454.48995809874265    7.38964e-13   1.09571e-10 DIIS
   @DF-RHF iter  18:  -454.48995809874327   -6.25278e-13   5.58259e-11 DIIS
  Energy and wave function converged.


  ==> Post-Iterations <==

    Orbital Energies [Eh]
    ---------------------

    Doubly Occupied:                                                      

       1A    -15.650335     2A    -15.587964     3A    -11.292271  
       4A    -11.281897     5A    -11.256964     6A    -11.248365  
       7A    -11.246860     8A    -11.246125     9A    -11.241137  
      10A    -11.240936    11A    -11.226644    12A     -1.384374  
      13A     -1.177456    14A     -1.114057    15A     -1.062149  
      16A     -1.024633    17A     -0.998781    18A     -0.860674  
      19A     -0.848578    20A     -0.798834    21A     -0.777050  
      22A     -0.742325    23A     -0.687013    24A     -0.649528  
      25A     -0.641040    26A     -0.615987    27A     -0.597955  
      28A     -0.595481    29A     -0.588899    30A     -0.564703  
      31A     -0.520538    32A     -0.511409    33A     -0.507113  
      34A     -0.459465    35A     -0.396816    36A     -0.350500  
      37A     -0.346666    38A     -0.313069  

    Virtual:                                                              

      39A      0.026143    40A      0.031066    41A      0.033803  
      42A      0.041149    43A      0.043428    44A      0.049811  
      45A      0.055484    46A      0.063664    47A      0.082977  
      48A      0.085868    49A      0.091838    50A      0.094465  
      51A      0.097303    52A      0.102121    53A      0.109576  
      54A      0.109878    55A      0.112420    56A      0.115681  
      57A      0.119930    58A      0.122135    59A      0.124627  
      60A      0.125380    61A      0.129424    62A      0.131675  
      63A      0.137444    64A      0.138777    65A      0.144904  
      66A      0.146860    67A      0.150996    68A      0.155738  
      69A      0.160851    70A      0.163271    71A      0.169717  
      72A      0.172940    73A      0.185095    74A      0.185980  
      75A      0.193374    76A      0.203168    77A      0.210981  
      78A      0.220368    79A      0.221715    80A      0.227854  
      81A      0.233272    82A      0.239409    83A      0.242404  
      84A      0.252737    85A      0.256162    86A      0.257997  
      87A      0.260373    88A      0.269506    89A      0.271336  
      90A      0.275709    91A      0.286526    92A      0.289335  
      93A      0.294382    94A      0.297982    95A      0.303891  
      96A      0.307415    97A      0.312474    98A      0.314805  
      99A      0.316101   100A      0.320690   101A      0.324982  
     102A      0.325974   103A      0.333020   104A      0.335011  
     105A      0.336517   106A      0.340050   107A      0.346041  
     108A      0.352686   109A      0.358940   110A      0.364803  
     111A      0.367338   112A      0.375216   113A      0.387078  
     114A      0.391644   115A      0.395335   116A      0.407073  
     117A      0.413002   118A      0.415460   119A      0.420566  
     120A      0.429039   121A      0.434084   122A      0.438646  
     123A      0.443712   124A      0.449681   125A      0.450576  
     126A      0.452692   127A      0.459990   128A      0.465159  
     129A      0.469964   130A      0.472329   131A      0.474671  
     132A      0.478825   133A      0.484255   134A      0.486795  
     135A      0.488562   136A      0.491671   137A      0.498304  
     138A      0.500085   139A      0.506526   140A      0.510013  
     141A      0.515388   142A      0.519253   143A      0.523644  
     144A      0.528710   145A      0.529963   146A      0.532136  
     147A      0.535828   148A      0.540702   149A      0.544178  
     150A      0.545916   151A      0.554439   152A      0.556558  
     153A      0.558588   154A      0.570917   155A      0.580260  
     156A      0.586286   157A      0.599415   158A      0.604843  
     159A      0.608464   160A      0.618841   161A      0.620839  
     162A      0.628856   163A      0.638993   164A      0.639486  
     165A      0.646580   166A      0.654581   167A      0.659995  
     168A      0.664150   169A      0.665855   170A      0.670814  
     171A      0.673819   172A      0.689232   173A      0.690724  
     174A      0.702155   175A      0.705765   176A      0.710886  
     177A      0.719257   178A      0.722399   179A      0.729190  
     180A      0.733956   181A      0.738956   182A      0.748923  
     183A      0.763644   184A      0.767937   185A      0.770388  
     186A      0.776928   187A      0.784805   188A      0.793579  
     189A      0.801457   190A      0.804617   191A      0.813016  
     192A      0.815302   193A      0.829700   194A      0.832393  
     195A      0.840343   196A      0.843766   197A      0.845941  
     198A      0.854637   199A      0.860810   200A      0.867104  
     201A      0.873919   202A      0.878713   203A      0.886332  
     204A      0.890568   205A      0.891415   206A      0.892827  
     207A      0.902325   208A      0.905754   209A      0.913425  
     210A      0.921982   211A      0.923524   212A      0.926853  
     213A      0.935816   214A      0.940762   215A      0.947916  
     216A      0.954751   217A      0.963610   218A      0.967770  
     219A      0.978487   220A      0.986043   221A      0.989389  
     222A      1.000679   223A      1.002342   224A      1.008442  
     225A      1.012155   226A      1.017742   227A      1.021374  
     228A      1.028680   229A      1.038196   230A      1.042516  
     231A      1.049292   232A      1.054525   233A      1.058172  
     234A      1.063077   235A      1.066086   236A      1.075060  
     237A      1.076557   238A      1.080067   239A      1.084271  
     240A      1.089192   241A      1.095219   242A      1.095875  
     243A      1.106441   244A      1.112138   245A      1.119136  
     246A      1.120950   247A      1.128946   248A      1.132222  
     249A      1.136407   250A      1.139395   251A      1.149423  
     252A      1.155790   253A      1.160611   254A      1.172722  
     255A      1.177044   256A      1.181764   257A      1.188227  
     258A      1.195060   259A      1.200025   260A      1.204215  
     261A      1.211006   262A      1.215423   263A      1.218752  
     264A      1.220226   265A      1.233133   266A      1.238259  
     267A      1.241221   268A      1.244202   269A      1.258488  
     270A      1.260550   271A      1.266246   272A      1.280389  
     273A      1.286539   274A      1.289762   275A      1.298123  
     276A      1.301634   277A      1.307921   278A      1.320292  
     279A      1.327049   280A      1.341293   281A      1.346708  
     282A      1.363459   283A      1.371194   284A      1.380068  
     285A      1.385599   286A      1.396381   287A      1.401128  
     288A      1.404305   289A      1.411333   290A      1.424029  
     291A      1.432163   292A      1.441815   293A      1.450744  
     294A      1.455056   295A      1.464874   296A      1.470944  
     297A      1.478002   298A      1.488253   299A      1.493902  
     300A      1.506314   301A      1.510392   302A      1.512062  
     303A      1.521666   304A      1.532635   305A      1.540986  
     306A      1.546091   307A      1.552470   308A      1.559118  
     309A      1.565699   310A      1.577805   311A      1.582843  
     312A      1.607571   313A      1.612867   314A      1.628381  
     315A      1.637112   316A      1.646311   317A      1.660743  
     318A      1.668690   319A      1.674309   320A      1.687142  
     321A      1.698916   322A      1.707808   323A      1.711483  
     324A      1.724015   325A      1.729872   326A      1.737418  
     327A      1.755904   328A      1.762241   329A      1.769715  
     330A      1.772122   331A      1.781948   332A      1.793540  
     333A      1.796386   334A      1.815086   335A      1.820981  
     336A      1.830253   337A      1.835430   338A      1.840011  
     339A      1.844055   340A      1.864115   341A      1.867042  
     342A      1.879343   343A      1.881954   344A      1.895470  
     345A      1.907650   346A      1.919203   347A      1.934935  
     348A      1.940363   349A      1.943253   350A      1.950707  
     351A      1.966862   352A      1.976787   353A      1.983947  
     354A      1.984390   355A      1.999118   356A      2.003128  
     357A      2.011612   358A      2.019344   359A      2.028786  
     360A      2.034136   361A      2.040149   362A      2.040843  
     363A      2.044263   364A      2.051032   365A      2.055384  
     366A      2.064178   367A      2.075381   368A      2.084702  
     369A      2.088199   370A      2.096135   371A      2.102147  
     372A      2.115195   373A      2.125702   374A      2.134063  
     375A      2.143344   376A      2.159645   377A      2.180508  
     378A      2.185187   379A      2.200349   380A      2.218039  
     381A      2.221167   382A      2.233666   383A      2.251437  
     384A      2.254784   385A      2.265004   386A      2.266416  
     387A      2.293731   388A      2.317882   389A      2.333366  
     390A      2.340599   391A      2.348053   392A      2.353287  
     393A      2.363789   394A      2.367678   395A      2.382349  
     396A      2.393955   397A      2.398677   398A      2.420819  
     399A      2.424095   400A      2.433419   401A      2.452348  
     402A      2.454582   403A      2.471497   404A      2.478181  
     405A      2.508117   406A      2.514940   407A      2.524281  
     408A      2.541811   409A      2.549506   410A      2.563556  
     411A      2.580230   412A      2.593484   413A      2.602277  
     414A      2.619375   415A      2.622360   416A      2.671196  
     417A      2.683189   418A      2.687732   419A      2.707693  
     420A      2.742895   421A      2.748364   422A      2.775453  
     423A      2.796497   424A      2.804886   425A      2.819461  
     426A      2.827454   427A      2.862128   428A      2.869634  
     429A      2.891184   430A      2.910361   431A      2.955080  
     432A      2.972189   433A      2.999089   434A      3.037145  
     435A      3.053059   436A      3.068206   437A      3.102756  
     438A      3.142726   439A      3.165776   440A      3.181677  
     441A      3.201574   442A      3.204792   443A      3.216872  
     444A      3.240005   445A      3.243973   446A      3.248573  
     447A      3.280738   448A      3.308390   449A      3.320911  
     450A      3.322340   451A      3.350273   452A      3.360344  
     453A      3.373878   454A      3.377652   455A      3.382616  
     456A      3.396799   457A      3.400542   458A      3.416971  
     459A      3.422248   460A      3.447201   461A      3.456287  
     462A      3.465782   463A      3.474492   464A      3.491227  
     465A      3.500593   466A      3.519575   467A      3.525972  
     468A      3.531750   469A      3.545788   470A      3.550325  
     471A      3.556284   472A      3.564649   473A      3.577985  
     474A      3.581380   475A      3.588521   476A      3.599188  
     477A      3.617734   478A      3.619971   479A      3.636283  
     480A      3.650210   481A      3.660521   482A      3.665692  
     483A      3.672082   484A      3.689633   485A      3.709924  
     486A      3.714654   487A      3.721181   488A      3.745758  
     489A      3.750875   490A      3.769274   491A      3.783605  
     492A      3.792550   493A      3.804014   494A      3.807983  
     495A      3.833447   496A      3.844467   497A      3.846539  
     498A      3.848065   499A      3.857662   500A      3.870931  
     501A      3.881457   502A      3.887043   503A      3.901379  
     504A      3.919839   505A      3.924257   506A      3.932490  
     507A      3.941009   508A      3.943719   509A      3.955628  
     510A      3.968975   511A      3.973401   512A      3.978840  
     513A      3.985821   514A      3.993562   515A      3.998393  
     516A      4.032096   517A      4.037275   518A      4.046189  
     519A      4.066101   520A      4.081076   521A      4.089393  
     522A      4.102587   523A      4.120438   524A      4.134533  
     525A      4.139704   526A      4.144807   527A      4.163351  
     528A      4.172477   529A      4.183958   530A      4.195317  
     531A      4.205199   532A      4.212840   533A      4.228062  
     534A      4.236718   535A      4.245020   536A      4.246996  
     537A      4.265776   538A      4.278383   539A      4.287631  
     540A      4.299307   541A      4.315416   542A      4.330016  
     543A      4.330652   544A      4.342876   545A      4.354349  
     546A      4.360591   547A      4.376866   548A      4.384856  
     549A      4.398847   550A      4.410113   551A      4.411030  
     552A      4.428369   553A      4.438408   554A      4.441740  
     555A      4.451099   556A      4.467026   557A      4.471281  
     558A      4.496892   559A      4.500218   560A      4.521076  
     561A      4.527306   562A      4.549606   563A      4.558505  
     564A      4.587987   565A      4.593102   566A      4.625843  
     567A      4.637534   568A      4.649101   569A      4.669612  
     570A      4.691146   571A      4.707152   572A      4.713805  
     573A      4.727036   574A      4.736684   575A      4.759214  
     576A      4.775560   577A      4.785892   578A      4.829360  
     579A      4.839351   580A      4.863317   581A      4.870399  
     582A      4.887740   583A      4.913541   584A      4.920801  
     585A      4.922458   586A      4.946336   587A      4.961001  
     588A      4.963285   589A      4.974071   590A      4.996193  
     591A      5.009187   592A      5.012005   593A      5.054431  
     594A      5.062472   595A      5.066359   596A      5.084402  
     597A      5.090133   598A      5.101222   599A      5.114784  
     600A      5.121161   601A      5.128496   602A      5.146692  
     603A      5.150093   604A      5.162829   605A      5.168445  
     606A      5.174016   607A      5.197867   608A      5.212029  
     609A      5.224942   610A      5.253071   611A      5.266710  
     612A      5.274252   613A      5.290428   614A      5.306796  
     615A      5.317925   616A      5.329140   617A      5.333299  
     618A      5.364867   619A      5.401194   620A      5.423167  
     621A      5.425500   622A      5.428081   623A      5.451900  
     624A      5.493379   625A      5.499994   626A      5.528438  
     627A      5.542223   628A      5.591386   629A      5.622503  
     630A      5.644844   631A      5.712102   632A      5.730714  
     633A      5.738392   634A      5.750578   635A      5.766534  
     636A      5.796970   637A      5.808340   638A      5.847418  
     639A      5.857743   640A      5.868124   641A      5.888897  
     642A      5.903687   643A      5.940504   644A      5.951653  
     645A      5.996868   646A      6.009077   647A      6.070245  
     648A      6.081831   649A      6.132237   650A      6.140936  
     651A      6.164290   652A      6.190419   653A      6.218059  
     654A      6.238142   655A      6.258828   656A      6.313745  
     657A      6.332772   658A      6.363836   659A      6.378519  
     660A      6.429256   661A      6.491231   662A      6.535201  
     663A      6.565059   664A      6.636907   665A      6.689754  
     666A      6.713973   667A      6.776768   668A      6.783579  
     669A      6.888902   670A      6.906028   671A      7.012053  
     672A      7.024460   673A      7.049347   674A      7.093317  
     675A      7.238406   676A      7.249622   677A      7.312065  
     678A      7.454286   679A      7.812710   680A     15.875912  
     681A     16.126159   682A     16.417324   683A     16.873911  
     684A     17.686097   685A     18.420007   686A     18.621604  
     687A     19.215408   688A     19.732052   689A     19.856358  
     690A     21.291778  

    Final Occupation by Irrep:
              A 
    DOCC [    38 ]

  @DF-RHF Final Energy:  -454.48995809874327

   => Energetics <=

    Nuclear Repulsion Energy =            546.6454684740800758
    One-Electron Energy =               -1698.9616735746899394
    Two-Electron Energy =                 697.8262470018664771
    Total Energy =                       -454.4899580987432728

Computation Completed

*** tstop() called on node37.bme.utexas.edu at Fri Feb  5 07:41:18 2021
Module time:
	user time   =     398.91 seconds =       6.65 minutes
	system time =      97.69 seconds =       1.63 minutes
	total time  =        126 seconds =       2.10 minutes
Total time:
	user time   =     398.91 seconds =       6.65 minutes
	system time =      97.69 seconds =       1.63 minutes
	total time  =        126 seconds =       2.10 minutes
   => Loading Basis Set <=

    Name: (AUG-CC-PVTZ AUX)
    Role: RIFIT
    Keyword: DF_BASIS_MP2
    atoms 1-2   entry N          line   206 file /home/xy3866/psi4conda/share/psi4/basis/aug-cc-pvtz-ri.gbs 
    atoms 3-11  entry C          line   148 file /home/xy3866/psi4conda/share/psi4/basis/aug-cc-pvtz-ri.gbs 
    atoms 12-19 entry H          line    30 file /home/xy3866/psi4conda/share/psi4/basis/aug-cc-pvtz-ri.gbs 


*** tstart() called on node37.bme.utexas.edu
*** at Fri Feb  5 07:41:18 2021


  //>>>>>>>>>>>>>>>>>>>>>>>>>>>>>>>>>>>//
  //               DFMP2               //
  //<<<<<<<<<<<<<<<<<<<<<<<<<<<<<<<<<<<//

	 --------------------------------------------------------
	                          DF-MP2                         
	      2nd-Order Density-Fitted Moller-Plesset Theory     
	              RMP2 Wavefunction,   8 Threads             
	                                                         
	        Rob Parrish, Justin Turney, Andy Simmonett,      
	           Ed Hohenstein, and C. David Sherrill          
	 --------------------------------------------------------

   => Auxiliary Basis Set <=

  Basis Set: (AUG-CC-PVTZ AUX)
    Blend: AUG-CC-PVTZ-RI
    Number of shells: 420
    Number of basis function: 1534
    Number of Cartesian functions: 1936
    Spherical Harmonics?: true
    Max angular momentum: 4

	 --------------------------------------------------------
	                 NBF =   690, NAUX =  1534
	 --------------------------------------------------------
	   CLASS    FOCC     OCC    AOCC    AVIR     VIR    FVIR
	   PAIRS       0      38      38     652     652       0
	 --------------------------------------------------------

  DFHelper Memory: AOs need 5.125 GiB; user supplied 22.352 GiB. Using in-core AOs.


         ------------------------------------------------------------
                                     CPHF                           
                                  Rob Parrish                       
         ------------------------------------------------------------

  ==> Geometry <==

    Molecular point group: c1
    Full point group: C1

    Geometry (in Angstrom), charge = 0, multiplicity = 1:

       Center              X                  Y                   Z               Mass       
    ------------   -----------------  -----------------  -----------------  -----------------
         N            0.994957038811     0.043524457812     0.005069211123    14.003074004430
         N            1.703111338811    -1.035075542188    -0.409300188877    14.003074004430
         C           -0.423335961189     0.026587457812    -0.003837788877    12.000000000000
         C           -1.129353961189     1.206923457812    -0.249791788877    12.000000000000
         C           -1.089885961189    -1.176314542188     0.243070211123    12.000000000000
         C            1.814348038811     1.061086457812     0.411420211123    12.000000000000
         C           -2.524208961189     1.182229457812    -0.226156788877    12.000000000000
         C           -2.483776961189    -1.189041542188     0.241265211123    12.000000000000
         C            3.110806038811     0.608565457812     0.242077211123    12.000000000000
         C           -3.204526961189    -0.012500542188     0.018278211123    12.000000000000
         C            2.974804038811    -0.694927542188    -0.264591788877    12.000000000000
         H           -0.595839961189     2.123670457812    -0.485879788877     1.007825032230
         H           -0.509570961189    -2.075935542188     0.420381211123     1.007825032230
         H            1.415610038811     1.981597457812     0.813653211123     1.007825032230
         H           -3.078657961189     2.097478457812    -0.417792788877     1.007825032230
         H           -3.009140961189    -2.122024542188     0.429396211123     1.007825032230
         H            4.020962038811     1.145658457812     0.469540211123     1.007825032230
         H           -4.291259961189    -0.028513542188     0.026387211123     1.007825032230
         H            3.746225038811    -1.401924542188    -0.541591788877     1.007825032230

  Nuclear repulsion =  546.645468474080076
  Reference energy  = -454.489958098743273

  ==> Basis Set <==

  Basis Set: AUG-CC-PVTZ
    Blend: AUG-CC-PVTZ
    Number of shells: 226
    Number of basis function: 690
    Number of Cartesian functions: 805
    Spherical Harmonics?: true
    Max angular momentum: 3

  ==> CGRSolver (by Rob Parrish) <==

   Number of roots    =         1
   Preconditioning    =    JACOBI
   Convergence cutoff =     1E-06
   Maximum iterations =       100

  ==> CPHFRHamiltonian (by Rob Parrish) <== 

  ==> MemDFJK: Density-Fitted J/K Matrices <==

    J tasked:                   Yes
    K tasked:                   Yes
    wK tasked:                   No
    OpenMP threads:               8
    Memory [MiB]:             22888
    Algorithm:                 Disk
    Schwarz Cutoff:           1E-12
    Mask sparsity (%):       7.0762
    Fitting Condition:        1E-10

   => Auxiliary Basis Set <=

  Basis Set: (AUG-CC-PVTZ AUX)
    Blend: AUG-CC-PVTZ-JKFIT
    Number of shells: 442
    Number of basis function: 1512
    Number of Cartesian functions: 1881
    Spherical Harmonics?: true
    Max angular momentum: 4

  ==> CPHF Iterations <==

  => Iterations <=

             Iter  Converged  Remaining    Residual
  CGR           1          0          1   8.798E-02
  CGR           2          0          1   3.591E-02
  CGR           3          0          1   2.145E-02
  CGR           4          0          1   7.687E-03
  CGR           5          0          1   2.400E-03
  CGR           6          0          1   1.300E-03
  CGR           7          0          1   6.072E-04
  CGR           8          0          1   2.358E-04
  CGR           9          0          1   9.546E-05
  CGR          10          0          1   2.552E-05
  CGR          11          0          1   9.673E-06
  CGR          12          0          1   3.555E-06
  CGR          13          0          1   1.427E-06
  CGR          14          1          0   5.724E-07

    CGRSolver converged.

	-----------------------------------------------------------
	 ==================> DF-MP2 Energies <==================== 
	-----------------------------------------------------------
	 Reference Energy          =    -454.4899580987432728 [Eh]
	 Singles Energy            =      -0.0000000000000000 [Eh]
	 Same-Spin Energy          =      -0.5089803488059281 [Eh]
	 Opposite-Spin Energy      =      -1.5465246010225298 [Eh]
	 Correlation Energy        =      -2.0555049498284577 [Eh]
	 Total Energy              =    -456.5454630485717189 [Eh]
	-----------------------------------------------------------
	 ================> DF-SCS-MP2 Energies <================== 
	-----------------------------------------------------------
	 SCS Same-Spin Scale       =       0.3333333333333333 [-]
	 SCS Opposite-Spin Scale   =       1.2000000000000000 [-]
	 SCS Same-Spin Energy      =      -0.1696601162686427 [Eh]
	 SCS Opposite-Spin Energy  =      -1.8558295212270357 [Eh]
	 SCS Correlation Energy    =      -2.0254896374956783 [Eh]
	 SCS Total Energy          =    -456.5154477362389684 [Eh]
	-----------------------------------------------------------



Properties will be evaluated at  -0.000000,  -0.000000,   0.000000 [a0]

Properties computed using the MP2 density matrix

  Nuclear Dipole Moment: [e a0]
     X:    -2.1656      Y:     1.6153      Z:     0.6706

  Electronic Dipole Moment: [e a0]
     X:     1.8108      Y:    -0.9850      Z:    -0.3858

  Dipole Moment: [e a0]
     X:    -0.3548      Y:     0.6303      Z:     0.2848     Total:     0.7773

  Dipole Moment: [D]
     X:    -0.9017      Y:     1.6021      Z:     0.7239     Total:     1.9758


*** tstop() called on node37.bme.utexas.edu at Fri Feb  5 07:45:35 2021
Module time:
	user time   =    1238.88 seconds =      20.65 minutes
	system time =     134.95 seconds =       2.25 minutes
	total time  =        257 seconds =       4.28 minutes
Total time:
	user time   =    1637.97 seconds =      27.30 minutes
	system time =     232.64 seconds =       3.88 minutes
	total time  =        383 seconds =       6.38 minutes

    Psi4 stopped on: Friday, 05 February 2021 07:45AM
    Psi4 wall time for execution: 0:06:23.19

*** Psi4 exiting successfully. Buy a developer a beer!
