
    -----------------------------------------------------------------------
          Psi4: An Open-Source Ab Initio Electronic Structure Package
                               Psi4 1.3.2 release

                         Git: Rev {HEAD} ecbda83 


    R. M. Parrish, L. A. Burns, D. G. A. Smith, A. C. Simmonett,
    A. E. DePrince III, E. G. Hohenstein, U. Bozkaya, A. Yu. Sokolov,
    R. Di Remigio, R. M. Richard, J. F. Gonthier, A. M. James,
    H. R. McAlexander, A. Kumar, M. Saitow, X. Wang, B. P. Pritchard,
    P. Verma, H. F. Schaefer III, K. Patkowski, R. A. King, E. F. Valeev,
    F. A. Evangelista, J. M. Turney, T. D. Crawford, and C. D. Sherrill,
    J. Chem. Theory Comput. 13(7) pp 3185--3197 (2017).
    (doi: 10.1021/acs.jctc.7b00174)


                         Additional Contributions by
    P. Kraus, H. Kruse, M. H. Lechner, M. C. Schieber, R. A. Shaw,
    A. Alenaizan, R. Galvelis, Z. L. Glick, S. Lehtola, and J. P. Misiewicz

    -----------------------------------------------------------------------


    Psi4 started on: Friday, 05 February 2021 07:12AM

    Process ID: 41779
    Host:       node37.bme.utexas.edu
    PSIDATADIR: /home/xy3866/psi4conda/share/psi4
    Memory:     500.0 MiB
    Threads:    8
    
  ==> Input File <==

--------------------------------------------------------------------------
#psi4
#
memory 32 gb

molecule  {
0 1
  N        1.0119030     0.0333230     0.0008060
  N        1.6793011    -1.0676590    -0.4222551
  C       -0.4063900     0.0163860    -0.0081010
  C       -1.1124080     1.1967220    -0.2540550
  C       -1.0729400    -1.1865160     0.2388070
  C        1.8312940     1.0508850     0.4071570
  C       -2.5072630     1.1720280    -0.2304200
  C       -2.4668310    -1.1992430     0.2370020
  C        3.1277520     0.5983640     0.2378140
  C       -3.1875810    -0.0227020     0.0140150
  C        2.9917500    -0.7051290    -0.2688550
  H       -0.5788940     2.1134690    -0.4901430
  H       -0.4926250    -2.0861370     0.4161180
  H        1.4325560     1.9713960     0.8093900
  H       -3.0617120     2.0872770    -0.4220560
  H       -2.9921950    -2.1322260     0.4251330
  H        4.0379080     1.1354570     0.4652770
  H       -4.2743140    -0.0387150     0.0221240
  H        3.7631710    -1.4121260    -0.5458550
units angstrom
no_reorient  #important for SAPT in psi4, default
symmetry c1  #important for SAPT in psi4, default
}

set PROPERTIES_ORIGIN ["COM"]
properties('MP2/aug-cc-pvtz', properties = ['dipole'])
--------------------------------------------------------------------------

  Memory set to  29.802 GiB by Python driver.
    SCF Algorithm Type (re)set to DF.

*** tstart() called on node37.bme.utexas.edu
*** at Fri Feb  5 07:12:48 2021

   => Loading Basis Set <=

    Name: AUG-CC-PVTZ
    Role: ORBITAL
    Keyword: BASIS
    atoms 1-2   entry N          line   281 file /home/xy3866/psi4conda/share/psi4/basis/aug-cc-pvtz.gbs 
    atoms 3-11  entry C          line   235 file /home/xy3866/psi4conda/share/psi4/basis/aug-cc-pvtz.gbs 
    atoms 12-19 entry H          line    36 file /home/xy3866/psi4conda/share/psi4/basis/aug-cc-pvtz.gbs 


         ---------------------------------------------------------
                                   SCF
               by Justin Turney, Rob Parrish, Andy Simmonett
                          and Daniel G. A. Smith
                              RHF Reference
                        8 Threads,  30517 MiB Core
         ---------------------------------------------------------

  ==> Geometry <==

    Molecular point group: c1
    Full point group: C1

    Geometry (in Angstrom), charge = 0, multiplicity = 1:

       Center              X                  Y                   Z               Mass       
    ------------   -----------------  -----------------  -----------------  -----------------
         N            0.998918425938     0.045699924775     0.005914019728    14.003074004430
         N            1.666316525938    -1.055282075225    -0.417147080272    14.003074004430
         C           -0.419374574062     0.028762924775    -0.002992980272    12.000000000000
         C           -1.125392574062     1.209098924775    -0.248946980272    12.000000000000
         C           -1.085924574062    -1.174139075225     0.243915019728    12.000000000000
         C            1.818309425938     1.063261924775     0.412265019728    12.000000000000
         C           -2.520247574062     1.184404924775    -0.225311980272    12.000000000000
         C           -2.479815574062    -1.186866075225     0.242110019728    12.000000000000
         C            3.114767425938     0.610740924775     0.242922019728    12.000000000000
         C           -3.200565574062    -0.010325075225     0.019123019728    12.000000000000
         C            2.978765425938    -0.692752075225    -0.263746980272    12.000000000000
         H           -0.591878574062     2.125845924775    -0.485034980272     1.007825032230
         H           -0.505609574062    -2.073760075225     0.421226019728     1.007825032230
         H            1.419571425938     1.983772924775     0.814498019728     1.007825032230
         H           -3.074696574062     2.099653924775    -0.416947980272     1.007825032230
         H           -3.005179574062    -2.119849075225     0.430241019728     1.007825032230
         H            4.024923425938     1.147833924775     0.470385019728     1.007825032230
         H           -4.287298574062    -0.026338075225     0.027232019728     1.007825032230
         H            3.750186425938    -1.399749075225    -0.540746980272     1.007825032230

  Running in c1 symmetry.

  Rotational constants: A =      0.11777  B =      0.02405  C =      0.02050 [cm^-1]
  Rotational constants: A =   3530.65369  B =    721.06451  C =    614.42944 [MHz]
  Nuclear repulsion =  546.099057122158797

  Charge       = 0
  Multiplicity = 1
  Electrons    = 76
  Nalpha       = 38
  Nbeta        = 38

  ==> Algorithm <==

  SCF Algorithm Type is DF.
  DIIS enabled.
  MOM disabled.
  Fractional occupation disabled.
  Guess Type is SAD.
  Energy threshold   = 1.00e-10
  Density threshold  = 1.00e-10
  Integral threshold = 0.00e+00

  ==> Primary Basis <==

  Basis Set: AUG-CC-PVTZ
    Blend: AUG-CC-PVTZ
    Number of shells: 226
    Number of basis function: 690
    Number of Cartesian functions: 805
    Spherical Harmonics?: true
    Max angular momentum: 3

   => Loading Basis Set <=

    Name: (AUG-CC-PVTZ AUX)
    Role: JKFIT
    Keyword: DF_BASIS_SCF
    atoms 1-2   entry N          line   224 file /home/xy3866/psi4conda/share/psi4/basis/aug-cc-pvtz-jkfit.gbs 
    atoms 3-11  entry C          line   162 file /home/xy3866/psi4conda/share/psi4/basis/aug-cc-pvtz-jkfit.gbs 
    atoms 12-19 entry H          line    70 file /home/xy3866/psi4conda/share/psi4/basis/aug-cc-pvtz-jkfit.gbs 

  ==> Pre-Iterations <==

   -------------------------------------------------------
    Irrep   Nso     Nmo     Nalpha   Nbeta   Ndocc  Nsocc
   -------------------------------------------------------
     A        690     690       0       0       0       0
   -------------------------------------------------------
    Total     690     690      38      38      38       0
   -------------------------------------------------------

  ==> Integral Setup <==

  DFHelper Memory: AOs need 5.126 GiB; user supplied 22.352 GiB. Using in-core AOs.

  ==> MemDFJK: Density-Fitted J/K Matrices <==

    J tasked:                   Yes
    K tasked:                   Yes
    wK tasked:                   No
    OpenMP threads:               8
    Memory [MiB]:             22888
    Algorithm:                 Disk
    Schwarz Cutoff:           1E-12
    Mask sparsity (%):       7.0611
    Fitting Condition:        1E-10

   => Auxiliary Basis Set <=

  Basis Set: (AUG-CC-PVTZ AUX)
    Blend: AUG-CC-PVTZ-JKFIT
    Number of shells: 442
    Number of basis function: 1512
    Number of Cartesian functions: 1881
    Spherical Harmonics?: true
    Max angular momentum: 4

  Minimum eigenvalue in the overlap matrix is 5.7078869830E-07.
  Using Symmetric Orthogonalization.

  SCF Guess: Superposition of Atomic Densities via on-the-fly atomic UHF.

  ==> Iterations <==

                           Total Energy        Delta E     RMS |[F,P]|

   @DF-RHF iter SAD:  -454.08002236247603   -4.54080e+02   0.00000e+00 
   @DF-RHF iter   1:  -454.22402401944214   -1.44002e-01   9.52613e-04 DIIS
   @DF-RHF iter   2:  -454.43592567076917   -2.11902e-01   4.53208e-04 DIIS
   @DF-RHF iter   3:  -454.48098862158093   -4.50630e-02   1.10567e-04 DIIS
   @DF-RHF iter   4:  -454.48420602241276   -3.21740e-03   5.73203e-05 DIIS
   @DF-RHF iter   5:  -454.48498702587364   -7.81003e-04   7.29967e-06 DIIS
   @DF-RHF iter   6:  -454.48501375769069   -2.67318e-05   3.30247e-06 DIIS
   @DF-RHF iter   7:  -454.48501908930325   -5.33161e-06   1.66942e-06 DIIS
   @DF-RHF iter   8:  -454.48502089492825   -1.80563e-06   7.01360e-07 DIIS
   @DF-RHF iter   9:  -454.48502142065229   -5.25724e-07   2.96613e-07 DIIS
   @DF-RHF iter  10:  -454.48502149394062   -7.32883e-08   7.30081e-08 DIIS
   @DF-RHF iter  11:  -454.48502149866664   -4.72602e-09   2.19257e-08 DIIS
   @DF-RHF iter  12:  -454.48502149903794   -3.71301e-10   1.25705e-08 DIIS
   @DF-RHF iter  13:  -454.48502149915390   -1.15961e-10   4.59828e-09 DIIS
   @DF-RHF iter  14:  -454.48502149918153   -2.76259e-11   2.06181e-09 DIIS
   @DF-RHF iter  15:  -454.48502149918500   -3.46745e-12   9.98857e-10 DIIS
   @DF-RHF iter  16:  -454.48502149918556   -5.68434e-13   3.16347e-10 DIIS
   @DF-RHF iter  17:  -454.48502149918681   -1.25056e-12   1.15520e-10 DIIS
   @DF-RHF iter  18:  -454.48502149918630    5.11591e-13   5.00867e-11 DIIS
  Energy and wave function converged.


  ==> Post-Iterations <==

    Orbital Energies [Eh]
    ---------------------

    Doubly Occupied:                                                      

       1A    -15.653368     2A    -15.593423     3A    -11.291227  
       4A    -11.283171     5A    -11.262227     6A    -11.248088  
       7A    -11.246638     8A    -11.245840     9A    -11.240969  
      10A    -11.240799    11A    -11.229492    12A     -1.380746  
      13A     -1.173827    14A     -1.106667    15A     -1.065824  
      16A     -1.024262    17A     -0.997548    18A     -0.860792  
      19A     -0.847380    20A     -0.795914    21A     -0.778056  
      22A     -0.742830    23A     -0.686593    24A     -0.648756  
      25A     -0.638726    26A     -0.614873    27A     -0.596890  
      28A     -0.593624    29A     -0.588075    30A     -0.562723  
      31A     -0.520079    32A     -0.510250    33A     -0.506805  
      34A     -0.465944    35A     -0.393461    36A     -0.349196  
      37A     -0.345886    38A     -0.312853  

    Virtual:                                                              

      39A      0.026051    40A      0.030939    41A      0.033895  
      42A      0.041168    43A      0.043409    44A      0.049689  
      45A      0.055448    46A      0.063742    47A      0.082712  
      48A      0.086018    49A      0.091850    50A      0.094232  
      51A      0.097435    52A      0.102108    53A      0.109451  
      54A      0.109915    55A      0.112492    56A      0.115786  
      57A      0.119756    58A      0.122065    59A      0.124377  
      60A      0.125244    61A      0.129200    62A      0.131459  
      63A      0.137630    64A      0.138526    65A      0.144717  
      66A      0.146786    67A      0.151105    68A      0.155827  
      69A      0.160910    70A      0.163140    71A      0.169529  
      72A      0.172770    73A      0.184089    74A      0.184939  
      75A      0.193213    76A      0.202793    77A      0.209596  
      78A      0.219246    79A      0.221820    80A      0.226834  
      81A      0.233293    82A      0.239453    83A      0.242676  
      84A      0.253143    85A      0.256144    86A      0.257992  
      87A      0.260320    88A      0.269492    89A      0.271293  
      90A      0.275733    91A      0.286757    92A      0.289112  
      93A      0.294100    94A      0.297850    95A      0.303888  
      96A      0.307674    97A      0.312215    98A      0.314408  
      99A      0.316327   100A      0.320645   101A      0.324770  
     102A      0.325814   103A      0.332696   104A      0.334550  
     105A      0.336465   106A      0.339866   107A      0.345676  
     108A      0.352922   109A      0.358737   110A      0.364907  
     111A      0.367178   112A      0.374904   113A      0.387500  
     114A      0.391836   115A      0.394700   116A      0.406297  
     117A      0.413057   118A      0.415543   119A      0.420248  
     120A      0.429149   121A      0.433354   122A      0.438532  
     123A      0.443547   124A      0.449233   125A      0.450635  
     126A      0.452928   127A      0.460009   128A      0.465105  
     129A      0.469801   130A      0.471298   131A      0.474715  
     132A      0.477577   133A      0.484141   134A      0.486472  
     135A      0.488586   136A      0.491550   137A      0.498472  
     138A      0.499322   139A      0.506444   140A      0.509649  
     141A      0.515329   142A      0.518182   143A      0.523122  
     144A      0.528332   145A      0.530258   146A      0.531316  
     147A      0.535341   148A      0.541338   149A      0.544683  
     150A      0.545916   151A      0.553830   152A      0.557026  
     153A      0.558226   154A      0.569596   155A      0.580400  
     156A      0.585918   157A      0.599244   158A      0.604778  
     159A      0.609144   160A      0.618669   161A      0.620319  
     162A      0.628126   163A      0.638069   164A      0.639326  
     165A      0.646640   166A      0.653456   167A      0.660285  
     168A      0.664338   169A      0.666624   170A      0.670520  
     171A      0.674045   172A      0.689659   173A      0.692055  
     174A      0.700875   175A      0.705331   176A      0.709352  
     177A      0.717647   178A      0.720430   179A      0.726191  
     180A      0.734295   181A      0.739411   182A      0.748931  
     183A      0.763508   184A      0.764484   185A      0.769329  
     186A      0.774596   187A      0.784732   188A      0.791185  
     189A      0.801190   190A      0.806180   191A      0.810889  
     192A      0.815692   193A      0.828385   194A      0.832346  
     195A      0.839267   196A      0.843654   197A      0.846218  
     198A      0.852943   199A      0.860828   200A      0.866196  
     201A      0.873216   202A      0.878728   203A      0.886230  
     204A      0.890683   205A      0.890854   206A      0.892632  
     207A      0.902134   208A      0.906203   209A      0.911229  
     210A      0.921206   211A      0.922835   212A      0.925020  
     213A      0.934669   214A      0.940770   215A      0.947943  
     216A      0.954326   217A      0.963341   218A      0.967201  
     219A      0.978615   220A      0.985731   221A      0.989566  
     222A      0.999236   223A      1.001353   224A      1.007305  
     225A      1.012108   226A      1.018509   227A      1.021363  
     228A      1.026362   229A      1.038035   230A      1.041843  
     231A      1.049407   232A      1.053698   233A      1.058448  
     234A      1.063011   235A      1.065610   236A      1.074710  
     237A      1.076191   238A      1.080227   239A      1.084067  
     240A      1.089136   241A      1.095107   242A      1.095836  
     243A      1.106329   244A      1.112317   245A      1.119725  
     246A      1.120667   247A      1.129104   248A      1.131655  
     249A      1.135988   250A      1.138554   251A      1.148275  
     252A      1.156218   253A      1.160599   254A      1.172663  
     255A      1.176341   256A      1.181592   257A      1.187674  
     258A      1.192503   259A      1.199132   260A      1.204287  
     261A      1.211093   262A      1.214562   263A      1.217651  
     264A      1.220401   265A      1.231924   266A      1.237946  
     267A      1.241286   268A      1.243541   269A      1.258084  
     270A      1.260913   271A      1.266737   272A      1.279935  
     273A      1.287299   274A      1.289837   275A      1.299078  
     276A      1.299656   277A      1.306984   278A      1.320330  
     279A      1.325716   280A      1.341381   281A      1.345438  
     282A      1.364954   283A      1.370915   284A      1.380167  
     285A      1.386087   286A      1.395300   287A      1.401094  
     288A      1.403397   289A      1.412792   290A      1.424448  
     291A      1.432958   292A      1.440999   293A      1.450953  
     294A      1.454686   295A      1.465093   296A      1.470738  
     297A      1.480823   298A      1.487085   299A      1.491744  
     300A      1.505555   301A      1.509412   302A      1.511808  
     303A      1.524888   304A      1.533697   305A      1.539808  
     306A      1.546636   307A      1.552481   308A      1.557970  
     309A      1.566345   310A      1.577624   311A      1.582373  
     312A      1.604159   313A      1.612322   314A      1.625758  
     315A      1.633832   316A      1.645711   317A      1.657905  
     318A      1.668537   319A      1.675302   320A      1.686347  
     321A      1.698633   322A      1.707226   323A      1.710759  
     324A      1.722984   325A      1.728952   326A      1.736724  
     327A      1.754737   328A      1.761469   329A      1.769193  
     330A      1.770020   331A      1.781238   332A      1.794049  
     333A      1.795451   334A      1.810624   335A      1.821510  
     336A      1.828910   337A      1.835278   338A      1.840019  
     339A      1.843851   340A      1.863743   341A      1.867779  
     342A      1.878720   343A      1.881355   344A      1.893244  
     345A      1.907233   346A      1.918690   347A      1.933642  
     348A      1.938150   349A      1.941776   350A      1.948947  
     351A      1.962381   352A      1.974184   353A      1.982792  
     354A      1.984248   355A      1.998860   356A      2.003172  
     357A      2.010259   358A      2.018568   359A      2.027698  
     360A      2.032397   361A      2.037259   362A      2.041678  
     363A      2.043560   364A      2.049004   365A      2.053866  
     366A      2.061201   367A      2.074075   368A      2.083223  
     369A      2.088881   370A      2.096830   371A      2.103348  
     372A      2.113183   373A      2.124287   374A      2.133579  
     375A      2.142812   376A      2.159759   377A      2.180526  
     378A      2.184233   379A      2.198219   380A      2.218177  
     381A      2.219624   382A      2.233490   383A      2.251408  
     384A      2.256512   385A      2.262868   386A      2.265116  
     387A      2.293863   388A      2.315812   389A      2.331688  
     390A      2.338494   391A      2.347131   392A      2.350697  
     393A      2.361319   394A      2.367763   395A      2.383393  
     396A      2.393397   397A      2.398521   398A      2.419829  
     399A      2.422585   400A      2.432888   401A      2.446344  
     402A      2.453889   403A      2.467537   404A      2.481036  
     405A      2.503662   406A      2.510185   407A      2.525616  
     408A      2.544329   409A      2.555569   410A      2.560553  
     411A      2.579208   412A      2.591633   413A      2.604882  
     414A      2.618989   415A      2.628667   416A      2.670125  
     417A      2.681608   418A      2.689902   419A      2.705923  
     420A      2.739314   421A      2.743379   422A      2.774947  
     423A      2.790047   424A      2.801638   425A      2.817562  
     426A      2.825747   427A      2.847890   428A      2.867076  
     429A      2.888196   430A      2.906814   431A      2.952211  
     432A      2.972540   433A      2.990723   434A      3.030807  
     435A      3.046876   436A      3.062913   437A      3.098204  
     438A      3.138052   439A      3.158948   440A      3.181605  
     441A      3.193033   442A      3.199053   443A      3.217113  
     444A      3.238787   445A      3.243010   446A      3.246876  
     447A      3.275710   448A      3.307190   449A      3.314531  
     450A      3.321031   451A      3.347576   452A      3.360368  
     453A      3.371655   454A      3.378963   455A      3.380565  
     456A      3.393222   457A      3.400941   458A      3.415530  
     459A      3.422087   460A      3.442874   461A      3.456100  
     462A      3.464142   463A      3.469895   464A      3.488547  
     465A      3.499051   466A      3.520707   467A      3.523644  
     468A      3.532292   469A      3.546950   470A      3.551455  
     471A      3.557057   472A      3.564649   473A      3.575922  
     474A      3.579557   475A      3.590548   476A      3.602932  
     477A      3.615202   478A      3.619072   479A      3.637268  
     480A      3.649427   481A      3.657575   482A      3.664477  
     483A      3.671646   484A      3.690463   485A      3.710197  
     486A      3.714058   487A      3.722039   488A      3.745062  
     489A      3.751679   490A      3.768329   491A      3.785518  
     492A      3.792628   493A      3.802366   494A      3.805356  
     495A      3.831787   496A      3.843954   497A      3.844773  
     498A      3.847924   499A      3.857750   500A      3.870689  
     501A      3.881716   502A      3.887576   503A      3.902121  
     504A      3.919671   505A      3.924172   506A      3.933359  
     507A      3.938559   508A      3.943119   509A      3.953843  
     510A      3.969296   511A      3.972835   512A      3.978667  
     513A      3.984341   514A      3.990901   515A      3.995888  
     516A      4.031276   517A      4.035588   518A      4.046684  
     519A      4.057967   520A      4.077218   521A      4.083608  
     522A      4.101029   523A      4.112657   524A      4.130407  
     525A      4.131287   526A      4.141210   527A      4.153177  
     528A      4.165564   529A      4.177762   530A      4.193480  
     531A      4.200413   532A      4.212317   533A      4.222120  
     534A      4.235871   535A      4.238630   536A      4.248480  
     537A      4.265704   538A      4.275931   539A      4.286387  
     540A      4.297460   541A      4.314108   542A      4.326862  
     543A      4.328573   544A      4.344440   545A      4.353768  
     546A      4.360641   547A      4.375132   548A      4.384325  
     549A      4.396990   550A      4.400223   551A      4.407618  
     552A      4.420185   553A      4.436586   554A      4.439700  
     555A      4.446568   556A      4.463717   557A      4.468368  
     558A      4.491629   559A      4.500131   560A      4.514188  
     561A      4.520469   562A      4.537204   563A      4.557511  
     564A      4.581339   565A      4.590533   566A      4.624316  
     567A      4.636294   568A      4.649160   569A      4.667896  
     570A      4.689996   571A      4.704198   572A      4.711541  
     573A      4.727713   574A      4.737698   575A      4.752566  
     576A      4.771675   577A      4.784961   578A      4.821021  
     579A      4.838629   580A      4.859325   581A      4.869301  
     582A      4.886598   583A      4.910867   584A      4.915626  
     585A      4.918407   586A      4.943886   587A      4.958593  
     588A      4.962738   589A      4.973693   590A      4.994860  
     591A      5.007412   592A      5.013301   593A      5.054240  
     594A      5.061249   595A      5.064703   596A      5.080110  
     597A      5.088120   598A      5.101704   599A      5.117549  
     600A      5.122132   601A      5.127974   602A      5.147050  
     603A      5.148194   604A      5.162889   605A      5.168646  
     606A      5.175370   607A      5.196207   608A      5.204936  
     609A      5.220706   610A      5.251129   611A      5.263202  
     612A      5.273680   613A      5.284528   614A      5.304375  
     615A      5.319096   616A      5.321657   617A      5.333220  
     618A      5.361715   619A      5.398594   620A      5.420355  
     621A      5.424674   622A      5.426790   623A      5.445768  
     624A      5.480713   625A      5.496764   626A      5.517257  
     627A      5.544333   628A      5.586479   629A      5.619259  
     630A      5.640014   631A      5.690113   632A      5.719643  
     633A      5.733633   634A      5.746103   635A      5.763700  
     636A      5.787424   637A      5.802479   638A      5.834652  
     639A      5.850468   640A      5.861721   641A      5.882282  
     642A      5.902039   643A      5.935728   644A      5.940581  
     645A      5.986211   646A      5.992465   647A      6.047116  
     648A      6.075639   649A      6.117277   650A      6.129875  
     651A      6.162866   652A      6.181441   653A      6.200989  
     654A      6.229265   655A      6.257866   656A      6.290024  
     657A      6.331245   658A      6.363544   659A      6.383937  
     660A      6.422781   661A      6.487969   662A      6.526801  
     663A      6.558420   664A      6.632660   665A      6.684496  
     666A      6.716804   667A      6.748996   668A      6.774311  
     669A      6.878389   670A      6.892025   671A      7.009718  
     672A      7.029417   673A      7.033142   674A      7.092398  
     675A      7.201023   676A      7.236891   677A      7.307663  
     678A      7.443894   679A      7.747992   680A     15.483302  
     681A     16.128409   682A     16.290637   683A     16.822525  
     684A     17.516553   685A     18.308060   686A     18.475461  
     687A     19.196929   688A     19.727017   689A     19.855646  
     690A     21.289932  

    Final Occupation by Irrep:
              A 
    DOCC [    38 ]

  @DF-RHF Final Energy:  -454.48502149918630

   => Energetics <=

    Nuclear Repulsion Energy =            546.0990571221587970
    One-Electron Energy =               -1697.8805063703725864
    Two-Electron Energy =                 697.2964277490276572
    Total Energy =                       -454.4850214991862458

Computation Completed

*** tstop() called on node37.bme.utexas.edu at Fri Feb  5 07:14:52 2021
Module time:
	user time   =     406.38 seconds =       6.77 minutes
	system time =      99.11 seconds =       1.65 minutes
	total time  =        124 seconds =       2.07 minutes
Total time:
	user time   =     406.38 seconds =       6.77 minutes
	system time =      99.11 seconds =       1.65 minutes
	total time  =        124 seconds =       2.07 minutes
   => Loading Basis Set <=

    Name: (AUG-CC-PVTZ AUX)
    Role: RIFIT
    Keyword: DF_BASIS_MP2
    atoms 1-2   entry N          line   206 file /home/xy3866/psi4conda/share/psi4/basis/aug-cc-pvtz-ri.gbs 
    atoms 3-11  entry C          line   148 file /home/xy3866/psi4conda/share/psi4/basis/aug-cc-pvtz-ri.gbs 
    atoms 12-19 entry H          line    30 file /home/xy3866/psi4conda/share/psi4/basis/aug-cc-pvtz-ri.gbs 


*** tstart() called on node37.bme.utexas.edu
*** at Fri Feb  5 07:14:53 2021


  //>>>>>>>>>>>>>>>>>>>>>>>>>>>>>>>>>>>//
  //               DFMP2               //
  //<<<<<<<<<<<<<<<<<<<<<<<<<<<<<<<<<<<//

	 --------------------------------------------------------
	                          DF-MP2                         
	      2nd-Order Density-Fitted Moller-Plesset Theory     
	              RMP2 Wavefunction,   8 Threads             
	                                                         
	        Rob Parrish, Justin Turney, Andy Simmonett,      
	           Ed Hohenstein, and C. David Sherrill          
	 --------------------------------------------------------

   => Auxiliary Basis Set <=

  Basis Set: (AUG-CC-PVTZ AUX)
    Blend: AUG-CC-PVTZ-RI
    Number of shells: 420
    Number of basis function: 1534
    Number of Cartesian functions: 1936
    Spherical Harmonics?: true
    Max angular momentum: 4

	 --------------------------------------------------------
	                 NBF =   690, NAUX =  1534
	 --------------------------------------------------------
	   CLASS    FOCC     OCC    AOCC    AVIR     VIR    FVIR
	   PAIRS       0      38      38     652     652       0
	 --------------------------------------------------------

  DFHelper Memory: AOs need 5.126 GiB; user supplied 22.352 GiB. Using in-core AOs.


         ------------------------------------------------------------
                                     CPHF                           
                                  Rob Parrish                       
         ------------------------------------------------------------

  ==> Geometry <==

    Molecular point group: c1
    Full point group: C1

    Geometry (in Angstrom), charge = 0, multiplicity = 1:

       Center              X                  Y                   Z               Mass       
    ------------   -----------------  -----------------  -----------------  -----------------
         N            0.998918425938     0.045699924775     0.005914019728    14.003074004430
         N            1.666316525938    -1.055282075225    -0.417147080272    14.003074004430
         C           -0.419374574062     0.028762924775    -0.002992980272    12.000000000000
         C           -1.125392574062     1.209098924775    -0.248946980272    12.000000000000
         C           -1.085924574062    -1.174139075225     0.243915019728    12.000000000000
         C            1.818309425938     1.063261924775     0.412265019728    12.000000000000
         C           -2.520247574062     1.184404924775    -0.225311980272    12.000000000000
         C           -2.479815574062    -1.186866075225     0.242110019728    12.000000000000
         C            3.114767425938     0.610740924775     0.242922019728    12.000000000000
         C           -3.200565574062    -0.010325075225     0.019123019728    12.000000000000
         C            2.978765425938    -0.692752075225    -0.263746980272    12.000000000000
         H           -0.591878574062     2.125845924775    -0.485034980272     1.007825032230
         H           -0.505609574062    -2.073760075225     0.421226019728     1.007825032230
         H            1.419571425938     1.983772924775     0.814498019728     1.007825032230
         H           -3.074696574062     2.099653924775    -0.416947980272     1.007825032230
         H           -3.005179574062    -2.119849075225     0.430241019728     1.007825032230
         H            4.024923425938     1.147833924775     0.470385019728     1.007825032230
         H           -4.287298574062    -0.026338075225     0.027232019728     1.007825032230
         H            3.750186425938    -1.399749075225    -0.540746980272     1.007825032230

  Nuclear repulsion =  546.099057122158797
  Reference energy  = -454.485021499186303

  ==> Basis Set <==

  Basis Set: AUG-CC-PVTZ
    Blend: AUG-CC-PVTZ
    Number of shells: 226
    Number of basis function: 690
    Number of Cartesian functions: 805
    Spherical Harmonics?: true
    Max angular momentum: 3

  ==> CGRSolver (by Rob Parrish) <==

   Number of roots    =         1
   Preconditioning    =    JACOBI
   Convergence cutoff =     1E-06
   Maximum iterations =       100

  ==> CPHFRHamiltonian (by Rob Parrish) <== 

  ==> MemDFJK: Density-Fitted J/K Matrices <==

    J tasked:                   Yes
    K tasked:                   Yes
    wK tasked:                   No
    OpenMP threads:               8
    Memory [MiB]:             22888
    Algorithm:                 Disk
    Schwarz Cutoff:           1E-12
    Mask sparsity (%):       7.0611
    Fitting Condition:        1E-10

   => Auxiliary Basis Set <=

  Basis Set: (AUG-CC-PVTZ AUX)
    Blend: AUG-CC-PVTZ-JKFIT
    Number of shells: 442
    Number of basis function: 1512
    Number of Cartesian functions: 1881
    Spherical Harmonics?: true
    Max angular momentum: 4

  ==> CPHF Iterations <==

  => Iterations <=

             Iter  Converged  Remaining    Residual
  CGR           1          0          1   8.626E-02
  CGR           2          0          1   3.550E-02
  CGR           3          0          1   2.182E-02
  CGR           4          0          1   8.048E-03
  CGR           5          0          1   2.452E-03
  CGR           6          0          1   1.253E-03
  CGR           7          0          1   5.680E-04
  CGR           8          0          1   2.368E-04
  CGR           9          0          1   9.934E-05
  CGR          10          0          1   2.777E-05
  CGR          11          0          1   1.104E-05
  CGR          12          0          1   4.205E-06
  CGR          13          0          1   1.712E-06
  CGR          14          1          0   6.737E-07

    CGRSolver converged.

	-----------------------------------------------------------
	 ==================> DF-MP2 Energies <==================== 
	-----------------------------------------------------------
	 Reference Energy          =    -454.4850214991863027 [Eh]
	 Singles Energy            =      -0.0000000000000000 [Eh]
	 Same-Spin Energy          =      -0.5103928882269304 [Eh]
	 Opposite-Spin Energy      =      -1.5493660420737003 [Eh]
	 Correlation Energy        =      -2.0597589303006307 [Eh]
	 Total Energy              =    -456.5447804294869343 [Eh]
	-----------------------------------------------------------
	 ================> DF-SCS-MP2 Energies <================== 
	-----------------------------------------------------------
	 SCS Same-Spin Scale       =       0.3333333333333333 [-]
	 SCS Opposite-Spin Scale   =       1.2000000000000000 [-]
	 SCS Same-Spin Energy      =      -0.1701309627423101 [Eh]
	 SCS Opposite-Spin Energy  =      -1.8592392504884403 [Eh]
	 SCS Correlation Energy    =      -2.0293702132307505 [Eh]
	 SCS Total Energy          =    -456.5143917124170798 [Eh]
	-----------------------------------------------------------



Properties will be evaluated at  -0.000000,  -0.000000,  -0.000000 [a0]

Properties computed using the MP2 density matrix

  Nuclear Dipole Moment: [e a0]
     X:    -2.1358      Y:     1.6317      Z:     0.6770

  Electronic Dipole Moment: [e a0]
     X:     1.7939      Y:    -0.9742      Z:    -0.3809

  Dipole Moment: [e a0]
     X:    -0.3419      Y:     0.6575      Z:     0.2961     Total:     0.7980

  Dipole Moment: [D]
     X:    -0.8690      Y:     1.6711      Z:     0.7526     Total:     2.0283


*** tstop() called on node37.bme.utexas.edu at Fri Feb  5 07:19:25 2021
Module time:
	user time   =    1283.42 seconds =      21.39 minutes
	system time =     206.28 seconds =       3.44 minutes
	total time  =        272 seconds =       4.53 minutes
Total time:
	user time   =    1689.98 seconds =      28.17 minutes
	system time =     305.39 seconds =       5.09 minutes
	total time  =        397 seconds =       6.62 minutes

    Psi4 stopped on: Friday, 05 February 2021 07:19AM
    Psi4 wall time for execution: 0:06:37.04

*** Psi4 exiting successfully. Buy a developer a beer!
