13331901                                                                
Freq      RMP2-FC                                                     6-31G(d)            
Number of atoms                            I               17
Info1-9                                    I   N=           9
          29          27        1002           0           0         100
           6           2           1
Charge                                     I                0
Multiplicity                               I                1
Number of electrons                        I               84
Number of alpha electrons                  I               42
Number of beta electrons                   I               42
Number of basis functions                  I              181
Number of independent functions            I              181
Number of point charges in /Mol/           I                0
Number of translation vectors              I                0
Atomic numbers                             I   N=          17
          16           7           7           6           6           6
           6           6           6           6           6           1
           1           1           1           1           1
Nuclear charges                            R   N=          17
  1.60000000E+01  7.00000000E+00  7.00000000E+00  6.00000000E+00  6.00000000E+00
  6.00000000E+00  6.00000000E+00  6.00000000E+00  6.00000000E+00  6.00000000E+00
  6.00000000E+00  1.00000000E+00  1.00000000E+00  1.00000000E+00  1.00000000E+00
  1.00000000E+00  1.00000000E+00
Current cartesian coordinates              R   N=          51
  3.32938783E+00 -2.24448433E+00 -2.08556438E-04 -2.24739837E+00 -2.10947386E+00
  1.58887549E-04  2.71429215E+00  2.61026940E+00 -1.08285190E-04 -1.30165585E+00
  2.58189804E-01  7.55340637E-05  1.45550019E+00  4.47835828E-01 -6.53381971E-05
 -2.80965019E+00  2.43651577E+00  1.09749209E-04 -5.42166666E+00  2.13773292E+00
  2.44580212E-04 -6.43271666E+00 -3.00556830E-01  3.32835257E-04 -4.77390501E+00
 -2.35065080E+00  2.83778322E-04  5.95392348E+00 -3.49585159E-01 -3.14840363E-04
  5.25878592E+00  2.15920512E+00 -2.35587322E-04 -1.91327216E+00  4.28201771E+00
  3.50944022E-05 -6.65445251E+00  3.78157541E+00  2.76574171E-04 -8.46189952E+00
 -6.11736000E-01  4.37434319E-04 -5.48530908E+00 -4.28092449E+00  3.48117342E-04
  7.84166716E+00 -1.13733091E+00 -4.23024023E-04  6.56311312E+00  3.74045894E+00
 -2.75776801E-04
Force Field                                I                0
Int Atom Types                             I   N=          17
           0           0           0           0           0           0
           0           0           0           0           0           0
           0           0           0           0           0
MM charges                                 R   N=          17
  0.00000000E+00  0.00000000E+00  0.00000000E+00  0.00000000E+00  0.00000000E+00
  0.00000000E+00  0.00000000E+00  0.00000000E+00  0.00000000E+00  0.00000000E+00
  0.00000000E+00  0.00000000E+00  0.00000000E+00  0.00000000E+00  0.00000000E+00
  0.00000000E+00  0.00000000E+00
Integer atomic weights                     I   N=          17
          32          14          14          12          12          12
          12          12          12          12          12           1
           1           1           1           1           1
Real atomic weights                        R   N=          17
  3.19720718E+01  1.40030740E+01  1.40030740E+01  1.20000000E+01  1.20000000E+01
  1.20000000E+01  1.20000000E+01  1.20000000E+01  1.20000000E+01  1.20000000E+01
  1.20000000E+01  1.00782504E+00  1.00782504E+00  1.00782504E+00  1.00782504E+00
  1.00782504E+00  1.00782504E+00
Atom fragment info                         I   N=          17
           0           0           0           0           0           0
           0           0           0           0           0           0
           0           0           0           0           0
Atom residue num                           I   N=          17
           0           0           0           0           0           0
           0           0           0           0           0           0
           0           0           0           0           0
Nuclear spins                              I   N=          17
           0           2           2           0           0           0
           0           0           0           0           0           1
           1           1           1           1           1
Nuclear ZEff                               R   N=          17
 -1.36000000E+01 -4.55000000E+00 -4.55000000E+00 -3.60000000E+00 -3.60000000E+00
 -3.60000000E+00 -3.60000000E+00 -3.60000000E+00 -3.60000000E+00 -3.60000000E+00
 -3.60000000E+00 -1.00000000E+00 -1.00000000E+00 -1.00000000E+00 -1.00000000E+00
 -1.00000000E+00 -1.00000000E+00
Nuclear QMom                               R   N=          17
  0.00000000E+00  2.04400000E+00  2.04400000E+00  0.00000000E+00  0.00000000E+00
  0.00000000E+00  0.00000000E+00  0.00000000E+00  0.00000000E+00  0.00000000E+00
  0.00000000E+00  0.00000000E+00  0.00000000E+00  0.00000000E+00  0.00000000E+00
  0.00000000E+00  0.00000000E+00
Nuclear GFac                               R   N=          17
  0.00000000E+00  4.03761000E-01  4.03761000E-01  0.00000000E+00  0.00000000E+00
  0.00000000E+00  0.00000000E+00  0.00000000E+00  0.00000000E+00  0.00000000E+00
  0.00000000E+00  2.79284600E+00  2.79284600E+00  2.79284600E+00  2.79284600E+00
  2.79284600E+00  2.79284600E+00
MicOpt                                     I   N=          17
          -1          -1          -1          -1          -1          -1
          -1          -1          -1          -1          -1          -1
          -1          -1          -1          -1          -1
Number of contracted shells                I               57
Number of primitive shells                 I              151
Pure/Cartesian d shells                    I                1
Pure/Cartesian f shells                    I                0
Highest angular momentum                   I                2
Largest degree of contraction              I                6
Shell types                                I   N=          57
           0          -1          -1          -1           2           0
          -1          -1           2           0          -1          -1
           2           0          -1          -1           2           0
          -1          -1           2           0          -1          -1
           2           0          -1          -1           2           0
          -1          -1           2           0          -1          -1
           2           0          -1          -1           2           0
          -1          -1           2           0           0           0
           0           0           0           0           0           0
           0           0           0
Number of primitives per shell             I   N=          57
           6           6           3           1           1           6
           3           1           1           6           3           1
           1           6           3           1           1           6
           3           1           1           6           3           1
           1           6           3           1           1           6
           3           1           1           6           3           1
           1           6           3           1           1           6
           3           1           1           3           1           3
           1           3           1           3           1           3
           1           3           1
Shell to atom map                          I   N=          57
           1           1           1           1           1           2
           2           2           2           3           3           3
           3           4           4           4           4           5
           5           5           5           6           6           6
           6           7           7           7           7           8
           8           8           8           9           9           9
           9          10          10          10          10          11
          11          11          11          12          12          13
          13          14          14          15          15          16
          16          17          17
Primitive exponents                        R   N=         151
  2.19171000E+04  3.30149000E+03  7.54146000E+02  2.12711000E+02  6.79896000E+01
  2.30515000E+01  4.23735000E+02  1.00710000E+02  3.21599000E+01  1.18079000E+01
  4.63110000E+00  1.87025000E+00  2.61584000E+00  9.22167000E-01  3.41287000E-01
  1.17167000E-01  6.50000000E-01  4.17351146E+03  6.27457911E+02  1.42902093E+02
  4.02343293E+01  1.28202129E+01  4.39043701E+00  1.16263619E+01  2.71627981E+00
  7.72218397E-01  2.12031498E-01  8.00000000E-01  4.17351146E+03  6.27457911E+02
  1.42902093E+02  4.02343293E+01  1.28202129E+01  4.39043701E+00  1.16263619E+01
  2.71627981E+00  7.72218397E-01  2.12031498E-01  8.00000000E-01  3.04752488E+03
  4.57369518E+02  1.03948685E+02  2.92101553E+01  9.28666296E+00  3.16392696E+00
  7.86827235E+00  1.88128854E+00  5.44249258E-01  1.68714478E-01  8.00000000E-01
  3.04752488E+03  4.57369518E+02  1.03948685E+02  2.92101553E+01  9.28666296E+00
  3.16392696E+00  7.86827235E+00  1.88128854E+00  5.44249258E-01  1.68714478E-01
  8.00000000E-01  3.04752488E+03  4.57369518E+02  1.03948685E+02  2.92101553E+01
  9.28666296E+00  3.16392696E+00  7.86827235E+00  1.88128854E+00  5.44249258E-01
  1.68714478E-01  8.00000000E-01  3.04752488E+03  4.57369518E+02  1.03948685E+02
  2.92101553E+01  9.28666296E+00  3.16392696E+00  7.86827235E+00  1.88128854E+00
  5.44249258E-01  1.68714478E-01  8.00000000E-01  3.04752488E+03  4.57369518E+02
  1.03948685E+02  2.92101553E+01  9.28666296E+00  3.16392696E+00  7.86827235E+00
  1.88128854E+00  5.44249258E-01  1.68714478E-01  8.00000000E-01  3.04752488E+03
  4.57369518E+02  1.03948685E+02  2.92101553E+01  9.28666296E+00  3.16392696E+00
  7.86827235E+00  1.88128854E+00  5.44249258E-01  1.68714478E-01  8.00000000E-01
  3.04752488E+03  4.57369518E+02  1.03948685E+02  2.92101553E+01  9.28666296E+00
  3.16392696E+00  7.86827235E+00  1.88128854E+00  5.44249258E-01  1.68714478E-01
  8.00000000E-01  3.04752488E+03  4.57369518E+02  1.03948685E+02  2.92101553E+01
  9.28666296E+00  3.16392696E+00  7.86827235E+00  1.88128854E+00  5.44249258E-01
  1.68714478E-01  8.00000000E-01  1.87311370E+01  2.82539436E+00  6.40121692E-01
  1.61277759E-01  1.87311370E+01  2.82539436E+00  6.40121692E-01  1.61277759E-01
  1.87311370E+01  2.82539436E+00  6.40121692E-01  1.61277759E-01  1.87311370E+01
  2.82539436E+00  6.40121692E-01  1.61277759E-01  1.87311370E+01  2.82539436E+00
  6.40121692E-01  1.61277759E-01  1.87311370E+01  2.82539436E+00  6.40121692E-01
  1.61277759E-01
Contraction coefficients                   R   N=         151
  1.86924085E-03  1.42303065E-02  6.96962317E-02  2.38487108E-01  4.83307220E-01
  3.38074154E-01 -2.37677050E-03 -3.16930067E-02 -1.13317024E-01  5.60900118E-02
  5.92255124E-01  4.55006095E-01 -2.50373114E-01  6.69567631E-02  1.05450627E+00
  1.00000000E+00  1.00000000E+00  1.83477216E-03  1.39946270E-02  6.85865518E-02
  2.32240873E-01  4.69069948E-01  3.60455199E-01 -1.14961182E-01 -1.69117479E-01
  1.14585195E+00  1.00000000E+00  1.00000000E+00  1.83477216E-03  1.39946270E-02
  6.85865518E-02  2.32240873E-01  4.69069948E-01  3.60455199E-01 -1.14961182E-01
 -1.69117479E-01  1.14585195E+00  1.00000000E+00  1.00000000E+00  1.83473713E-03
  1.40373228E-02  6.88426223E-02  2.32184443E-01  4.67941348E-01  3.62311985E-01
 -1.19332420E-01 -1.60854152E-01  1.14345644E+00  1.00000000E+00  1.00000000E+00
  1.83473713E-03  1.40373228E-02  6.88426223E-02  2.32184443E-01  4.67941348E-01
  3.62311985E-01 -1.19332420E-01 -1.60854152E-01  1.14345644E+00  1.00000000E+00
  1.00000000E+00  1.83473713E-03  1.40373228E-02  6.88426223E-02  2.32184443E-01
  4.67941348E-01  3.62311985E-01 -1.19332420E-01 -1.60854152E-01  1.14345644E+00
  1.00000000E+00  1.00000000E+00  1.83473713E-03  1.40373228E-02  6.88426223E-02
  2.32184443E-01  4.67941348E-01  3.62311985E-01 -1.19332420E-01 -1.60854152E-01
  1.14345644E+00  1.00000000E+00  1.00000000E+00  1.83473713E-03  1.40373228E-02
  6.88426223E-02  2.32184443E-01  4.67941348E-01  3.62311985E-01 -1.19332420E-01
 -1.60854152E-01  1.14345644E+00  1.00000000E+00  1.00000000E+00  1.83473713E-03
  1.40373228E-02  6.88426223E-02  2.32184443E-01  4.67941348E-01  3.62311985E-01
 -1.19332420E-01 -1.60854152E-01  1.14345644E+00  1.00000000E+00  1.00000000E+00
  1.83473713E-03  1.40373228E-02  6.88426223E-02  2.32184443E-01  4.67941348E-01
  3.62311985E-01 -1.19332420E-01 -1.60854152E-01  1.14345644E+00  1.00000000E+00
  1.00000000E+00  1.83473713E-03  1.40373228E-02  6.88426223E-02  2.32184443E-01
  4.67941348E-01  3.62311985E-01 -1.19332420E-01 -1.60854152E-01  1.14345644E+00
  1.00000000E+00  1.00000000E+00  3.34946043E-02  2.34726953E-01  8.13757326E-01
  1.00000000E+00  3.34946043E-02  2.34726953E-01  8.13757326E-01  1.00000000E+00
  3.34946043E-02  2.34726953E-01  8.13757326E-01  1.00000000E+00  3.34946043E-02
  2.34726953E-01  8.13757326E-01  1.00000000E+00  3.34946043E-02  2.34726953E-01
  8.13757326E-01  1.00000000E+00  3.34946043E-02  2.34726953E-01  8.13757326E-01
  1.00000000E+00
P(S=P) Contraction coefficients            R   N=         151
  0.00000000E+00  0.00000000E+00  0.00000000E+00  0.00000000E+00  0.00000000E+00
  0.00000000E+00  4.06100998E-03  3.06812999E-02  1.30451999E-01  3.27204999E-01
  4.52850998E-01  2.56041999E-01 -1.45104895E-02  3.10262776E-01  7.54482456E-01
  1.00000000E+00  0.00000000E+00  0.00000000E+00  0.00000000E+00  0.00000000E+00
  0.00000000E+00  0.00000000E+00  0.00000000E+00  6.75797439E-02  3.23907296E-01
  7.40895140E-01  1.00000000E+00  0.00000000E+00  0.00000000E+00  0.00000000E+00
  0.00000000E+00  0.00000000E+00  0.00000000E+00  0.00000000E+00  6.75797439E-02
  3.23907296E-01  7.40895140E-01  1.00000000E+00  0.00000000E+00  0.00000000E+00
  0.00000000E+00  0.00000000E+00  0.00000000E+00  0.00000000E+00  0.00000000E+00
  6.89990666E-02  3.16423961E-01  7.44308291E-01  1.00000000E+00  0.00000000E+00
  0.00000000E+00  0.00000000E+00  0.00000000E+00  0.00000000E+00  0.00000000E+00
  0.00000000E+00  6.89990666E-02  3.16423961E-01  7.44308291E-01  1.00000000E+00
  0.00000000E+00  0.00000000E+00  0.00000000E+00  0.00000000E+00  0.00000000E+00
  0.00000000E+00  0.00000000E+00  6.89990666E-02  3.16423961E-01  7.44308291E-01
  1.00000000E+00  0.00000000E+00  0.00000000E+00  0.00000000E+00  0.00000000E+00
  0.00000000E+00  0.00000000E+00  0.00000000E+00  6.89990666E-02  3.16423961E-01
  7.44308291E-01  1.00000000E+00  0.00000000E+00  0.00000000E+00  0.00000000E+00
  0.00000000E+00  0.00000000E+00  0.00000000E+00  0.00000000E+00  6.89990666E-02
  3.16423961E-01  7.44308291E-01  1.00000000E+00  0.00000000E+00  0.00000000E+00
  0.00000000E+00  0.00000000E+00  0.00000000E+00  0.00000000E+00  0.00000000E+00
  6.89990666E-02  3.16423961E-01  7.44308291E-01  1.00000000E+00  0.00000000E+00
  0.00000000E+00  0.00000000E+00  0.00000000E+00  0.00000000E+00  0.00000000E+00
  0.00000000E+00  6.89990666E-02  3.16423961E-01  7.44308291E-01  1.00000000E+00
  0.00000000E+00  0.00000000E+00  0.00000000E+00  0.00000000E+00  0.00000000E+00
  0.00000000E+00  0.00000000E+00  6.89990666E-02  3.16423961E-01  7.44308291E-01
  1.00000000E+00  0.00000000E+00  0.00000000E+00  0.00000000E+00  0.00000000E+00
  0.00000000E+00  0.00000000E+00  0.00000000E+00  0.00000000E+00  0.00000000E+00
  0.00000000E+00  0.00000000E+00  0.00000000E+00  0.00000000E+00  0.00000000E+00
  0.00000000E+00  0.00000000E+00  0.00000000E+00  0.00000000E+00  0.00000000E+00
  0.00000000E+00  0.00000000E+00  0.00000000E+00  0.00000000E+00  0.00000000E+00
  0.00000000E+00
Coordinates of each shell                  R   N=         171
  3.32938783E+00 -2.24448433E+00 -2.08556438E-04  3.32938783E+00 -2.24448433E+00
 -2.08556438E-04  3.32938783E+00 -2.24448433E+00 -2.08556438E-04  3.32938783E+00
 -2.24448433E+00 -2.08556438E-04  3.32938783E+00 -2.24448433E+00 -2.08556438E-04
 -2.24739837E+00 -2.10947386E+00  1.58887549E-04 -2.24739837E+00 -2.10947386E+00
  1.58887549E-04 -2.24739837E+00 -2.10947386E+00  1.58887549E-04 -2.24739837E+00
 -2.10947386E+00  1.58887549E-04  2.71429215E+00  2.61026940E+00 -1.08285190E-04
  2.71429215E+00  2.61026940E+00 -1.08285190E-04  2.71429215E+00  2.61026940E+00
 -1.08285190E-04  2.71429215E+00  2.61026940E+00 -1.08285190E-04 -1.30165585E+00
  2.58189804E-01  7.55340637E-05 -1.30165585E+00  2.58189804E-01  7.55340637E-05
 -1.30165585E+00  2.58189804E-01  7.55340637E-05 -1.30165585E+00  2.58189804E-01
  7.55340637E-05  1.45550019E+00  4.47835828E-01 -6.53381971E-05  1.45550019E+00
  4.47835828E-01 -6.53381971E-05  1.45550019E+00  4.47835828E-01 -6.53381971E-05
  1.45550019E+00  4.47835828E-01 -6.53381971E-05 -2.80965019E+00  2.43651577E+00
  1.09749209E-04 -2.80965019E+00  2.43651577E+00  1.09749209E-04 -2.80965019E+00
  2.43651577E+00  1.09749209E-04 -2.80965019E+00  2.43651577E+00  1.09749209E-04
 -5.42166666E+00  2.13773292E+00  2.44580212E-04 -5.42166666E+00  2.13773292E+00
  2.44580212E-04 -5.42166666E+00  2.13773292E+00  2.44580212E-04 -5.42166666E+00
  2.13773292E+00  2.44580212E-04 -6.43271666E+00 -3.00556830E-01  3.32835257E-04
 -6.43271666E+00 -3.00556830E-01  3.32835257E-04 -6.43271666E+00 -3.00556830E-01
  3.32835257E-04 -6.43271666E+00 -3.00556830E-01  3.32835257E-04 -4.77390501E+00
 -2.35065080E+00  2.83778322E-04 -4.77390501E+00 -2.35065080E+00  2.83778322E-04
 -4.77390501E+00 -2.35065080E+00  2.83778322E-04 -4.77390501E+00 -2.35065080E+00
  2.83778322E-04  5.95392348E+00 -3.49585159E-01 -3.14840363E-04  5.95392348E+00
 -3.49585159E-01 -3.14840363E-04  5.95392348E+00 -3.49585159E-01 -3.14840363E-04
  5.95392348E+00 -3.49585159E-01 -3.14840363E-04  5.25878592E+00  2.15920512E+00
 -2.35587322E-04  5.25878592E+00  2.15920512E+00 -2.35587322E-04  5.25878592E+00
  2.15920512E+00 -2.35587322E-04  5.25878592E+00  2.15920512E+00 -2.35587322E-04
 -1.91327216E+00  4.28201771E+00  3.50944022E-05 -1.91327216E+00  4.28201771E+00
  3.50944022E-05 -6.65445251E+00  3.78157541E+00  2.76574171E-04 -6.65445251E+00
  3.78157541E+00  2.76574171E-04 -8.46189952E+00 -6.11736000E-01  4.37434319E-04
 -8.46189952E+00 -6.11736000E-01  4.37434319E-04 -5.48530908E+00 -4.28092449E+00
  3.48117342E-04 -5.48530908E+00 -4.28092449E+00  3.48117342E-04  7.84166716E+00
 -1.13733091E+00 -4.23024023E-04  7.84166716E+00 -1.13733091E+00 -4.23024023E-04
  6.56311312E+00  3.74045894E+00 -2.75776801E-04  6.56311312E+00  3.74045894E+00
 -2.75776801E-04
Constraint Structure                       R   N=          51
  3.32938783E+00 -2.24448433E+00 -2.08556438E-04 -2.24739837E+00 -2.10947386E+00
  1.58887549E-04  2.71429215E+00  2.61026940E+00 -1.08285190E-04 -1.30165585E+00
  2.58189804E-01  7.55340637E-05  1.45550019E+00  4.47835828E-01 -6.53381971E-05
 -2.80965019E+00  2.43651577E+00  1.09749209E-04 -5.42166666E+00  2.13773292E+00
  2.44580212E-04 -6.43271666E+00 -3.00556830E-01  3.32835257E-04 -4.77390501E+00
 -2.35065080E+00  2.83778322E-04  5.95392348E+00 -3.49585159E-01 -3.14840363E-04
  5.25878592E+00  2.15920512E+00 -2.35587322E-04 -1.91327216E+00  4.28201771E+00
  3.50944022E-05 -6.65445251E+00  3.78157541E+00  2.76574171E-04 -8.46189952E+00
 -6.11736000E-01  4.37434319E-04 -5.48530908E+00 -4.28092449E+00  3.48117342E-04
  7.84166716E+00 -1.13733091E+00 -4.23024023E-04  6.56311312E+00  3.74045894E+00
 -2.75776801E-04
Num ILSW                                   I              100
ILSW                                       I   N=         100
           0           1           0           1           2           0
           0           0           0           0           0          -1
           0           0           0           0           0           0
           0           0           0           0           1           0
           1           0           0           0           0           0
           0           0      100000           0          -1           0
           0           0           0           0           0           0
           0           0           0           1           1           0
           0           0           1           0           0           0
           0           0           4          40           0           0
           0           0           0           0           0           0
           0           0           0           0           0           0
           0           0           0           0           0           0
           0           0           0           0           0           0
           0           0           0           0           0           0
           0           0           0           0           0           0
           0           0           0           0
Num RLSW                                   I               40
RLSW                                       R   N=          40
  1.00000000E+00  1.00000000E+00  1.00000000E+00  1.00000000E+00  1.00000000E+00
  0.00000000E+00  0.00000000E+00  1.00000000E+00  0.00000000E+00  0.00000000E+00
  0.00000000E+00  0.00000000E+00  1.00000000E+00  0.00000000E+00  0.00000000E+00
  0.00000000E+00  0.00000000E+00  1.00000000E+00  0.00000000E+00  0.00000000E+00
  0.00000000E+00  0.00000000E+00  1.00000000E+00  0.00000000E+00  0.00000000E+00
  0.00000000E+00  0.00000000E+00  1.00000000E+00  0.00000000E+00  0.00000000E+00
  0.00000000E+00  0.00000000E+00  0.00000000E+00  0.00000000E+00  0.00000000E+00
  0.00000000E+00  0.00000000E+00  0.00000000E+00  1.00000000E+00  1.00000000E+00
MxBond                                     I                3
NBond                                      I   N=          17
           2           2           2           3           3           3
           3           3           3           3           3           1
           1           1           1           1           1
IBond                                      I   N=          51
           5          10           0           4           9           0
           5          11           0           2           5           6
           1           3           4           4           7          12
           6           8          13           7           9          14
           2           8          15           1          11          16
           3          10          17           6           0           0
           7           0           0           8           0           0
           9           0           0          10           0           0
          11           0           0
RBond                                      R   N=          51
  1.00000000E+00  1.00000000E+00  0.00000000E+00  1.50000000E+00  1.50000000E+00
  0.00000000E+00  1.50000000E+00  1.00000000E+00  0.00000000E+00  1.50000000E+00
  1.00000000E+00  1.50000000E+00  1.00000000E+00  1.50000000E+00  1.00000000E+00
  1.50000000E+00  1.50000000E+00  1.00000000E+00  1.50000000E+00  1.50000000E+00
  1.00000000E+00  1.50000000E+00  1.50000000E+00  1.00000000E+00  1.50000000E+00
  1.50000000E+00  1.00000000E+00  1.00000000E+00  1.50000000E+00  1.00000000E+00
  1.00000000E+00  1.50000000E+00  1.00000000E+00  1.00000000E+00  0.00000000E+00
  0.00000000E+00  1.00000000E+00  0.00000000E+00  0.00000000E+00  1.00000000E+00
  0.00000000E+00  0.00000000E+00  1.00000000E+00  0.00000000E+00  0.00000000E+00
  1.00000000E+00  0.00000000E+00  0.00000000E+00  1.00000000E+00  0.00000000E+00
  0.00000000E+00
Virial Ratio                               R      2.001499306548608E+00
SCF Energy                                 R     -8.128368249771487E+02
MP2 Energy                                 R     -8.143037097328243E+02
Total Energy                               R     -8.143037097328243E+02
Post-SCF wavefunction norm                 R      1.760123124143596E+00
RMS Force                                  R      1.363113460071055E-06
RMS Density                                R      1.383648183187034E-09
External E-field                           R   N=          35
  0.00000000E+00  0.00000000E+00  0.00000000E+00  0.00000000E+00  0.00000000E+00
  0.00000000E+00  0.00000000E+00  0.00000000E+00  0.00000000E+00  0.00000000E+00
  0.00000000E+00  0.00000000E+00  0.00000000E+00  0.00000000E+00  0.00000000E+00
  0.00000000E+00  0.00000000E+00  0.00000000E+00  0.00000000E+00  0.00000000E+00
  0.00000000E+00  0.00000000E+00  0.00000000E+00  0.00000000E+00  0.00000000E+00
  0.00000000E+00  0.00000000E+00  0.00000000E+00  0.00000000E+00  0.00000000E+00
  0.00000000E+00  0.00000000E+00  0.00000000E+00  0.00000000E+00  0.00000000E+00
IOpCl                                      I                0
IROHF                                      I                0
Alpha Orbital Energies                     R   N=         181
 -9.19802456E+01 -1.55806605E+01 -1.55759209E+01 -1.13119120E+01 -1.12955658E+01
 -1.12843588E+01 -1.12685209E+01 -1.12666105E+01 -1.12642541E+01 -1.12510614E+01
 -1.12492745E+01 -8.99028422E+00 -6.67253673E+00 -6.67167402E+00 -6.67019242E+00
 -1.28502340E+00 -1.25742520E+00 -1.09310373E+00 -1.06559691E+00 -1.06025832E+00
 -9.83822016E-01 -8.73418458E-01 -8.65522733E-01 -7.87297925E-01 -7.63349793E-01
 -7.03824354E-01 -6.76592917E-01 -6.64638166E-01 -6.36499051E-01 -5.90652081E-01
 -5.84138044E-01 -5.75883743E-01 -5.55608617E-01 -5.30432292E-01 -5.25813846E-01
 -4.99334623E-01 -4.38872596E-01 -4.19535002E-01 -3.94266457E-01 -3.86904348E-01
 -3.66942191E-01 -3.02591509E-01  6.87625275E-02  1.19742886E-01  1.73107347E-01
  1.92946714E-01  2.34353254E-01  2.36602992E-01  2.65675357E-01  2.72633224E-01
  2.91670372E-01  3.12273972E-01  3.17133920E-01  3.24781588E-01  3.61819156E-01
  3.85992645E-01  3.92761570E-01  4.07294375E-01  4.56833260E-01  4.78668968E-01
  4.95684567E-01  5.11228872E-01  5.37014827E-01  5.58729699E-01  5.64052040E-01
  5.98665196E-01  6.52674284E-01  6.79163851E-01  7.15307524E-01  7.37496957E-01
  7.47124895E-01  7.69590667E-01  7.76674452E-01  7.83835772E-01  7.91231772E-01
  7.95826493E-01  8.14204293E-01  8.20547966E-01  8.21676497E-01  8.58746258E-01
  8.72230006E-01  8.83720232E-01  8.94566175E-01  9.22373423E-01  9.43529088E-01
  9.48318846E-01  9.83295730E-01  1.01508277E+00  1.02403801E+00  1.04474998E+00
  1.06220621E+00  1.08238878E+00  1.09130123E+00  1.10143180E+00  1.11510817E+00
  1.12708693E+00  1.14542564E+00  1.14919529E+00  1.15624409E+00  1.16897470E+00
  1.17730690E+00  1.19603909E+00  1.21182122E+00  1.24993537E+00  1.28123678E+00
  1.29214984E+00  1.30495337E+00  1.32197965E+00  1.34296946E+00  1.35828557E+00
  1.41279794E+00  1.45432494E+00  1.48492004E+00  1.49206911E+00  1.51265710E+00
  1.55109339E+00  1.58808932E+00  1.66096011E+00  1.66401587E+00  1.69676180E+00
  1.73089002E+00  1.73732590E+00  1.74602884E+00  1.75371925E+00  1.77040045E+00
  1.78500242E+00  1.86091320E+00  1.90281985E+00  1.97301823E+00  1.99370592E+00
  2.08763854E+00  2.09093134E+00  2.12995117E+00  2.18982510E+00  2.22877787E+00
  2.23863648E+00  2.25714139E+00  2.28989081E+00  2.32570253E+00  2.36504884E+00
  2.41804989E+00  2.45591682E+00  2.45748270E+00  2.49337652E+00  2.49730305E+00
  2.50911043E+00  2.54405099E+00  2.59611406E+00  2.59953150E+00  2.61437305E+00
  2.63826713E+00  2.67832654E+00  2.72295746E+00  2.80057506E+00  2.80472514E+00
  2.86024379E+00  2.87639453E+00  2.90764184E+00  2.96799530E+00  2.99046862E+00
  3.02623370E+00  3.03128805E+00  3.06525388E+00  3.15118597E+00  3.16866470E+00
  3.23327522E+00  3.33718479E+00  3.38868453E+00  3.57839979E+00  3.76730331E+00
  4.35396853E+00  4.44466544E+00  4.48765282E+00  4.50075519E+00  4.53134760E+00
  4.60119465E+00  4.65555246E+00  4.69905262E+00  4.76638158E+00  4.86318612E+00
  5.04593678E+00
Alpha MO coefficients                      R   N=       32761
  9.96254115E-01  1.42485419E-02  1.40223199E-06  9.57746746E-05  1.62317344E-09
 -2.00353521E-02  5.29212014E-05 -2.08924137E-04 -6.92499492E-09  2.14083961E-03
  1.46771671E-05 -2.74416997E-05 -2.36582227E-09  6.86904995E-03  6.89029499E-03
  6.90562562E-03  2.32078291E-06  2.66060030E-09 -9.76966667E-10 -1.29016393E-05
 -5.13853352E-05  8.40853026E-06 -1.51928586E-05  2.41535693E-10  7.78462300E-04
  1.31963178E-04  4.51810123E-04 -1.57455716E-08 -4.71311535E-05  6.71244740E-06
 -2.64074406E-05  2.22044394E-05  1.24505456E-09 -2.46112729E-09 -4.09307804E-05
 -1.66820586E-04  3.03600825E-06  3.11943994E-05  8.53876343E-11  1.63773214E-03
 -1.53030176E-04 -5.03044846E-04  3.32458262E-09 -4.08172856E-05 -8.28724203E-05
 -1.12041238E-04  1.86476184E-05 -4.04832389E-09 -6.83981740E-10 -6.46137452E-06
 -1.81046931E-06  3.20082050E-06 -1.80519137E-05 -4.85236514E-10 -2.67087554E-05
  5.81114772E-05  1.30303445E-03 -1.08709064E-08 -3.14633274E-05 -3.52457191E-05
 -1.02590354E-05  9.90783814E-06  3.03138964E-09 -1.50123803E-10  1.21219269E-05
  1.15972444E-04  1.08156552E-06 -2.58072902E-05 -9.27581838E-10 -8.34376466E-04
 -1.80230003E-05 -1.20590853E-03 -7.91593204E-09  9.88501698E-07 -6.43440242E-05
  6.67228658E-06  4.40937081E-05  2.59309096E-10 -3.06515271E-09 -4.28464326E-07
  1.36422708E-05 -2.34518780E-05  1.24011204E-05  1.12109331E-09 -7.15670628E-04
 -2.31270448E-04  2.11052888E-04  2.45334468E-09 -2.77064274E-05  7.65772941E-06
 -6.88711756E-06  4.31249717E-06  7.81026762E-10  3.76911655E-10 -3.63702720E-06
 -2.07830944E-05  7.56796574E-06  6.74264828E-06 -4.25461804E-10  1.48905946E-04
  2.29102172E-05 -1.54605713E-04  2.76767860E-09  7.84014621E-06 -4.47518003E-07
 -7.93431677E-06  3.02778189E-06 -8.06941016E-10 -1.70392482E-10  1.17209481E-07
  1.05406489E-06  3.36242200E-06 -7.40120565E-06  2.40769287E-10 -2.51541201E-06
 -2.26397855E-05 -1.21121490E-04  1.87480513E-09  1.58738483E-06 -2.19815778E-06