69290                                                                   
Freq      RMP2-FC                                                     6-31G(d)            
Number of atoms                            I               28
Info1-9                                    I   N=           9
          40          38        1002           0           0         100
           6           2           1
Charge                                     I                0
Multiplicity                               I                1
Number of electrons                        I               98
Number of alpha electrons                  I               49
Number of beta electrons                   I               49
Number of basis functions                  I              238
Number of independent functions            I              238
Number of point charges in /Mol/           I                0
Number of translation vectors              I                0
Atomic numbers                             I   N=          28
           6           6           6           6           6           6
           6           6           6           6           6           6
           6           6           1           1           1           1
           1           1           1           1           1           1
           1           1           1           1
Nuclear charges                            R   N=          28
  6.00000000E+00  6.00000000E+00  6.00000000E+00  6.00000000E+00  6.00000000E+00
  6.00000000E+00  6.00000000E+00  6.00000000E+00  6.00000000E+00  6.00000000E+00
  6.00000000E+00  6.00000000E+00  6.00000000E+00  6.00000000E+00  1.00000000E+00
  1.00000000E+00  1.00000000E+00  1.00000000E+00  1.00000000E+00  1.00000000E+00
  1.00000000E+00  1.00000000E+00  1.00000000E+00  1.00000000E+00  1.00000000E+00
  1.00000000E+00  1.00000000E+00  1.00000000E+00
Current cartesian coordinates              R   N=          84
 -1.10072774E+00  3.03193546E+00 -4.18236612E-01  1.42052370E+00  1.69561709E+00
 -2.99394506E-01 -3.28696031E+00  1.22575297E+00 -7.02308488E-02  3.25742434E+00
  2.36557365E+00  1.47791796E+00  1.96769425E+00 -2.66910717E-01 -1.99337677E+00
  6.13366330E+00 -8.41244668E-01 -1.29290993E-01  5.57797394E+00  1.10973718E+00
  1.56517524E+00  4.28529721E+00 -1.51115945E+00 -1.90703408E+00 -3.45099645E+00
 -2.43526734E-01  2.12919247E+00 -5.16593918E+00  9.70234085E-01 -1.91244176E+00
  8.60531982E+00 -2.24844270E+00  4.30792639E-03 -5.45495005E+00 -1.91677079E+00
  2.48086454E+00 -7.17439772E+00 -7.10625389E-01 -1.56992839E+00 -7.32518246E+00
 -2.15625138E+00  6.29573142E-01 -1.30164110E+00  4.00520017E+00 -2.23961601E+00
 -1.16274023E+00  4.50433732E+00  1.04231952E+00  2.87521249E+00  3.89035007E+00
  2.80701375E+00  5.52049362E-01 -8.31528334E-01 -3.37686274E+00  6.98107684E+00
  1.66841737E+00  2.96369130E+00  4.67451728E+00 -3.02331695E+00 -3.24856659E+00
 -1.98087593E+00 -8.20441714E-02  3.56019488E+00 -5.06003098E+00  2.09957819E+00
 -3.62974174E+00  9.24919658E+00 -2.80168703E+00 -1.88070800E+00  1.00778878E+01
 -1.08370513E+00  8.68389114E-01  8.42473477E+00 -3.97420478E+00  1.13377133E+00
 -5.55822117E+00 -3.04122056E+00  4.19843181E+00 -8.61804798E+00 -8.88421228E-01
 -3.02222517E+00 -8.88557354E+00 -3.46526665E+00  9.01324664E-01
Force Field                                I                0
Int Atom Types                             I   N=          28
           0           0           0           0           0           0
           0           0           0           0           0           0
           0           0           0           0           0           0
           0           0           0           0           0           0
           0           0           0           0
MM charges                                 R   N=          28
  0.00000000E+00  0.00000000E+00  0.00000000E+00  0.00000000E+00  0.00000000E+00
  0.00000000E+00  0.00000000E+00  0.00000000E+00  0.00000000E+00  0.00000000E+00
  0.00000000E+00  0.00000000E+00  0.00000000E+00  0.00000000E+00  0.00000000E+00
  0.00000000E+00  0.00000000E+00  0.00000000E+00  0.00000000E+00  0.00000000E+00
  0.00000000E+00  0.00000000E+00  0.00000000E+00  0.00000000E+00  0.00000000E+00
  0.00000000E+00  0.00000000E+00  0.00000000E+00
Integer atomic weights                     I   N=          28
          12          12          12          12          12          12
          12          12          12          12          12          12
          12          12           1           1           1           1
           1           1           1           1           1           1
           1           1           1           1
Real atomic weights                        R   N=          28
  1.20000000E+01  1.20000000E+01  1.20000000E+01  1.20000000E+01  1.20000000E+01
  1.20000000E+01  1.20000000E+01  1.20000000E+01  1.20000000E+01  1.20000000E+01
  1.20000000E+01  1.20000000E+01  1.20000000E+01  1.20000000E+01  1.00782504E+00
  1.00782504E+00  1.00782504E+00  1.00782504E+00  1.00782504E+00  1.00782504E+00
  1.00782504E+00  1.00782504E+00  1.00782504E+00  1.00782504E+00  1.00782504E+00
  1.00782504E+00  1.00782504E+00  1.00782504E+00
Atom fragment info                         I   N=          28
           0           0           0           0           0           0
           0           0           0           0           0           0
           0           0           0           0           0           0
           0           0           0           0           0           0
           0           0           0           0
Atom residue num                           I   N=          28
           0           0           0           0           0           0
           0           0           0           0           0           0
           0           0           0           0           0           0
           0           0           0           0           0           0
           0           0           0           0
Nuclear spins                              I   N=          28
           0           0           0           0           0           0
           0           0           0           0           0           0
           0           0           1           1           1           1
           1           1           1           1           1           1
           1           1           1           1
Nuclear ZEff                               R   N=          28
 -3.60000000E+00 -3.60000000E+00 -3.60000000E+00 -3.60000000E+00 -3.60000000E+00
 -3.60000000E+00 -3.60000000E+00 -3.60000000E+00 -3.60000000E+00 -3.60000000E+00
 -3.60000000E+00 -3.60000000E+00 -3.60000000E+00 -3.60000000E+00 -1.00000000E+00
 -1.00000000E+00 -1.00000000E+00 -1.00000000E+00 -1.00000000E+00 -1.00000000E+00
 -1.00000000E+00 -1.00000000E+00 -1.00000000E+00 -1.00000000E+00 -1.00000000E+00
 -1.00000000E+00 -1.00000000E+00 -1.00000000E+00
Nuclear QMom                               R   N=          28
  0.00000000E+00  0.00000000E+00  0.00000000E+00  0.00000000E+00  0.00000000E+00
  0.00000000E+00  0.00000000E+00  0.00000000E+00  0.00000000E+00  0.00000000E+00
  0.00000000E+00  0.00000000E+00  0.00000000E+00  0.00000000E+00  0.00000000E+00
  0.00000000E+00  0.00000000E+00  0.00000000E+00  0.00000000E+00  0.00000000E+00
  0.00000000E+00  0.00000000E+00  0.00000000E+00  0.00000000E+00  0.00000000E+00
  0.00000000E+00  0.00000000E+00  0.00000000E+00
Nuclear GFac                               R   N=          28
  0.00000000E+00  0.00000000E+00  0.00000000E+00  0.00000000E+00  0.00000000E+00
  0.00000000E+00  0.00000000E+00  0.00000000E+00  0.00000000E+00  0.00000000E+00
  0.00000000E+00  0.00000000E+00  0.00000000E+00  0.00000000E+00  2.79284600E+00
  2.79284600E+00  2.79284600E+00  2.79284600E+00  2.79284600E+00  2.79284600E+00
  2.79284600E+00  2.79284600E+00  2.79284600E+00  2.79284600E+00  2.79284600E+00
  2.79284600E+00  2.79284600E+00  2.79284600E+00
MicOpt                                     I   N=          28
          -1          -1          -1          -1          -1          -1
          -1          -1          -1          -1          -1          -1
          -1          -1          -1          -1          -1          -1
          -1          -1          -1          -1          -1          -1
          -1          -1          -1          -1
Number of contracted shells                I               84
Number of primitive shells                 I              210
Pure/Cartesian d shells                    I                1
Pure/Cartesian f shells                    I                0
Highest angular momentum                   I                2
Largest degree of contraction              I                6
Shell types                                I   N=          84
           0          -1          -1           2           0          -1
          -1           2           0          -1          -1           2
           0          -1          -1           2           0          -1
          -1           2           0          -1          -1           2
           0          -1          -1           2           0          -1
          -1           2           0          -1          -1           2
           0          -1          -1           2           0          -1
          -1           2           0          -1          -1           2
           0          -1          -1           2           0          -1
          -1           2           0           0           0           0
           0           0           0           0           0           0
           0           0           0           0           0           0
           0           0           0           0           0           0
           0           0           0           0           0           0
Number of primitives per shell             I   N=          84
           6           3           1           1           6           3
           1           1           6           3           1           1
           6           3           1           1           6           3
           1           1           6           3           1           1
           6           3           1           1           6           3
           1           1           6           3           1           1
           6           3           1           1           6           3
           1           1           6           3           1           1
           6           3           1           1           6           3
           1           1           3           1           3           1
           3           1           3           1           3           1
           3           1           3           1           3           1
           3           1           3           1           3           1
           3           1           3           1           3           1
Shell to atom map                          I   N=          84
           1           1           1           1           2           2
           2           2           3           3           3           3
           4           4           4           4           5           5
           5           5           6           6           6           6
           7           7           7           7           8           8
           8           8           9           9           9           9
          10          10          10          10          11          11
          11          11          12          12          12          12
          13          13          13          13          14          14
          14          14          15          15          16          16
          17          17          18          18          19          19
          20          20          21          21          22          22
          23          23          24          24          25          25
          26          26          27          27          28          28
Primitive exponents                        R   N=         210
  3.04752488E+03  4.57369518E+02  1.03948685E+02  2.92101553E+01  9.28666296E+00
  3.16392696E+00  7.86827235E+00  1.88128854E+00  5.44249258E-01  1.68714478E-01
  8.00000000E-01  3.04752488E+03  4.57369518E+02  1.03948685E+02  2.92101553E+01
  9.28666296E+00  3.16392696E+00  7.86827235E+00  1.88128854E+00  5.44249258E-01
  1.68714478E-01  8.00000000E-01  3.04752488E+03  4.57369518E+02  1.03948685E+02
  2.92101553E+01  9.28666296E+00  3.16392696E+00  7.86827235E+00  1.88128854E+00
  5.44249258E-01  1.68714478E-01  8.00000000E-01  3.04752488E+03  4.57369518E+02
  1.03948685E+02  2.92101553E+01  9.28666296E+00  3.16392696E+00  7.86827235E+00
  1.88128854E+00  5.44249258E-01  1.68714478E-01  8.00000000E-01  3.04752488E+03
  4.57369518E+02  1.03948685E+02  2.92101553E+01  9.28666296E+00  3.16392696E+00
  7.86827235E+00  1.88128854E+00  5.44249258E-01  1.68714478E-01  8.00000000E-01
  3.04752488E+03  4.57369518E+02  1.03948685E+02  2.92101553E+01  9.28666296E+00
  3.16392696E+00  7.86827235E+00  1.88128854E+00  5.44249258E-01  1.68714478E-01
  8.00000000E-01  3.04752488E+03  4.57369518E+02  1.03948685E+02  2.92101553E+01
  9.28666296E+00  3.16392696E+00  7.86827235E+00  1.88128854E+00  5.44249258E-01
  1.68714478E-01  8.00000000E-01  3.04752488E+03  4.57369518E+02  1.03948685E+02
  2.92101553E+01  9.28666296E+00  3.16392696E+00  7.86827235E+00  1.88128854E+00
  5.44249258E-01  1.68714478E-01  8.00000000E-01  3.04752488E+03  4.57369518E+02
  1.03948685E+02  2.92101553E+01  9.28666296E+00  3.16392696E+00  7.86827235E+00
  1.88128854E+00  5.44249258E-01  1.68714478E-01  8.00000000E-01  3.04752488E+03
  4.57369518E+02  1.03948685E+02  2.92101553E+01  9.28666296E+00  3.16392696E+00
  7.86827235E+00  1.88128854E+00  5.44249258E-01  1.68714478E-01  8.00000000E-01
  3.04752488E+03  4.57369518E+02  1.03948685E+02  2.92101553E+01  9.28666296E+00
  3.16392696E+00  7.86827235E+00  1.88128854E+00  5.44249258E-01  1.68714478E-01
  8.00000000E-01  3.04752488E+03  4.57369518E+02  1.03948685E+02  2.92101553E+01
  9.28666296E+00  3.16392696E+00  7.86827235E+00  1.88128854E+00  5.44249258E-01
  1.68714478E-01  8.00000000E-01  3.04752488E+03  4.57369518E+02  1.03948685E+02
  2.92101553E+01  9.28666296E+00  3.16392696E+00  7.86827235E+00  1.88128854E+00
  5.44249258E-01  1.68714478E-01  8.00000000E-01  3.04752488E+03  4.57369518E+02
  1.03948685E+02  2.92101553E+01  9.28666296E+00  3.16392696E+00  7.86827235E+00
  1.88128854E+00  5.44249258E-01  1.68714478E-01  8.00000000E-01  1.87311370E+01
  2.82539436E+00  6.40121692E-01  1.61277759E-01  1.87311370E+01  2.82539436E+00
  6.40121692E-01  1.61277759E-01  1.87311370E+01  2.82539436E+00  6.40121692E-01
  1.61277759E-01  1.87311370E+01  2.82539436E+00  6.40121692E-01  1.61277759E-01
  1.87311370E+01  2.82539436E+00  6.40121692E-01  1.61277759E-01  1.87311370E+01
  2.82539436E+00  6.40121692E-01  1.61277759E-01  1.87311370E+01  2.82539436E+00
  6.40121692E-01  1.61277759E-01  1.87311370E+01  2.82539436E+00  6.40121692E-01
  1.61277759E-01  1.87311370E+01  2.82539436E+00  6.40121692E-01  1.61277759E-01
  1.87311370E+01  2.82539436E+00  6.40121692E-01  1.61277759E-01  1.87311370E+01
  2.82539436E+00  6.40121692E-01  1.61277759E-01  1.87311370E+01  2.82539436E+00
  6.40121692E-01  1.61277759E-01  1.87311370E+01  2.82539436E+00  6.40121692E-01
  1.61277759E-01  1.87311370E+01  2.82539436E+00  6.40121692E-01  1.61277759E-01
Contraction coefficients                   R   N=         210
  1.83473713E-03  1.40373228E-02  6.88426223E-02  2.32184443E-01  4.67941348E-01
  3.62311985E-01 -1.19332420E-01 -1.60854152E-01  1.14345644E+00  1.00000000E+00
  1.00000000E+00  1.83473713E-03  1.40373228E-02  6.88426223E-02  2.32184443E-01
  4.67941348E-01  3.62311985E-01 -1.19332420E-01 -1.60854152E-01  1.14345644E+00
  1.00000000E+00  1.00000000E+00  1.83473713E-03  1.40373228E-02  6.88426223E-02
  2.32184443E-01  4.67941348E-01  3.62311985E-01 -1.19332420E-01 -1.60854152E-01
  1.14345644E+00  1.00000000E+00  1.00000000E+00  1.83473713E-03  1.40373228E-02
  6.88426223E-02  2.32184443E-01  4.67941348E-01  3.62311985E-01 -1.19332420E-01
 -1.60854152E-01  1.14345644E+00  1.00000000E+00  1.00000000E+00  1.83473713E-03
  1.40373228E-02  6.88426223E-02  2.32184443E-01  4.67941348E-01  3.62311985E-01
 -1.19332420E-01 -1.60854152E-01  1.14345644E+00  1.00000000E+00  1.00000000E+00
  1.83473713E-03  1.40373228E-02  6.88426223E-02  2.32184443E-01  4.67941348E-01
  3.62311985E-01 -1.19332420E-01 -1.60854152E-01  1.14345644E+00  1.00000000E+00
  1.00000000E+00  1.83473713E-03  1.40373228E-02  6.88426223E-02  2.32184443E-01
  4.67941348E-01  3.62311985E-01 -1.19332420E-01 -1.60854152E-01  1.14345644E+00
  1.00000000E+00  1.00000000E+00  1.83473713E-03  1.40373228E-02  6.88426223E-02
  2.32184443E-01  4.67941348E-01  3.62311985E-01 -1.19332420E-01 -1.60854152E-01
  1.14345644E+00  1.00000000E+00  1.00000000E+00  1.83473713E-03  1.40373228E-02
  6.88426223E-02  2.32184443E-01  4.67941348E-01  3.62311985E-01 -1.19332420E-01
 -1.60854152E-01  1.14345644E+00  1.00000000E+00  1.00000000E+00  1.83473713E-03
  1.40373228E-02  6.88426223E-02  2.32184443E-01  4.67941348E-01  3.62311985E-01
 -1.19332420E-01 -1.60854152E-01  1.14345644E+00  1.00000000E+00  1.00000000E+00
  1.83473713E-03  1.40373228E-02  6.88426223E-02  2.32184443E-01  4.67941348E-01
  3.62311985E-01 -1.19332420E-01 -1.60854152E-01  1.14345644E+00  1.00000000E+00
  1.00000000E+00  1.83473713E-03  1.40373228E-02  6.88426223E-02  2.32184443E-01
  4.67941348E-01  3.62311985E-01 -1.19332420E-01 -1.60854152E-01  1.14345644E+00
  1.00000000E+00  1.00000000E+00  1.83473713E-03  1.40373228E-02  6.88426223E-02
  2.32184443E-01  4.67941348E-01  3.62311985E-01 -1.19332420E-01 -1.60854152E-01
  1.14345644E+00  1.00000000E+00  1.00000000E+00  1.83473713E-03  1.40373228E-02
  6.88426223E-02  2.32184443E-01  4.67941348E-01  3.62311985E-01 -1.19332420E-01
 -1.60854152E-01  1.14345644E+00  1.00000000E+00  1.00000000E+00  3.34946043E-02
  2.34726953E-01  8.13757326E-01  1.00000000E+00  3.34946043E-02  2.34726953E-01
  8.13757326E-01  1.00000000E+00  3.34946043E-02  2.34726953E-01  8.13757326E-01
  1.00000000E+00  3.34946043E-02  2.34726953E-01  8.13757326E-01  1.00000000E+00
  3.34946043E-02  2.34726953E-01  8.13757326E-01  1.00000000E+00  3.34946043E-02
  2.34726953E-01  8.13757326E-01  1.00000000E+00  3.34946043E-02  2.34726953E-01
  8.13757326E-01  1.00000000E+00  3.34946043E-02  2.34726953E-01  8.13757326E-01
  1.00000000E+00  3.34946043E-02  2.34726953E-01  8.13757326E-01  1.00000000E+00
  3.34946043E-02  2.34726953E-01  8.13757326E-01  1.00000000E+00  3.34946043E-02
  2.34726953E-01  8.13757326E-01  1.00000000E+00  3.34946043E-02  2.34726953E-01
  8.13757326E-01  1.00000000E+00  3.34946043E-02  2.34726953E-01  8.13757326E-01
  1.00000000E+00  3.34946043E-02  2.34726953E-01  8.13757326E-01  1.00000000E+00
P(S=P) Contraction coefficients            R   N=         210
  0.00000000E+00  0.00000000E+00  0.00000000E+00  0.00000000E+00  0.00000000E+00
  0.00000000E+00  6.89990666E-02  3.16423961E-01  7.44308291E-01  1.00000000E+00
  0.00000000E+00  0.00000000E+00  0.00000000E+00  0.00000000E+00  0.00000000E+00
  0.00000000E+00  0.00000000E+00  6.89990666E-02  3.16423961E-01  7.44308291E-01
  1.00000000E+00  0.00000000E+00  0.00000000E+00  0.00000000E+00  0.00000000E+00
  0.00000000E+00  0.00000000E+00  0.00000000E+00  6.89990666E-02  3.16423961E-01
  7.44308291E-01  1.00000000E+00  0.00000000E+00  0.00000000E+00  0.00000000E+00
  0.00000000E+00  0.00000000E+00  0.00000000E+00  0.00000000E+00  6.89990666E-02
  3.16423961E-01  7.44308291E-01  1.00000000E+00  0.00000000E+00  0.00000000E+00
  0.00000000E+00  0.00000000E+00  0.00000000E+00  0.00000000E+00  0.00000000E+00
  6.89990666E-02  3.16423961E-01  7.44308291E-01  1.00000000E+00  0.00000000E+00
  0.00000000E+00  0.00000000E+00  0.00000000E+00  0.00000000E+00  0.00000000E+00
  0.00000000E+00  6.89990666E-02  3.16423961E-01  7.44308291E-01  1.00000000E+00
  0.00000000E+00  0.00000000E+00  0.00000000E+00  0.00000000E+00  0.00000000E+00
  0.00000000E+00  0.00000000E+00  6.89990666E-02  3.16423961E-01  7.44308291E-01
  1.00000000E+00  0.00000000E+00  0.00000000E+00  0.00000000E+00  0.00000000E+00
  0.00000000E+00  0.00000000E+00  0.00000000E+00  6.89990666E-02  3.16423961E-01
  7.44308291E-01  1.00000000E+00  0.00000000E+00  0.00000000E+00  0.00000000E+00
  0.00000000E+00  0.00000000E+00  0.00000000E+00  0.00000000E+00  6.89990666E-02
  3.16423961E-01  7.44308291E-01  1.00000000E+00  0.00000000E+00  0.00000000E+00
  0.00000000E+00  0.00000000E+00  0.00000000E+00  0.00000000E+00  0.00000000E+00
  6.89990666E-02  3.16423961E-01  7.44308291E-01  1.00000000E+00  0.00000000E+00
  0.00000000E+00  0.00000000E+00  0.00000000E+00  0.00000000E+00  0.00000000E+00
  0.00000000E+00  6.89990666E-02  3.16423961E-01  7.44308291E-01  1.00000000E+00
  0.00000000E+00  0.00000000E+00  0.00000000E+00  0.00000000E+00  0.00000000E+00
  0.00000000E+00  0.00000000E+00  6.89990666E-02  3.16423961E-01  7.44308291E-01
  1.00000000E+00  0.00000000E+00  0.00000000E+00  0.00000000E+00  0.00000000E+00
  0.00000000E+00  0.00000000E+00  0.00000000E+00  6.89990666E-02  3.16423961E-01
  7.44308291E-01  1.00000000E+00  0.00000000E+00  0.00000000E+00  0.00000000E+00
  0.00000000E+00  0.00000000E+00  0.00000000E+00  0.00000000E+00  6.89990666E-02
  3.16423961E-01  7.44308291E-01  1.00000000E+00  0.00000000E+00  0.00000000E+00
  0.00000000E+00  0.00000000E+00  0.00000000E+00  0.00000000E+00  0.00000000E+00
  0.00000000E+00  0.00000000E+00  0.00000000E+00  0.00000000E+00  0.00000000E+00
  0.00000000E+00  0.00000000E+00  0.00000000E+00  0.00000000E+00  0.00000000E+00
  0.00000000E+00  0.00000000E+00  0.00000000E+00  0.00000000E+00  0.00000000E+00
  0.00000000E+00  0.00000000E+00  0.00000000E+00  0.00000000E+00  0.00000000E+00
  0.00000000E+00  0.00000000E+00  0.00000000E+00  0.00000000E+00  0.00000000E+00
  0.00000000E+00  0.00000000E+00  0.00000000E+00  0.00000000E+00  0.00000000E+00
  0.00000000E+00  0.00000000E+00  0.00000000E+00  0.00000000E+00  0.00000000E+00
  0.00000000E+00  0.00000000E+00  0.00000000E+00  0.00000000E+00  0.00000000E+00
  0.00000000E+00  0.00000000E+00  0.00000000E+00  0.00000000E+00  0.00000000E+00
  0.00000000E+00  0.00000000E+00  0.00000000E+00  0.00000000E+00  0.00000000E+00
Coordinates of each shell                  R   N=         252
 -1.10072774E+00  3.03193546E+00 -4.18236612E-01 -1.10072774E+00  3.03193546E+00
 -4.18236612E-01 -1.10072774E+00  3.03193546E+00 -4.18236612E-01 -1.10072774E+00
  3.03193546E+00 -4.18236612E-01  1.42052370E+00  1.69561709E+00 -2.99394506E-01
  1.42052370E+00  1.69561709E+00 -2.99394506E-01  1.42052370E+00  1.69561709E+00
 -2.99394506E-01  1.42052370E+00  1.69561709E+00 -2.99394506E-01 -3.28696031E+00
  1.22575297E+00 -7.02308488E-02 -3.28696031E+00  1.22575297E+00 -7.02308488E-02
 -3.28696031E+00  1.22575297E+00 -7.02308488E-02 -3.28696031E+00  1.22575297E+00
 -7.02308488E-02  3.25742434E+00  2.36557365E+00  1.47791796E+00  3.25742434E+00
  2.36557365E+00  1.47791796E+00  3.25742434E+00  2.36557365E+00  1.47791796E+00
  3.25742434E+00  2.36557365E+00  1.47791796E+00  1.96769425E+00 -2.66910717E-01
 -1.99337677E+00  1.96769425E+00 -2.66910717E-01 -1.99337677E+00  1.96769425E+00
 -2.66910717E-01 -1.99337677E+00  1.96769425E+00 -2.66910717E-01 -1.99337677E+00
  6.13366330E+00 -8.41244668E-01 -1.29290993E-01  6.13366330E+00 -8.41244668E-01
 -1.29290993E-01  6.13366330E+00 -8.41244668E-01 -1.29290993E-01  6.13366330E+00
 -8.41244668E-01 -1.29290993E-01  5.57797394E+00  1.10973718E+00  1.56517524E+00
  5.57797394E+00  1.10973718E+00  1.56517524E+00  5.57797394E+00  1.10973718E+00
  1.56517524E+00  5.57797394E+00  1.10973718E+00  1.56517524E+00  4.28529721E+00
 -1.51115945E+00 -1.90703408E+00  4.28529721E+00 -1.51115945E+00 -1.90703408E+00
  4.28529721E+00 -1.51115945E+00 -1.90703408E+00  4.28529721E+00 -1.51115945E+00
 -1.90703408E+00 -3.45099645E+00 -2.43526734E-01  2.12919247E+00 -3.45099645E+00
 -2.43526734E-01  2.12919247E+00 -3.45099645E+00 -2.43526734E-01  2.12919247E+00
 -3.45099645E+00 -2.43526734E-01  2.12919247E+00 -5.16593918E+00  9.70234085E-01
 -1.91244176E+00 -5.16593918E+00  9.70234085E-01 -1.91244176E+00 -5.16593918E+00
  9.70234085E-01 -1.91244176E+00 -5.16593918E+00  9.70234085E-01 -1.91244176E+00
  8.60531982E+00 -2.24844270E+00  4.30792639E-03  8.60531982E+00 -2.24844270E+00
  4.30792639E-03  8.60531982E+00 -2.24844270E+00  4.30792639E-03  8.60531982E+00
 -2.24844270E+00  4.30792639E-03 -5.45495005E+00 -1.91677079E+00  2.48086454E+00
 -5.45495005E+00 -1.91677079E+00  2.48086454E+00 -5.45495005E+00 -1.91677079E+00
  2.48086454E+00 -5.45495005E+00 -1.91677079E+00  2.48086454E+00 -7.17439772E+00
 -7.10625389E-01 -1.56992839E+00 -7.17439772E+00 -7.10625389E-01 -1.56992839E+00
 -7.17439772E+00 -7.10625389E-01 -1.56992839E+00 -7.17439772E+00 -7.10625389E-01
 -1.56992839E+00 -7.32518246E+00 -2.15625138E+00  6.29573142E-01 -7.32518246E+00
 -2.15625138E+00  6.29573142E-01 -7.32518246E+00 -2.15625138E+00  6.29573142E-01
 -7.32518246E+00 -2.15625138E+00  6.29573142E-01 -1.30164110E+00  4.00520017E+00
 -2.23961601E+00 -1.30164110E+00  4.00520017E+00 -2.23961601E+00 -1.16274023E+00
  4.50433732E+00  1.04231952E+00 -1.16274023E+00  4.50433732E+00  1.04231952E+00
  2.87521249E+00  3.89035007E+00  2.80701375E+00  2.87521249E+00  3.89035007E+00
  2.80701375E+00  5.52049362E-01 -8.31528334E-01 -3.37686274E+00  5.52049362E-01
 -8.31528334E-01 -3.37686274E+00  6.98107684E+00  1.66841737E+00  2.96369130E+00
  6.98107684E+00  1.66841737E+00  2.96369130E+00  4.67451728E+00 -3.02331695E+00
 -3.24856659E+00  4.67451728E+00 -3.02331695E+00 -3.24856659E+00 -1.98087593E+00
 -8.20441714E-02  3.56019488E+00 -1.98087593E+00 -8.20441714E-02  3.56019488E+00
 -5.06003098E+00  2.09957819E+00 -3.62974174E+00 -5.06003098E+00  2.09957819E+00
 -3.62974174E+00  9.24919658E+00 -2.80168703E+00 -1.88070800E+00  9.24919658E+00
 -2.80168703E+00 -1.88070800E+00  1.00778878E+01 -1.08370513E+00  8.68389114E-01
  1.00778878E+01 -1.08370513E+00  8.68389114E-01  8.42473477E+00 -3.97420478E+00
  1.13377133E+00  8.42473477E+00 -3.97420478E+00  1.13377133E+00 -5.55822117E+00
 -3.04122056E+00  4.19843181E+00 -5.55822117E+00 -3.04122056E+00  4.19843181E+00
 -8.61804798E+00 -8.88421228E-01 -3.02222517E+00 -8.61804798E+00 -8.88421228E-01
 -3.02222517E+00 -8.88557354E+00 -3.46526665E+00  9.01324664E-01 -8.88557354E+00
 -3.46526665E+00  9.01324664E-01
Constraint Structure                       R   N=          84
 -1.10072774E+00  3.03193546E+00 -4.18236612E-01  1.42052370E+00  1.69561709E+00
 -2.99394506E-01 -3.28696031E+00  1.22575297E+00 -7.02308488E-02  3.25742434E+00
  2.36557365E+00  1.47791796E+00  1.96769425E+00 -2.66910717E-01 -1.99337677E+00
  6.13366330E+00 -8.41244668E-01 -1.29290993E-01  5.57797394E+00  1.10973718E+00
  1.56517524E+00  4.28529721E+00 -1.51115945E+00 -1.90703408E+00 -3.45099645E+00
 -2.43526734E-01  2.12919247E+00 -5.16593918E+00  9.70234085E-01 -1.91244176E+00
  8.60531982E+00 -2.24844270E+00  4.30792639E-03 -5.45495005E+00 -1.91677079E+00
  2.48086454E+00 -7.17439772E+00 -7.10625389E-01 -1.56992839E+00 -7.32518246E+00
 -2.15625138E+00  6.29573142E-01 -1.30164110E+00  4.00520017E+00 -2.23961601E+00
 -1.16274023E+00  4.50433732E+00  1.04231952E+00  2.87521249E+00  3.89035007E+00
  2.80701375E+00  5.52049362E-01 -8.31528334E-01 -3.37686274E+00  6.98107684E+00
  1.66841737E+00  2.96369130E+00  4.67451728E+00 -3.02331695E+00 -3.24856659E+00
 -1.98087593E+00 -8.20441714E-02  3.56019488E+00 -5.06003098E+00  2.09957819E+00
 -3.62974174E+00  9.24919658E+00 -2.80168703E+00 -1.88070800E+00  1.00778878E+01
 -1.08370513E+00  8.68389114E-01  8.42473477E+00 -3.97420478E+00  1.13377133E+00
 -5.55822117E+00 -3.04122056E+00  4.19843181E+00 -8.61804798E+00 -8.88421228E-01
 -3.02222517E+00 -8.88557354E+00 -3.46526665E+00  9.01324664E-01
Num ILSW                                   I              100
ILSW                                       I   N=         100
           0           1           0           0           2           0
           0           0           0           0           0          -1
           0           0           0           0           0           0
           0           0           0           0           1           0
           1           0           0           0           0           0
           0           0      100000           0          -1           0
           0           0           0           0           0           0
           0           0           0           1           1           0
           0           0           1           0           0           0
           0           0           4          40           0           0
           0           0           0           0           0           0
           0           0           0           0           0           0
           0           0           0           0           0           0
           0           0           0           0           0           0
           0           0           0           0           0           0
           0           0           0           0           0           0
           0           0           0           0
Num RLSW                                   I               40
RLSW                                       R   N=          40
  1.00000000E+00  1.00000000E+00  1.00000000E+00  1.00000000E+00  1.00000000E+00
  0.00000000E+00  0.00000000E+00  1.00000000E+00  0.00000000E+00  0.00000000E+00
  0.00000000E+00  0.00000000E+00  1.00000000E+00  0.00000000E+00  0.00000000E+00
  0.00000000E+00  0.00000000E+00  1.00000000E+00  0.00000000E+00  0.00000000E+00
  0.00000000E+00  0.00000000E+00  1.00000000E+00  0.00000000E+00  0.00000000E+00
  0.00000000E+00  0.00000000E+00  1.00000000E+00  0.00000000E+00  0.00000000E+00
  0.00000000E+00  0.00000000E+00  0.00000000E+00  0.00000000E+00  0.00000000E+00