555605                                                                  
Freq      RMP2-FC                                                     6-31G(d)            
Number of atoms                            I               18
Info1-9                                    I   N=           9
          30          28        1002           0           0         100
           6           2           1
Charge                                     I                0
Multiplicity                               I                1
Number of electrons                        I              106
Number of alpha electrons                  I               53
Number of beta electrons                   I               53
Number of basis functions                  I              209
Number of independent functions            I              209
Number of point charges in /Mol/           I                0
Number of translation vectors              I                0
Atomic numbers                             I   N=          18
          16           9           9           9           8           8
           6           6           6           6           6           6
           6           1           1           1           1           1
Nuclear charges                            R   N=          18
  1.60000000E+01  9.00000000E+00  9.00000000E+00  9.00000000E+00  8.00000000E+00
  8.00000000E+00  6.00000000E+00  6.00000000E+00  6.00000000E+00  6.00000000E+00
  6.00000000E+00  6.00000000E+00  6.00000000E+00  1.00000000E+00  1.00000000E+00
  1.00000000E+00  1.00000000E+00  1.00000000E+00
Current cartesian coordinates              R   N=          54
  1.53771728E+00  1.11572779E-04  1.66281168E+00  2.51659086E+00  2.06254966E+00
 -2.74773796E+00  5.66277670E+00 -1.04627894E-04 -1.04713965E+00  2.51653501E+00
 -2.06287660E+00 -2.74749188E+00  2.14852938E+00  2.43329181E+00  2.82978135E+00
  2.14853624E+00 -2.43291397E+00  2.83010043E+00 -1.66623357E+00  4.56271185E-05
  7.04963386E-01  3.16797085E+00 -9.26733104E-05 -1.42737156E+00 -2.87772720E+00
 -2.31340656E+00  3.16856663E-01 -2.87773718E+00  2.31344551E+00  3.16577931E-01
 -5.39452115E+00 -2.29216971E+00 -4.66100308E-01 -5.39453095E+00  2.29210374E+00
 -4.66376437E-01 -6.64359333E+00 -5.95895297E-05 -8.67863287E-01 -1.87929931E+00
 -4.07150848E+00  6.72372875E-01 -1.87931616E+00  4.07159398E+00  6.71882049E-01
 -6.38062760E+00 -4.06842836E+00 -7.66084921E-01 -6.38064491E+00  4.06832183E+00
 -7.66574694E-01 -8.60500134E+00 -1.00764462E-04 -1.47842945E+00
Force Field                                I                0
Int Atom Types                             I   N=          18
           0           0           0           0           0           0
           0           0           0           0           0           0
           0           0           0           0           0           0
MM charges                                 R   N=          18
  0.00000000E+00  0.00000000E+00  0.00000000E+00  0.00000000E+00  0.00000000E+00
  0.00000000E+00  0.00000000E+00  0.00000000E+00  0.00000000E+00  0.00000000E+00
  0.00000000E+00  0.00000000E+00  0.00000000E+00  0.00000000E+00  0.00000000E+00
  0.00000000E+00  0.00000000E+00  0.00000000E+00
Integer atomic weights                     I   N=          18
          32          19          19          19          16          16
          12          12          12          12          12          12
          12           1           1           1           1           1
Real atomic weights                        R   N=          18
  3.19720718E+01  1.89984032E+01  1.89984032E+01  1.89984032E+01  1.59949146E+01
  1.59949146E+01  1.20000000E+01  1.20000000E+01  1.20000000E+01  1.20000000E+01
  1.20000000E+01  1.20000000E+01  1.20000000E+01  1.00782504E+00  1.00782504E+00
  1.00782504E+00  1.00782504E+00  1.00782504E+00
Atom fragment info                         I   N=          18
           0           0           0           0           0           0
           0           0           0           0           0           0
           0           0           0           0           0           0
Atom residue num                           I   N=          18
           0           0           0           0           0           0
           0           0           0           0           0           0
           0           0           0           0           0           0
Nuclear spins                              I   N=          18
           0           1           1           1           0           0
           0           0           0           0           0           0
           0           1           1           1           1           1
Nuclear ZEff                               R   N=          18
 -1.36000000E+01 -6.75000000E+00 -6.75000000E+00 -6.75000000E+00 -5.60000000E+00
 -5.60000000E+00 -3.60000000E+00 -3.60000000E+00 -3.60000000E+00 -3.60000000E+00
 -3.60000000E+00 -3.60000000E+00 -3.60000000E+00 -1.00000000E+00 -1.00000000E+00
 -1.00000000E+00 -1.00000000E+00 -1.00000000E+00
Nuclear QMom                               R   N=          18
  0.00000000E+00  0.00000000E+00  0.00000000E+00  0.00000000E+00  0.00000000E+00
  0.00000000E+00  0.00000000E+00  0.00000000E+00  0.00000000E+00  0.00000000E+00
  0.00000000E+00  0.00000000E+00  0.00000000E+00  0.00000000E+00  0.00000000E+00
  0.00000000E+00  0.00000000E+00  0.00000000E+00
Nuclear GFac                               R   N=          18
  0.00000000E+00  2.62886700E+00  2.62886700E+00  2.62886700E+00  0.00000000E+00
  0.00000000E+00  0.00000000E+00  0.00000000E+00  0.00000000E+00  0.00000000E+00
  0.00000000E+00  0.00000000E+00  0.00000000E+00  2.79284600E+00  2.79284600E+00
  2.79284600E+00  2.79284600E+00  2.79284600E+00
MicOpt                                     I   N=          18
          -1          -1          -1          -1          -1          -1
          -1          -1          -1          -1          -1          -1
          -1          -1          -1          -1          -1          -1
Number of contracted shells                I               63
Number of primitive shells                 I              169
Pure/Cartesian d shells                    I                1
Pure/Cartesian f shells                    I                0
Highest angular momentum                   I                2
Largest degree of contraction              I                6
Shell types                                I   N=          63
           0          -1          -1          -1           2           0
          -1          -1           2           0          -1          -1
           2           0          -1          -1           2           0
          -1          -1           2           0          -1          -1
           2           0          -1          -1           2           0
          -1          -1           2           0          -1          -1
           2           0          -1          -1           2           0
          -1          -1           2           0          -1          -1
           2           0          -1          -1           2           0
           0           0           0           0           0           0
           0           0           0
Number of primitives per shell             I   N=          63
           6           6           3           1           1           6
           3           1           1           6           3           1
           1           6           3           1           1           6
           3           1           1           6           3           1
           1           6           3           1           1           6
           3           1           1           6           3           1
           1           6           3           1           1           6
           3           1           1           6           3           1
           1           6           3           1           1           3
           1           3           1           3           1           3
           1           3           1
Shell to atom map                          I   N=          63
           1           1           1           1           1           2
           2           2           2           3           3           3
           3           4           4           4           4           5
           5           5           5           6           6           6
           6           7           7           7           7           8
           8           8           8           9           9           9
           9          10          10          10          10          11
          11          11          11          12          12          12
          12          13          13          13          13          14
          14          15          15          16          16          17
          17          18          18
Primitive exponents                        R   N=         169
  2.19171000E+04  3.30149000E+03  7.54146000E+02  2.12711000E+02  6.79896000E+01
  2.30515000E+01  4.23735000E+02  1.00710000E+02  3.21599000E+01  1.18079000E+01
  4.63110000E+00  1.87025000E+00  2.61584000E+00  9.22167000E-01  3.41287000E-01
  1.17167000E-01  6.50000000E-01  7.00171309E+03  1.05136609E+03  2.39285690E+02
  6.73974453E+01  2.15199573E+01  7.40310130E+00  2.08479528E+01  4.80830834E+00
  1.34406986E+00  3.58151393E-01  8.00000000E-01  7.00171309E+03  1.05136609E+03
  2.39285690E+02  6.73974453E+01  2.15199573E+01  7.40310130E+00  2.08479528E+01
  4.80830834E+00  1.34406986E+00  3.58151393E-01  8.00000000E-01  7.00171309E+03
  1.05136609E+03  2.39285690E+02  6.73974453E+01  2.15199573E+01  7.40310130E+00
  2.08479528E+01  4.80830834E+00  1.34406986E+00  3.58151393E-01  8.00000000E-01
  5.48467166E+03  8.25234946E+02  1.88046958E+02  5.29645000E+01  1.68975704E+01
  5.79963534E+00  1.55396162E+01  3.59993359E+00  1.01376175E+00  2.70005823E-01
  8.00000000E-01  5.48467166E+03  8.25234946E+02  1.88046958E+02  5.29645000E+01
  1.68975704E+01  5.79963534E+00  1.55396162E+01  3.59993359E+00  1.01376175E+00
  2.70005823E-01  8.00000000E-01  3.04752488E+03  4.57369518E+02  1.03948685E+02
  2.92101553E+01  9.28666296E+00  3.16392696E+00  7.86827235E+00  1.88128854E+00
  5.44249258E-01  1.68714478E-01  8.00000000E-01  3.04752488E+03  4.57369518E+02
  1.03948685E+02  2.92101553E+01  9.28666296E+00  3.16392696E+00  7.86827235E+00
  1.88128854E+00  5.44249258E-01  1.68714478E-01  8.00000000E-01  3.04752488E+03
  4.57369518E+02  1.03948685E+02  2.92101553E+01  9.28666296E+00  3.16392696E+00
  7.86827235E+00  1.88128854E+00  5.44249258E-01  1.68714478E-01  8.00000000E-01
  3.04752488E+03  4.57369518E+02  1.03948685E+02  2.92101553E+01  9.28666296E+00
  3.16392696E+00  7.86827235E+00  1.88128854E+00  5.44249258E-01  1.68714478E-01
  8.00000000E-01  3.04752488E+03  4.57369518E+02  1.03948685E+02  2.92101553E+01
  9.28666296E+00  3.16392696E+00  7.86827235E+00  1.88128854E+00  5.44249258E-01
  1.68714478E-01  8.00000000E-01  3.04752488E+03  4.57369518E+02  1.03948685E+02
  2.92101553E+01  9.28666296E+00  3.16392696E+00  7.86827235E+00  1.88128854E+00
  5.44249258E-01  1.68714478E-01  8.00000000E-01  3.04752488E+03  4.57369518E+02
  1.03948685E+02  2.92101553E+01  9.28666296E+00  3.16392696E+00  7.86827235E+00
  1.88128854E+00  5.44249258E-01  1.68714478E-01  8.00000000E-01  1.87311370E+01
  2.82539436E+00  6.40121692E-01  1.61277759E-01  1.87311370E+01  2.82539436E+00
  6.40121692E-01  1.61277759E-01  1.87311370E+01  2.82539436E+00  6.40121692E-01
  1.61277759E-01  1.87311370E+01  2.82539436E+00  6.40121692E-01  1.61277759E-01
  1.87311370E+01  2.82539436E+00  6.40121692E-01  1.61277759E-01
Contraction coefficients                   R   N=         169
  1.86924085E-03  1.42303065E-02  6.96962317E-02  2.38487108E-01  4.83307220E-01
  3.38074154E-01 -2.37677050E-03 -3.16930067E-02 -1.13317024E-01  5.60900118E-02
  5.92255124E-01  4.55006095E-01 -2.50373114E-01  6.69567631E-02  1.05450627E+00
  1.00000000E+00  1.00000000E+00  1.81961690E-03  1.39160796E-02  6.84053245E-02
  2.33185760E-01  4.71267439E-01  3.56618546E-01 -1.08506975E-01 -1.46451658E-01
  1.12868858E+00  1.00000000E+00  1.00000000E+00  1.81961690E-03  1.39160796E-02
  6.84053245E-02  2.33185760E-01  4.71267439E-01  3.56618546E-01 -1.08506975E-01
 -1.46451658E-01  1.12868858E+00  1.00000000E+00  1.00000000E+00  1.81961690E-03
  1.39160796E-02  6.84053245E-02  2.33185760E-01  4.71267439E-01  3.56618546E-01
 -1.08506975E-01 -1.46451658E-01  1.12868858E+00  1.00000000E+00  1.00000000E+00
  1.83107443E-03  1.39501722E-02  6.84450781E-02  2.32714336E-01  4.70192898E-01
  3.58520853E-01 -1.10777550E-01 -1.48026263E-01  1.13076702E+00  1.00000000E+00
  1.00000000E+00  1.83107443E-03  1.39501722E-02  6.84450781E-02  2.32714336E-01
  4.70192898E-01  3.58520853E-01 -1.10777550E-01 -1.48026263E-01  1.13076702E+00
  1.00000000E+00  1.00000000E+00  1.83473713E-03  1.40373228E-02  6.88426223E-02
  2.32184443E-01  4.67941348E-01  3.62311985E-01 -1.19332420E-01 -1.60854152E-01
  1.14345644E+00  1.00000000E+00  1.00000000E+00  1.83473713E-03  1.40373228E-02
  6.88426223E-02  2.32184443E-01  4.67941348E-01  3.62311985E-01 -1.19332420E-01
 -1.60854152E-01  1.14345644E+00  1.00000000E+00  1.00000000E+00  1.83473713E-03
  1.40373228E-02  6.88426223E-02  2.32184443E-01  4.67941348E-01  3.62311985E-01
 -1.19332420E-01 -1.60854152E-01  1.14345644E+00  1.00000000E+00  1.00000000E+00
  1.83473713E-03  1.40373228E-02  6.88426223E-02  2.32184443E-01  4.67941348E-01
  3.62311985E-01 -1.19332420E-01 -1.60854152E-01  1.14345644E+00  1.00000000E+00
  1.00000000E+00  1.83473713E-03  1.40373228E-02  6.88426223E-02  2.32184443E-01
  4.67941348E-01  3.62311985E-01 -1.19332420E-01 -1.60854152E-01  1.14345644E+00
  1.00000000E+00  1.00000000E+00  1.83473713E-03  1.40373228E-02  6.88426223E-02
  2.32184443E-01  4.67941348E-01  3.62311985E-01 -1.19332420E-01 -1.60854152E-01
  1.14345644E+00  1.00000000E+00  1.00000000E+00  1.83473713E-03  1.40373228E-02
  6.88426223E-02  2.32184443E-01  4.67941348E-01  3.62311985E-01 -1.19332420E-01
 -1.60854152E-01  1.14345644E+00  1.00000000E+00  1.00000000E+00  3.34946043E-02
  2.34726953E-01  8.13757326E-01  1.00000000E+00  3.34946043E-02  2.34726953E-01
  8.13757326E-01  1.00000000E+00  3.34946043E-02  2.34726953E-01  8.13757326E-01
  1.00000000E+00  3.34946043E-02  2.34726953E-01  8.13757326E-01  1.00000000E+00
  3.34946043E-02  2.34726953E-01  8.13757326E-01  1.00000000E+00
P(S=P) Contraction coefficients            R   N=         169
  0.00000000E+00  0.00000000E+00  0.00000000E+00  0.00000000E+00  0.00000000E+00
  0.00000000E+00  4.06100998E-03  3.06812999E-02  1.30451999E-01  3.27204999E-01
  4.52850998E-01  2.56041999E-01 -1.45104895E-02  3.10262776E-01  7.54482456E-01
  1.00000000E+00  0.00000000E+00  0.00000000E+00  0.00000000E+00  0.00000000E+00
  0.00000000E+00  0.00000000E+00  0.00000000E+00  7.16287242E-02  3.45912103E-01
  7.22469956E-01  1.00000000E+00  0.00000000E+00  0.00000000E+00  0.00000000E+00
  0.00000000E+00  0.00000000E+00  0.00000000E+00  0.00000000E+00  7.16287242E-02
  3.45912103E-01  7.22469956E-01  1.00000000E+00  0.00000000E+00  0.00000000E+00
  0.00000000E+00  0.00000000E+00  0.00000000E+00  0.00000000E+00  0.00000000E+00
  7.16287242E-02  3.45912103E-01  7.22469956E-01  1.00000000E+00  0.00000000E+00
  0.00000000E+00  0.00000000E+00  0.00000000E+00  0.00000000E+00  0.00000000E+00
  0.00000000E+00  7.08742682E-02  3.39752839E-01  7.27158577E-01  1.00000000E+00
  0.00000000E+00  0.00000000E+00  0.00000000E+00  0.00000000E+00  0.00000000E+00
  0.00000000E+00  0.00000000E+00  7.08742682E-02  3.39752839E-01  7.27158577E-01
  1.00000000E+00  0.00000000E+00  0.00000000E+00  0.00000000E+00  0.00000000E+00
  0.00000000E+00  0.00000000E+00  0.00000000E+00  6.89990666E-02  3.16423961E-01
  7.44308291E-01  1.00000000E+00  0.00000000E+00  0.00000000E+00  0.00000000E+00
  0.00000000E+00  0.00000000E+00  0.00000000E+00  0.00000000E+00  6.89990666E-02
  3.16423961E-01  7.44308291E-01  1.00000000E+00  0.00000000E+00  0.00000000E+00
  0.00000000E+00  0.00000000E+00  0.00000000E+00  0.00000000E+00  0.00000000E+00
  6.89990666E-02  3.16423961E-01  7.44308291E-01  1.00000000E+00  0.00000000E+00
  0.00000000E+00  0.00000000E+00  0.00000000E+00  0.00000000E+00  0.00000000E+00
  0.00000000E+00  6.89990666E-02  3.16423961E-01  7.44308291E-01  1.00000000E+00
  0.00000000E+00  0.00000000E+00  0.00000000E+00  0.00000000E+00  0.00000000E+00
  0.00000000E+00  0.00000000E+00  6.89990666E-02  3.16423961E-01  7.44308291E-01
  1.00000000E+00  0.00000000E+00  0.00000000E+00  0.00000000E+00  0.00000000E+00
  0.00000000E+00  0.00000000E+00  0.00000000E+00  6.89990666E-02  3.16423961E-01
  7.44308291E-01  1.00000000E+00  0.00000000E+00  0.00000000E+00  0.00000000E+00
  0.00000000E+00  0.00000000E+00  0.00000000E+00  0.00000000E+00  6.89990666E-02
  3.16423961E-01  7.44308291E-01  1.00000000E+00  0.00000000E+00  0.00000000E+00
  0.00000000E+00  0.00000000E+00  0.00000000E+00  0.00000000E+00  0.00000000E+00
  0.00000000E+00  0.00000000E+00  0.00000000E+00  0.00000000E+00  0.00000000E+00
  0.00000000E+00  0.00000000E+00  0.00000000E+00  0.00000000E+00  0.00000000E+00
  0.00000000E+00  0.00000000E+00  0.00000000E+00  0.00000000E+00
Coordinates of each shell                  R   N=         189
  1.53771728E+00  1.11572779E-04  1.66281168E+00  1.53771728E+00  1.11572779E-04
  1.66281168E+00  1.53771728E+00  1.11572779E-04  1.66281168E+00  1.53771728E+00
  1.11572779E-04  1.66281168E+00  1.53771728E+00  1.11572779E-04  1.66281168E+00
  2.51659086E+00  2.06254966E+00 -2.74773796E+00  2.51659086E+00  2.06254966E+00
 -2.74773796E+00  2.51659086E+00  2.06254966E+00 -2.74773796E+00  2.51659086E+00
  2.06254966E+00 -2.74773796E+00  5.66277670E+00 -1.04627894E-04 -1.04713965E+00
  5.66277670E+00 -1.04627894E-04 -1.04713965E+00  5.66277670E+00 -1.04627894E-04
 -1.04713965E+00  5.66277670E+00 -1.04627894E-04 -1.04713965E+00  2.51653501E+00
 -2.06287660E+00 -2.74749188E+00  2.51653501E+00 -2.06287660E+00 -2.74749188E+00
  2.51653501E+00 -2.06287660E+00 -2.74749188E+00  2.51653501E+00 -2.06287660E+00
 -2.74749188E+00  2.14852938E+00  2.43329181E+00  2.82978135E+00  2.14852938E+00
  2.43329181E+00  2.82978135E+00  2.14852938E+00  2.43329181E+00  2.82978135E+00
  2.14852938E+00  2.43329181E+00  2.82978135E+00  2.14853624E+00 -2.43291397E+00
  2.83010043E+00  2.14853624E+00 -2.43291397E+00  2.83010043E+00  2.14853624E+00
 -2.43291397E+00  2.83010043E+00  2.14853624E+00 -2.43291397E+00  2.83010043E+00
 -1.66623357E+00  4.56271185E-05  7.04963386E-01 -1.66623357E+00  4.56271185E-05
  7.04963386E-01 -1.66623357E+00  4.56271185E-05  7.04963386E-01 -1.66623357E+00
  4.56271185E-05  7.04963386E-01  3.16797085E+00 -9.26733104E-05 -1.42737156E+00
  3.16797085E+00 -9.26733104E-05 -1.42737156E+00  3.16797085E+00 -9.26733104E-05
 -1.42737156E+00  3.16797085E+00 -9.26733104E-05 -1.42737156E+00 -2.87772720E+00
 -2.31340656E+00  3.16856663E-01 -2.87772720E+00 -2.31340656E+00  3.16856663E-01
 -2.87772720E+00 -2.31340656E+00  3.16856663E-01 -2.87772720E+00 -2.31340656E+00
  3.16856663E-01 -2.87773718E+00  2.31344551E+00  3.16577931E-01 -2.87773718E+00
  2.31344551E+00  3.16577931E-01 -2.87773718E+00  2.31344551E+00  3.16577931E-01
 -2.87773718E+00  2.31344551E+00  3.16577931E-01 -5.39452115E+00 -2.29216971E+00
 -4.66100308E-01 -5.39452115E+00 -2.29216971E+00 -4.66100308E-01 -5.39452115E+00
 -2.29216971E+00 -4.66100308E-01 -5.39452115E+00 -2.29216971E+00 -4.66100308E-01
 -5.39453095E+00  2.29210374E+00 -4.66376437E-01 -5.39453095E+00  2.29210374E+00
 -4.66376437E-01 -5.39453095E+00  2.29210374E+00 -4.66376437E-01 -5.39453095E+00
  2.29210374E+00 -4.66376437E-01 -6.64359333E+00 -5.95895297E-05 -8.67863287E-01
 -6.64359333E+00 -5.95895297E-05 -8.67863287E-01 -6.64359333E+00 -5.95895297E-05
 -8.67863287E-01 -6.64359333E+00 -5.95895297E-05 -8.67863287E-01 -1.87929931E+00
 -4.07150848E+00  6.72372875E-01 -1.87929931E+00 -4.07150848E+00  6.72372875E-01
 -1.87931616E+00  4.07159398E+00  6.71882049E-01 -1.87931616E+00  4.07159398E+00
  6.71882049E-01 -6.38062760E+00 -4.06842836E+00 -7.66084921E-01 -6.38062760E+00
 -4.06842836E+00 -7.66084921E-01 -6.38064491E+00  4.06832183E+00 -7.66574694E-01
 -6.38064491E+00  4.06832183E+00 -7.66574694E-01 -8.60500134E+00 -1.00764462E-04
 -1.47842945E+00 -8.60500134E+00 -1.00764462E-04 -1.47842945E+00
Constraint Structure                       R   N=          54
  1.53771728E+00  1.11572779E-04  1.66281168E+00  2.51659086E+00  2.06254966E+00
 -2.74773796E+00  5.66277670E+00 -1.04627894E-04 -1.04713965E+00  2.51653501E+00
 -2.06287660E+00 -2.74749188E+00  2.14852938E+00  2.43329181E+00  2.82978135E+00
  2.14853624E+00 -2.43291397E+00  2.83010043E+00 -1.66623357E+00  4.56271185E-05
  7.04963386E-01  3.16797085E+00 -9.26733104E-05 -1.42737156E+00 -2.87772720E+00
 -2.31340656E+00  3.16856663E-01 -2.87773718E+00  2.31344551E+00  3.16577931E-01
 -5.39452115E+00 -2.29216971E+00 -4.66100308E-01 -5.39453095E+00  2.29210374E+00
 -4.66376437E-01 -6.64359333E+00 -5.95895297E-05 -8.67863287E-01 -1.87929931E+00
 -4.07150848E+00  6.72372875E-01 -1.87931616E+00  4.07159398E+00  6.71882049E-01
 -6.38062760E+00 -4.06842836E+00 -7.66084921E-01 -6.38064491E+00  4.06832183E+00
 -7.66574694E-01 -8.60500134E+00 -1.00764462E-04 -1.47842945E+00
Num ILSW                                   I              100
ILSW                                       I   N=         100
           0           1           0           0           2           0
           0           0           0           0           0          -1
           0           0           0           0           0           0
           0           0           0           0           1           0
           1           0           0           0           0           0
           0           0      100000           0          -1           0
           0           0           0           0           0           0
           0           0           0           1           1           0
           0           0           1           0           0           0
           0           0           4          40           0           0
           0           0           0           0           0           0
           0           0           0           0           0           0
           0           0           0           0           0           0
           0           0           0           0           0           0
           0           0           0           0           0           0
           0           0           0           0           0           0
           0           0           0           0
Num RLSW                                   I               40
RLSW                                       R   N=          40
  1.00000000E+00  1.00000000E+00  1.00000000E+00  1.00000000E+00  1.00000000E+00
  0.00000000E+00  0.00000000E+00  1.00000000E+00  0.00000000E+00  0.00000000E+00
  0.00000000E+00  0.00000000E+00  1.00000000E+00  0.00000000E+00  0.00000000E+00
  0.00000000E+00  0.00000000E+00  1.00000000E+00  0.00000000E+00  0.00000000E+00
  0.00000000E+00  0.00000000E+00  1.00000000E+00  0.00000000E+00  0.00000000E+00
  0.00000000E+00  0.00000000E+00  1.00000000E+00  0.00000000E+00  0.00000000E+00
  0.00000000E+00  0.00000000E+00  0.00000000E+00  0.00000000E+00  0.00000000E+00
  0.00000000E+00  0.00000000E+00  0.00000000E+00  1.00000000E+00  1.00000000E+00
MxBond                                     I                4
NBond                                      I   N=          18
           4           1           1           1           1           1
           3           4           3           3           3           3
           3           1           1           1           1           1
IBond                                      I   N=          72
           5           6           7           8           8           0
           0           0           8           0           0           0
           8           0           0           0           1           0
           0           0           1           0           0           0
           1           9          10           0           1           2
           3           4           7          11          14           0
           7          12          15           0           9          13
          16           0          10          13          17           0
          11          12          18           0           9           0
           0           0          10           0           0           0
          11           0           0           0          12           0
           0           0          13           0           0           0
RBond                                      R   N=          72
  2.00000000E+00  2.00000000E+00  1.00000000E+00  1.00000000E+00  1.00000000E+00
  0.00000000E+00  0.00000000E+00  0.00000000E+00  1.00000000E+00  0.00000000E+00
  0.00000000E+00  0.00000000E+00  1.00000000E+00  0.00000000E+00  0.00000000E+00
  0.00000000E+00  2.00000000E+00  0.00000000E+00  0.00000000E+00  0.00000000E+00
  2.00000000E+00  0.00000000E+00  0.00000000E+00  0.00000000E+00  1.00000000E+00
  1.50000000E+00  1.50000000E+00  0.00000000E+00  1.00000000E+00  1.00000000E+00
  1.00000000E+00  1.00000000E+00  1.50000000E+00  1.50000000E+00  1.00000000E+00
  0.00000000E+00  1.50000000E+00  1.50000000E+00  1.00000000E+00  0.00000000E+00
  1.50000000E+00  1.50000000E+00  1.00000000E+00  0.00000000E+00  1.50000000E+00
  1.50000000E+00  1.00000000E+00  0.00000000E+00  1.50000000E+00  1.50000000E+00
  1.00000000E+00  0.00000000E+00  1.00000000E+00  0.00000000E+00  0.00000000E+00
  0.00000000E+00  1.00000000E+00  0.00000000E+00  0.00000000E+00  0.00000000E+00
  1.00000000E+00  0.00000000E+00  0.00000000E+00  0.00000000E+00  1.00000000E+00
  0.00000000E+00  0.00000000E+00  0.00000000E+00  1.00000000E+00  0.00000000E+00
  0.00000000E+00  0.00000000E+00
Virial Ratio                               R      2.002182993812954E+00
SCF Energy                                 R     -1.113448761601178E+03
MP2 Energy                                 R     -1.115352112008819E+03
Total Energy                               R     -1.115352112008819E+03
Post-SCF wavefunction norm                 R      1.785395209713616E+00
RMS Force                                  R      1.223165554662749E-07
RMS Density                                R      1.204717057767216E-09
External E-field                           R   N=          35
  0.00000000E+00  0.00000000E+00  0.00000000E+00  0.00000000E+00  0.00000000E+00
  0.00000000E+00  0.00000000E+00  0.00000000E+00  0.00000000E+00  0.00000000E+00
  0.00000000E+00  0.00000000E+00  0.00000000E+00  0.00000000E+00  0.00000000E+00
  0.00000000E+00  0.00000000E+00  0.00000000E+00  0.00000000E+00  0.00000000E+00
  0.00000000E+00  0.00000000E+00  0.00000000E+00  0.00000000E+00  0.00000000E+00
  0.00000000E+00  0.00000000E+00  0.00000000E+00  0.00000000E+00  0.00000000E+00
  0.00000000E+00  0.00000000E+00  0.00000000E+00  0.00000000E+00  0.00000000E+00
IOpCl                                      I                0
IROHF                                      I                0
Alpha Orbital Energies                     R   N=         209
 -9.22217183E+01 -2.63769260E+01 -2.63769079E+01 -2.63743269E+01 -2.05848516E+01
 -2.05848333E+01 -1.15541111E+01 -1.13001910E+01 -1.12874463E+01 -1.12873810E+01
 -1.12816268E+01 -1.12723530E+01 -1.12722740E+01 -9.19750109E+00 -6.88294707E+00
 -6.88279677E+00 -6.88229059E+00 -1.75590577E+00 -1.66324020E+00 -1.66252242E+00
 -1.47132489E+00 -1.36192328E+00 -1.19573965E+00 -1.08391435E+00 -1.05488122E+00
 -1.02873799E+00 -9.34627258E-01 -8.69636792E-01 -8.67372033E-01 -8.47974689E-01
 -8.46335907E-01 -7.99820069E-01 -7.47317388E-01 -7.32368094E-01 -7.29601821E-01
 -6.93036724E-01 -6.90080607E-01 -6.83915708E-01 -6.74106576E-01 -6.72518805E-01
 -6.67695472E-01 -6.49215929E-01 -6.42251642E-01 -6.27218452E-01 -5.58969288E-01
 -5.42107318E-01 -5.34706857E-01 -5.19923674E-01 -5.13010151E-01 -4.92887827E-01
 -4.64948544E-01 -3.84083422E-01 -3.70271051E-01  7.13262077E-02  1.06573086E-01
  2.03246607E-01  2.28995361E-01  2.32625805E-01  2.41306281E-01  2.67277206E-01
  2.68441967E-01  3.03325480E-01  3.10696501E-01  3.23240938E-01  3.33949006E-01
  3.75384812E-01  3.83618755E-01  4.04192339E-01  4.24894717E-01  4.38821280E-01
  4.58944010E-01  4.88485213E-01  5.05257730E-01  5.32710058E-01  5.75557533E-01
  6.14927724E-01  6.77862675E-01  6.79800124E-01  6.98140260E-01  7.31594907E-01
  7.44960646E-01  7.59668732E-01  7.65341807E-01  7.75121703E-01  7.88402006E-01
  7.99612438E-01  8.02926201E-01  8.07069829E-01  8.42577740E-01  8.44727948E-01
  8.92042456E-01  9.20383286E-01  9.29316971E-01  9.83797731E-01  1.01089967E+00
  1.01141918E+00  1.02129439E+00  1.05416396E+00  1.06503539E+00  1.08221046E+00
  1.08333671E+00  1.12144092E+00  1.13916477E+00  1.14588024E+00  1.15688359E+00
  1.18278793E+00  1.20558967E+00  1.22229000E+00  1.26753586E+00  1.30378638E+00
  1.30804562E+00  1.31997545E+00  1.32424842E+00  1.33247993E+00  1.37784864E+00
  1.39374858E+00  1.41688175E+00  1.42919041E+00  1.43930988E+00  1.44013196E+00
  1.46495328E+00  1.46921318E+00  1.51342378E+00  1.54457654E+00  1.56104986E+00
  1.61639600E+00  1.61918276E+00  1.62787057E+00  1.63164535E+00  1.63661252E+00
  1.63848451E+00  1.66840318E+00  1.67067311E+00  1.68537440E+00  1.71089786E+00
  1.73415929E+00  1.74899224E+00  1.81017013E+00  1.87413023E+00  1.91714879E+00
  1.93355844E+00  1.95622575E+00  2.00176505E+00  2.02788055E+00  2.06604068E+00
  2.07514141E+00  2.08364489E+00  2.08505127E+00  2.11432238E+00  2.12169159E+00
  2.14085691E+00  2.15685113E+00  2.16619277E+00  2.17766601E+00  2.23549728E+00
  2.24439380E+00  2.25714258E+00  2.26086347E+00  2.29051088E+00  2.30370746E+00
  2.31067558E+00  2.33234547E+00  2.34772407E+00  2.38201017E+00  2.39559167E+00