5364752                                                                 
Freq      RMP2-FC                                                     6-31G(d)            
Number of atoms                            I               14
Info1-9                                    I   N=           9
          26          24        1002           0           0         100
           6           2           1
Charge                                     I                0
Multiplicity                               I                1
Number of electrons                        I               46
Number of alpha electrons                  I               23
Number of beta electrons                   I               23
Number of basis functions                  I              106
Number of independent functions            I              106
Number of point charges in /Mol/           I                0
Number of translation vectors              I                0
Atomic numbers                             I   N=          14
           8           6           6           6           6           6
           1           1           1           1           1           1
           1           1
Nuclear charges                            R   N=          14
  8.00000000E+00  6.00000000E+00  6.00000000E+00  6.00000000E+00  6.00000000E+00
  6.00000000E+00  1.00000000E+00  1.00000000E+00  1.00000000E+00  1.00000000E+00
  1.00000000E+00  1.00000000E+00  1.00000000E+00  1.00000000E+00
Current cartesian coordinates              R   N=          42
  5.77655471E+00  1.26779152E-01  5.79030823E-01 -3.37752740E+00  9.47649121E-01
 -6.25265266E-01 -5.21371881E+00 -7.01121532E-01  8.90290925E-01 -8.28689870E-01
 -2.53829846E-01 -8.38477799E-01  1.33787694E+00  7.14501009E-01  7.36259963E-02
  3.73587361E+00 -6.51456649E-01 -2.06662781E-01 -3.19581283E+00  2.81046987E+00
  2.58923087E-01 -4.14646209E+00  1.25276598E+00 -2.52732483E+00 -5.43587038E+00
 -2.55998658E+00  1.35102538E-02 -7.07850083E+00  1.82933819E-01  9.94002020E-01
 -4.52032946E+00 -9.80012971E-01  2.81603415E+00 -7.58895098E-01 -2.08819398E+00
 -1.78596097E+00  1.40029841E+00  2.52802163E+00  1.04104503E+00  3.60024785E+00
 -2.49468360E+00 -1.20354177E+00
Force Field                                I                0
Int Atom Types                             I   N=          14
           0           0           0           0           0           0
           0           0           0           0           0           0
           0           0
MM charges                                 R   N=          14
  0.00000000E+00  0.00000000E+00  0.00000000E+00  0.00000000E+00  0.00000000E+00
  0.00000000E+00  0.00000000E+00  0.00000000E+00  0.00000000E+00  0.00000000E+00
  0.00000000E+00  0.00000000E+00  0.00000000E+00  0.00000000E+00
Integer atomic weights                     I   N=          14
          16          12          12          12          12          12
           1           1           1           1           1           1
           1           1
Real atomic weights                        R   N=          14
  1.59949146E+01  1.20000000E+01  1.20000000E+01  1.20000000E+01  1.20000000E+01
  1.20000000E+01  1.00782504E+00  1.00782504E+00  1.00782504E+00  1.00782504E+00
  1.00782504E+00  1.00782504E+00  1.00782504E+00  1.00782504E+00
Atom fragment info                         I   N=          14
           0           0           0           0           0           0
           0           0           0           0           0           0
           0           0
Atom residue num                           I   N=          14
           0           0           0           0           0           0
           0           0           0           0           0           0
           0           0
Nuclear spins                              I   N=          14
           0           0           0           0           0           0
           1           1           1           1           1           1
           1           1
Nuclear ZEff                               R   N=          14
 -5.60000000E+00 -3.60000000E+00 -3.60000000E+00 -3.60000000E+00 -3.60000000E+00
 -3.60000000E+00 -1.00000000E+00 -1.00000000E+00 -1.00000000E+00 -1.00000000E+00
 -1.00000000E+00 -1.00000000E+00 -1.00000000E+00 -1.00000000E+00
Nuclear QMom                               R   N=          14
  0.00000000E+00  0.00000000E+00  0.00000000E+00  0.00000000E+00  0.00000000E+00
  0.00000000E+00  0.00000000E+00  0.00000000E+00  0.00000000E+00  0.00000000E+00
  0.00000000E+00  0.00000000E+00  0.00000000E+00  0.00000000E+00
Nuclear GFac                               R   N=          14
  0.00000000E+00  0.00000000E+00  0.00000000E+00  0.00000000E+00  0.00000000E+00
  0.00000000E+00  2.79284600E+00  2.79284600E+00  2.79284600E+00  2.79284600E+00
  2.79284600E+00  2.79284600E+00  2.79284600E+00  2.79284600E+00
MicOpt                                     I   N=          14
          -1          -1          -1          -1          -1          -1
          -1          -1          -1          -1          -1          -1
          -1          -1
Number of contracted shells                I               40
Number of primitive shells                 I               98
Pure/Cartesian d shells                    I                1
Pure/Cartesian f shells                    I                0
Highest angular momentum                   I                2
Largest degree of contraction              I                6
Shell types                                I   N=          40
           0          -1          -1           2           0          -1
          -1           2           0          -1          -1           2
           0          -1          -1           2           0          -1
          -1           2           0          -1          -1           2
           0           0           0           0           0           0
           0           0           0           0           0           0
           0           0           0           0
Number of primitives per shell             I   N=          40
           6           3           1           1           6           3
           1           1           6           3           1           1
           6           3           1           1           6           3
           1           1           6           3           1           1
           3           1           3           1           3           1
           3           1           3           1           3           1
           3           1           3           1
Shell to atom map                          I   N=          40
           1           1           1           1           2           2
           2           2           3           3           3           3
           4           4           4           4           5           5
           5           5           6           6           6           6
           7           7           8           8           9           9
          10          10          11          11          12          12
          13          13          14          14
Primitive exponents                        R   N=          98
  5.48467166E+03  8.25234946E+02  1.88046958E+02  5.29645000E+01  1.68975704E+01
  5.79963534E+00  1.55396162E+01  3.59993359E+00  1.01376175E+00  2.70005823E-01
  8.00000000E-01  3.04752488E+03  4.57369518E+02  1.03948685E+02  2.92101553E+01
  9.28666296E+00  3.16392696E+00  7.86827235E+00  1.88128854E+00  5.44249258E-01
  1.68714478E-01  8.00000000E-01  3.04752488E+03  4.57369518E+02  1.03948685E+02
  2.92101553E+01  9.28666296E+00  3.16392696E+00  7.86827235E+00  1.88128854E+00
  5.44249258E-01  1.68714478E-01  8.00000000E-01  3.04752488E+03  4.57369518E+02
  1.03948685E+02  2.92101553E+01  9.28666296E+00  3.16392696E+00  7.86827235E+00
  1.88128854E+00  5.44249258E-01  1.68714478E-01  8.00000000E-01  3.04752488E+03
  4.57369518E+02  1.03948685E+02  2.92101553E+01  9.28666296E+00  3.16392696E+00
  7.86827235E+00  1.88128854E+00  5.44249258E-01  1.68714478E-01  8.00000000E-01
  3.04752488E+03  4.57369518E+02  1.03948685E+02  2.92101553E+01  9.28666296E+00
  3.16392696E+00  7.86827235E+00  1.88128854E+00  5.44249258E-01  1.68714478E-01
  8.00000000E-01  1.87311370E+01  2.82539436E+00  6.40121692E-01  1.61277759E-01
  1.87311370E+01  2.82539436E+00  6.40121692E-01  1.61277759E-01  1.87311370E+01
  2.82539436E+00  6.40121692E-01  1.61277759E-01  1.87311370E+01  2.82539436E+00
  6.40121692E-01  1.61277759E-01  1.87311370E+01  2.82539436E+00  6.40121692E-01
  1.61277759E-01  1.87311370E+01  2.82539436E+00  6.40121692E-01  1.61277759E-01
  1.87311370E+01  2.82539436E+00  6.40121692E-01  1.61277759E-01  1.87311370E+01
  2.82539436E+00  6.40121692E-01  1.61277759E-01
Contraction coefficients                   R   N=          98
  1.83107443E-03  1.39501722E-02  6.84450781E-02  2.32714336E-01  4.70192898E-01
  3.58520853E-01 -1.10777550E-01 -1.48026263E-01  1.13076702E+00  1.00000000E+00
  1.00000000E+00  1.83473713E-03  1.40373228E-02  6.88426223E-02  2.32184443E-01
  4.67941348E-01  3.62311985E-01 -1.19332420E-01 -1.60854152E-01  1.14345644E+00
  1.00000000E+00  1.00000000E+00  1.83473713E-03  1.40373228E-02  6.88426223E-02
  2.32184443E-01  4.67941348E-01  3.62311985E-01 -1.19332420E-01 -1.60854152E-01
  1.14345644E+00  1.00000000E+00  1.00000000E+00  1.83473713E-03  1.40373228E-02
  6.88426223E-02  2.32184443E-01  4.67941348E-01  3.62311985E-01 -1.19332420E-01
 -1.60854152E-01  1.14345644E+00  1.00000000E+00  1.00000000E+00  1.83473713E-03
  1.40373228E-02  6.88426223E-02  2.32184443E-01  4.67941348E-01  3.62311985E-01
 -1.19332420E-01 -1.60854152E-01  1.14345644E+00  1.00000000E+00  1.00000000E+00
  1.83473713E-03  1.40373228E-02  6.88426223E-02  2.32184443E-01  4.67941348E-01
  3.62311985E-01 -1.19332420E-01 -1.60854152E-01  1.14345644E+00  1.00000000E+00
  1.00000000E+00  3.34946043E-02  2.34726953E-01  8.13757326E-01  1.00000000E+00
  3.34946043E-02  2.34726953E-01  8.13757326E-01  1.00000000E+00  3.34946043E-02
  2.34726953E-01  8.13757326E-01  1.00000000E+00  3.34946043E-02  2.34726953E-01
  8.13757326E-01  1.00000000E+00  3.34946043E-02  2.34726953E-01  8.13757326E-01
  1.00000000E+00  3.34946043E-02  2.34726953E-01  8.13757326E-01  1.00000000E+00
  3.34946043E-02  2.34726953E-01  8.13757326E-01  1.00000000E+00  3.34946043E-02
  2.34726953E-01  8.13757326E-01  1.00000000E+00
P(S=P) Contraction coefficients            R   N=          98
  0.00000000E+00  0.00000000E+00  0.00000000E+00  0.00000000E+00  0.00000000E+00
  0.00000000E+00  7.08742682E-02  3.39752839E-01  7.27158577E-01  1.00000000E+00
  0.00000000E+00  0.00000000E+00  0.00000000E+00  0.00000000E+00  0.00000000E+00
  0.00000000E+00  0.00000000E+00  6.89990666E-02  3.16423961E-01  7.44308291E-01
  1.00000000E+00  0.00000000E+00  0.00000000E+00  0.00000000E+00  0.00000000E+00
  0.00000000E+00  0.00000000E+00  0.00000000E+00  6.89990666E-02  3.16423961E-01
  7.44308291E-01  1.00000000E+00  0.00000000E+00  0.00000000E+00  0.00000000E+00
  0.00000000E+00  0.00000000E+00  0.00000000E+00  0.00000000E+00  6.89990666E-02
  3.16423961E-01  7.44308291E-01  1.00000000E+00  0.00000000E+00  0.00000000E+00
  0.00000000E+00  0.00000000E+00  0.00000000E+00  0.00000000E+00  0.00000000E+00
  6.89990666E-02  3.16423961E-01  7.44308291E-01  1.00000000E+00  0.00000000E+00
  0.00000000E+00  0.00000000E+00  0.00000000E+00  0.00000000E+00  0.00000000E+00
  0.00000000E+00  6.89990666E-02  3.16423961E-01  7.44308291E-01  1.00000000E+00
  0.00000000E+00  0.00000000E+00  0.00000000E+00  0.00000000E+00  0.00000000E+00
  0.00000000E+00  0.00000000E+00  0.00000000E+00  0.00000000E+00  0.00000000E+00
  0.00000000E+00  0.00000000E+00  0.00000000E+00  0.00000000E+00  0.00000000E+00
  0.00000000E+00  0.00000000E+00  0.00000000E+00  0.00000000E+00  0.00000000E+00
  0.00000000E+00  0.00000000E+00  0.00000000E+00  0.00000000E+00  0.00000000E+00
  0.00000000E+00  0.00000000E+00  0.00000000E+00  0.00000000E+00  0.00000000E+00
  0.00000000E+00  0.00000000E+00  0.00000000E+00
Coordinates of each shell                  R   N=         120
  5.77655471E+00  1.26779152E-01  5.79030823E-01  5.77655471E+00  1.26779152E-01
  5.79030823E-01  5.77655471E+00  1.26779152E-01  5.79030823E-01  5.77655471E+00
  1.26779152E-01  5.79030823E-01 -3.37752740E+00  9.47649121E-01 -6.25265266E-01
 -3.37752740E+00  9.47649121E-01 -6.25265266E-01 -3.37752740E+00  9.47649121E-01
 -6.25265266E-01 -3.37752740E+00  9.47649121E-01 -6.25265266E-01 -5.21371881E+00
 -7.01121532E-01  8.90290925E-01 -5.21371881E+00 -7.01121532E-01  8.90290925E-01
 -5.21371881E+00 -7.01121532E-01  8.90290925E-01 -5.21371881E+00 -7.01121532E-01
  8.90290925E-01 -8.28689870E-01 -2.53829846E-01 -8.38477799E-01 -8.28689870E-01
 -2.53829846E-01 -8.38477799E-01 -8.28689870E-01 -2.53829846E-01 -8.38477799E-01
 -8.28689870E-01 -2.53829846E-01 -8.38477799E-01  1.33787694E+00  7.14501009E-01
  7.36259963E-02  1.33787694E+00  7.14501009E-01  7.36259963E-02  1.33787694E+00
  7.14501009E-01  7.36259963E-02  1.33787694E+00  7.14501009E-01  7.36259963E-02
  3.73587361E+00 -6.51456649E-01 -2.06662781E-01  3.73587361E+00 -6.51456649E-01
 -2.06662781E-01  3.73587361E+00 -6.51456649E-01 -2.06662781E-01  3.73587361E+00
 -6.51456649E-01 -2.06662781E-01 -3.19581283E+00  2.81046987E+00  2.58923087E-01
 -3.19581283E+00  2.81046987E+00  2.58923087E-01 -4.14646209E+00  1.25276598E+00
 -2.52732483E+00 -4.14646209E+00  1.25276598E+00 -2.52732483E+00 -5.43587038E+00
 -2.55998658E+00  1.35102538E-02 -5.43587038E+00 -2.55998658E+00  1.35102538E-02
 -7.07850083E+00  1.82933819E-01  9.94002020E-01 -7.07850083E+00  1.82933819E-01
  9.94002020E-01 -4.52032946E+00 -9.80012971E-01  2.81603415E+00 -4.52032946E+00
 -9.80012971E-01  2.81603415E+00 -7.58895098E-01 -2.08819398E+00 -1.78596097E+00
 -7.58895098E-01 -2.08819398E+00 -1.78596097E+00  1.40029841E+00  2.52802163E+00
  1.04104503E+00  1.40029841E+00  2.52802163E+00  1.04104503E+00  3.60024785E+00
 -2.49468360E+00 -1.20354177E+00  3.60024785E+00 -2.49468360E+00 -1.20354177E+00
Constraint Structure                       R   N=          42
  5.77655471E+00  1.26779152E-01  5.79030823E-01 -3.37752740E+00  9.47649121E-01
 -6.25265266E-01 -5.21371881E+00 -7.01121532E-01  8.90290925E-01 -8.28689870E-01
 -2.53829846E-01 -8.38477799E-01  1.33787694E+00  7.14501009E-01  7.36259963E-02
  3.73587361E+00 -6.51456649E-01 -2.06662781E-01 -3.19581283E+00  2.81046987E+00
  2.58923087E-01 -4.14646209E+00  1.25276598E+00 -2.52732483E+00 -5.43587038E+00
 -2.55998658E+00  1.35102538E-02 -7.07850083E+00  1.82933819E-01  9.94002020E-01
 -4.52032946E+00 -9.80012971E-01  2.81603415E+00 -7.58895098E-01 -2.08819398E+00
 -1.78596097E+00  1.40029841E+00  2.52802163E+00  1.04104503E+00  3.60024785E+00
 -2.49468360E+00 -1.20354177E+00
Num ILSW                                   I              100
ILSW                                       I   N=         100
           0           1           0           0           2           0
           0           0           0           0           0          -1
           0           0           0           0           0           0
           0           0           0           0           1           0
           1           0           0           0           0           0
           0           0      100000           0          -1           0
           0           0           0           0           0           0
           0           0           0           1           1           0
           0           0           1           0           0           0
           0           0           4          40           0           0
           0           0           0           0           0           0
           0           0           0           0           0           0
           0           0           0           0           0           0
           0           0           0           0           0           0
           0           0           0           0           0           0
           0           0           0           0           0           0
           0           0           0           0
Num RLSW                                   I               40
RLSW                                       R   N=          40
  1.00000000E+00  1.00000000E+00  1.00000000E+00  1.00000000E+00  1.00000000E+00
  0.00000000E+00  0.00000000E+00  1.00000000E+00  0.00000000E+00  0.00000000E+00
  0.00000000E+00  0.00000000E+00  1.00000000E+00  0.00000000E+00  0.00000000E+00
  0.00000000E+00  0.00000000E+00  1.00000000E+00  0.00000000E+00  0.00000000E+00
  0.00000000E+00  0.00000000E+00  1.00000000E+00  0.00000000E+00  0.00000000E+00
  0.00000000E+00  0.00000000E+00  1.00000000E+00  0.00000000E+00  0.00000000E+00
  0.00000000E+00  0.00000000E+00  0.00000000E+00  0.00000000E+00  0.00000000E+00
  0.00000000E+00  0.00000000E+00  0.00000000E+00  1.00000000E+00  1.00000000E+00
MxBond                                     I                4
NBond                                      I   N=          14
           1           4           4           3           3           3
           1           1           1           1           1           1
           1           1
IBond                                      I   N=          56
           6           0           0           0           3           4
           7           8           2           9          10          11
           2           5          12           0           4           6
          13           0           1           5          14           0
           2           0           0           0           2           0
           0           0           3           0           0           0
           3           0           0           0           3           0
           0           0           4           0           0           0
           5           0           0           0           6           0
           0           0
RBond                                      R   N=          56
  2.00000000E+00  0.00000000E+00  0.00000000E+00  0.00000000E+00  1.00000000E+00
  1.00000000E+00  1.00000000E+00  1.00000000E+00  1.00000000E+00  1.00000000E+00
  1.00000000E+00  1.00000000E+00  1.00000000E+00  2.00000000E+00  1.00000000E+00
  0.00000000E+00  2.00000000E+00  1.00000000E+00  1.00000000E+00  0.00000000E+00
  2.00000000E+00  1.00000000E+00  1.00000000E+00  0.00000000E+00  1.00000000E+00
  0.00000000E+00  0.00000000E+00  0.00000000E+00  1.00000000E+00  0.00000000E+00
  0.00000000E+00  0.00000000E+00  1.00000000E+00  0.00000000E+00  0.00000000E+00
  0.00000000E+00  1.00000000E+00  0.00000000E+00  0.00000000E+00  0.00000000E+00
  1.00000000E+00  0.00000000E+00  0.00000000E+00  0.00000000E+00  1.00000000E+00
  0.00000000E+00  0.00000000E+00  0.00000000E+00  1.00000000E+00  0.00000000E+00
  0.00000000E+00  0.00000000E+00  1.00000000E+00  0.00000000E+00  0.00000000E+00
  0.00000000E+00
Virial Ratio                               R      2.002341373744467E+00
SCF Energy                                 R     -2.688349724570202E+02
MP2 Energy                                 R     -2.696500505803322E+02
Total Energy                               R     -2.696500505803322E+02
Post-SCF wavefunction norm                 R      1.597071553683522E+00
RMS Force                                  R      4.747332970177432E-07
RMS Density                                R      2.056399005309967E-09
External E-field                           R   N=          35
  0.00000000E+00  0.00000000E+00  0.00000000E+00  0.00000000E+00  0.00000000E+00
  0.00000000E+00  0.00000000E+00  0.00000000E+00  0.00000000E+00  0.00000000E+00
  0.00000000E+00  0.00000000E+00  0.00000000E+00  0.00000000E+00  0.00000000E+00
  0.00000000E+00  0.00000000E+00  0.00000000E+00  0.00000000E+00  0.00000000E+00
  0.00000000E+00  0.00000000E+00  0.00000000E+00  0.00000000E+00  0.00000000E+00
  0.00000000E+00  0.00000000E+00  0.00000000E+00  0.00000000E+00  0.00000000E+00
  0.00000000E+00  0.00000000E+00  0.00000000E+00  0.00000000E+00  0.00000000E+00
IOpCl                                      I                0
IROHF                                      I                0
Alpha Orbital Energies                     R   N=         106
 -2.05542601E+01 -1.13314788E+01 -1.12729965E+01 -1.12491870E+01 -1.12435389E+01
 -1.12348528E+01 -1.36891517E+00 -1.11263250E+00 -1.02869488E+00 -9.02708332E-01
 -8.14196616E-01 -7.78175591E-01 -6.75125626E-01 -6.44247221E-01 -6.13597096E-01
 -6.02029281E-01 -5.55400471E-01 -5.43668428E-01 -5.21059882E-01 -5.13822861E-01
 -5.04633698E-01 -4.18017882E-01 -3.74336475E-01  9.70981668E-02  2.30014407E-01
  2.37909113E-01  2.45306902E-01  2.81254230E-01  2.91612565E-01  3.05672853E-01
  3.15988636E-01  3.20385219E-01  3.26682820E-01  3.79643294E-01  4.15902654E-01
  4.68449663E-01  5.35674678E-01  5.64307059E-01  7.07109485E-01  7.15650436E-01
  7.31723706E-01  7.47550675E-01  7.55260121E-01  7.99599796E-01  8.17695556E-01
  8.72388445E-01  8.85022996E-01  9.29259295E-01  9.48355695E-01  9.67208375E-01
  1.03504837E+00  1.05687132E+00  1.08653185E+00  1.10088078E+00  1.11652365E+00
  1.12983931E+00  1.15342384E+00  1.15401378E+00  1.17718375E+00  1.20047619E+00
  1.22856340E+00  1.23545660E+00  1.30492296E+00  1.31207735E+00  1.34551511E+00
  1.38510796E+00  1.50312920E+00  1.55078957E+00  1.62071620E+00  1.66201123E+00
  1.73601998E+00  1.79114987E+00  1.86591983E+00  1.88507567E+00  1.91178211E+00
  2.05133364E+00  2.06346648E+00  2.10050800E+00  2.14338214E+00  2.19048883E+00
  2.24411670E+00  2.25905201E+00  2.29866572E+00  2.33201068E+00  2.40320802E+00
  2.46531357E+00  2.50967689E+00  2.55949288E+00  2.62379063E+00  2.63995433E+00
  2.69542584E+00  2.74130415E+00  2.80571127E+00  2.91150369E+00  2.94166716E+00
  2.94679198E+00  3.08465842E+00  3.29967619E+00  3.32803191E+00  3.39444365E+00
  4.28387905E+00  4.50433194E+00  4.57169681E+00  4.65272338E+00  4.80860713E+00
  4.89252141E+00
Alpha MO coefficients                      R   N=       11236
  9.94705014E-01  2.09057210E-02 -1.33079207E-03 -5.03140727E-04 -5.09827433E-04
  4.54792702E-03  1.85177254E-05 -5.05790631E-06  7.58695985E-07 -3.67613218E-03
 -3.90230078E-03 -4.06763273E-03  6.59351571E-05  1.39650614E-04  1.74965539E-04
  3.79001344E-06  1.57051451E-05 -1.76909576E-06 -3.05888919E-07 -4.07504971E-07
 -1.79317765E-04 -5.74547499E-05  3.99429682E-05  8.26647935E-06  4.80302810E-06
  4.91400400E-06  5.61006313E-06  1.10285998E-07  1.52988473E-07  1.23393501E-07
 -6.60071522E-08 -4.48789780E-07  2.19780170E-06  1.17308669E-06 -1.43941426E-06
  2.16633923E-05  4.52758431E-06  2.01768859E-06 -5.41321857E-06  3.13692031E-08
 -6.36762844E-07  1.44576188E-06  1.43987171E-06 -3.86376217E-07  4.42894309E-07
  3.32995659E-06  2.69028382E-05  2.43336290E-05  4.40840831E-06  7.22273459E-06
 -2.09450091E-05 -1.90483207E-04  6.93811505E-05  2.07644039E-06 -5.27184395E-06
  8.32885266E-06  1.06836072E-05  1.59363530E-05  5.31286293E-06  3.22396610E-06
 -7.80230109E-07  3.25522876E-06 -1.69204672E-05 -9.05481432E-06 -8.04317865E-06
 -4.99229951E-05 -4.97510989E-05  1.81302002E-05  8.38162965E-07 -5.95083966E-05
  3.59138162E-05 -9.29615994E-06 -2.82362068E-05 -2.37145188E-05  2.78670497E-05
 -4.05634646E-06  4.76699692E-04 -2.66003322E-05 -1.19643317E-05 -1.11263072E-05
 -2.83818201E-04 -5.59350597E-04 -1.90547851E-04 -2.03617133E-04 -6.01556801E-04
 -1.27079907E-04 -1.20015553E-04 -2.31120059E-04 -2.41740707E-04 -9.73094013E-05
  4.78354558E-06 -7.17726038E-07  5.70529395E-06  7.88458953E-06 -9.32589736E-07
 -2.46859868E-06  2.91167388E-08 -6.09911300E-06 -1.43426055E-06  1.36309687E-06
  1.83954260E-05  5.97814335E-06 -3.46731525E-07 -1.05229470E-05 -3.54707712E-05
 -1.21514706E-04 -2.72404609E-04  5.95920283E-04 -2.22828840E-04 -9.41396320E-05
 -9.04438185E-05 -2.87781857E-03  1.48535081E-03  6.54545072E-04  6.17281178E-04
 -1.96940752E-05  1.73462774E-04  3.11304373E-04 -1.00663185E-04 -1.43633370E-04
 -1.61011414E-04 -3.06560466E-05 -1.78248850E-04  4.95766259E-05 -9.79582101E-06
  1.67274020E-06  1.77958904E-03  6.99278394E-04 -3.27925204E-04 -4.02199915E-05
  1.43876865E-05 -4.40424309E-05 -4.80490942E-05 -2.11432327E-05 -4.19672712E-07
 -6.78595892E-06 -5.84580427E-06 -2.60616381E-06 -2.96013887E-05 -9.81476677E-06
  1.44737207E-05 -1.44079441E-04 -1.48215539E-05 -8.15662679E-06  1.91340798E-05
 -8.59271827E-06 -3.67444976E-08 -1.58020264E-05 -1.34201188E-05  4.33218827E-06
 -6.60861688E-06 -3.10314048E-06 -1.53805486E-04 -1.48196684E-04  9.95223938E-05
  2.23216135E-05 -9.62420109E-04  1.37687166E-03 -9.00805074E-04 -2.31651563E-04
  6.51780587E-05  2.12971358E-05 -3.35862683E-05  4.92557986E-05  5.82968302E-05
  6.28508304E-05  4.21786107E-03  2.28687985E-04 -7.74419128E-05  1.40392651E-04
  6.10493991E-05  2.77515083E-03  4.56571520E-04 -8.17775268E-04 -3.50351386E-04
 -5.35397935E-04 -3.12159296E-04 -1.67157235E-04  1.95483321E-04  1.89970763E-05
 -7.05823207E-05  9.95774007E-01  2.65560217E-02  4.14097244E-04  2.71616349E-04
  2.19624441E-04 -7.47049053E-03  3.00643754E-03  1.10244931E-03  1.13660805E-03
 -9.55153024E-04 -1.87190641E-03 -2.19701395E-03  2.06581337E-04  4.24052382E-04
  3.84233355E-04 -4.87819790E-05 -2.90447677E-05 -5.73809288E-05 -4.10088324E-05
  8.46470900E-07  2.35067504E-05 -2.51765057E-06  7.59376414E-05  9.51154399E-06
 -8.87793869E-06 -1.49356866E-04 -2.59323274E-04 -4.12676721E-05  1.37199826E-04
  2.30410584E-06  2.37258535E-03 -1.50669450E-05 -6.51467382E-05  1.96088235E-05
 -3.72320274E-06  1.51484085E-06  2.60737825E-04 -9.99525730E-05  6.70216025E-05
  2.41811759E-05 -2.36184755E-05 -5.50686491E-05 -5.96734996E-05 -3.33622865E-05
 -1.21989252E-05 -9.56886596E-06  1.43395700E-02  7.42968787E-04 -6.04558960E-05
  1.04730832E-05 -1.93983595E-05  1.41902330E-03  1.76778056E-03  4.44865624E-04
 -1.31259142E-04 -4.19732466E-04 -2.52859107E-04 -5.11262694E-05  2.13206734E-04
  9.23495979E-05  8.47081791E-07 -1.39301532E-04 -3.81988021E-04 -1.49142956E-04
  3.52143885E-05  1.03274509E-05  1.68570241E-03  1.11473208E-03 -3.75615931E-05
 -4.93842145E-04 -2.55014703E-05 -1.23693432E-04 -7.56129527E-05  2.86804127E-05
 -5.61031311E-05 -3.13230962E-05  9.95268940E-01  2.73931548E-02 -1.15693160E-04
  1.82641126E-05  8.18843173E-05 -1.31492391E-02 -1.84920256E-04 -1.01993617E-03
 -8.07953311E-04 -1.35340937E-03 -1.85574549E-03 -2.11737113E-03  9.13275577E-05
  2.34811544E-04  2.92114401E-04  2.61879133E-02  3.99540305E-04  2.06174727E-04
  1.10246214E-04  7.67063700E-05  4.50706578E-03 -2.09984477E-03 -3.67310064E-04
 -4.35202869E-04 -3.54404009E-04 -3.40823766E-04 -2.32543227E-04 -8.33778654E-06
 -6.36199258E-05 -1.22846272E-04 -1.42247422E-04 -1.58985737E-04  8.29894390E-06
  6.19254510E-06  5.76773813E-06  3.29195341E-04 -1.05735767E-04 -2.09067796E-05
 -7.03366939E-05  1.10681606E-04 -9.36774982E-06 -3.24072445E-05 -1.99289831E-05
  2.49903445E-05  6.86515211E-06 -6.55814265E-05 -3.50577910E-04 -9.46598779E-05
  4.27879658E-04 -1.10352379E-04 -3.27353606E-04 -1.00000725E-06  4.56591719E-04
 -2.06230495E-04  4.64926621E-05 -1.29050842E-04  1.88771889E-03 -1.17307472E-04
 -2.18665878E-04 -1.61566197E-05 -1.51507923E-04 -1.85251353E-05 -7.69292959E-05
  4.41983463E-06  7.73778107E-06  1.69192367E-06  4.42726043E-04 -6.07647066E-05
 -9.85588281E-05 -4.45662312E-05 -5.00830858E-05 -4.74974868E-05 -5.99930996E-05
  1.00622277E-05  5.40380825E-06  1.01455428E-05  9.95542844E-01  2.86420965E-02
  1.85440220E-04 -2.08317080E-04 -4.05788699E-06 -1.78644140E-02 -6.48713163E-04
  1.16507932E-03 -2.77516677E-04 -1.61100771E-03 -1.61755329E-03 -1.59332589E-03
 -1.03266539E-05  2.40606157E-05  4.14856467E-05  2.00363759E-02  6.18146880E-04
  9.66088254E-05  1.74034419E-05 -4.49271363E-05  3.97894973E-03  1.16896735E-03
  1.07549714E-03 -9.96139378E-04 -2.82360293E-04 -3.00392031E-04 -2.37714922E-04
 -1.41832299E-04  1.39843923E-04  1.55786198E-04 -1.45015397E-02 -2.53282705E-04
  7.74507258E-06 -5.09163007E-05  4.90663458E-06  4.17808878E-03 -2.51279567E-03
  8.51608295E-04  7.48686319E-05 -4.14707879E-04 -1.54820555E-04 -7.53112117E-05
  1.71261753E-04  8.34274216E-06  1.68001556E-05 -3.45247081E-03 -2.06491849E-04
  8.84286615E-05 -6.06760048E-05 -4.33134234E-05  7.80895411E-05 -6.34615858E-04
  1.54589902E-04  3.90248588E-05 -1.21073695E-05  2.55732558E-05 -3.28005643E-05
  6.01903865E-05  4.05873467E-05  7.69076964E-05 -1.51396799E-05 -1.16949573E-04
 -6.86731306E-06 -7.40335079E-06  4.03590713E-06  6.03195550E-04 -6.55751740E-04
  1.94900013E-04 -7.02255901E-05 -3.13692471E-06 -1.90852353E-05 -5.24014521E-05
 -2.54867733E-05  2.52015105E-07  1.43784479E-05  2.56321421E-04  2.55575950E-03
  2.55313373E-04  2.65639825E-03 -1.54206971E-04  4.64202415E-05 -1.39902782E-04
 -1.45212304E-04 -1.60972173E-04  7.76514803E-05 -1.13951514E-04  1.00462452E-05
 -5.41190385E-05 -1.80702365E-04 -5.04676553E-05  1.17217116E-04  2.10464597E-05
  1.37235730E-05 -4.99699401E-06 -2.07559527E-05 -1.15549213E-05 -4.49076314E-04
  1.88234425E-04 -8.93391691E-05 -1.37095122E-05  9.96820647E-05  7.28535556E-05
  1.07099372E-05  1.45730152E-06  2.61861830E-05  5.65136873E-05  3.04868228E-03
 -5.09338620E-05 -8.10032060E-06 -1.72176968E-06 -4.80213013E-06  3.61316230E-04
  3.31446753E-05 -1.77457096E-04 -3.32213571E-05  7.01281495E-05  3.40404369E-07
 -3.22988682E-05 -2.51204337E-05  7.46330783E-06  1.90325260E-05  2.12774986E-04
  5.07992738E-05 -1.03627922E-06 -1.26578532E-05  8.79044379E-06 -3.33930976E-04
 -3.94150691E-05  4.42842165E-05 -1.87420931E-05  1.14112498E-05  2.47084510E-05
  1.97989360E-05 -9.92771219E-07 -9.45680631E-06  2.91515446E-06 -2.68866201E-02
 -1.01275799E-03 -1.96596696E-04 -8.96881823E-05 -8.64553193E-05  4.96718982E-03
  2.15647113E-03  2.74895224E-04  5.40225243E-04 -3.12462346E-04 -2.21820170E-04
 -8.87090189E-05 -2.46218128E-05 -7.48621830E-05 -1.33183391E-04  9.95265778E-01