21812346                                                                
Freq      RMP2-FC                                                     6-31G(d)            
Number of atoms                            I               21
Info1-9                                    I   N=           9
          33          31        1002           0           0         100
           6           2           1
Charge                                     I                0
Multiplicity                               I                1
Number of electrons                        I               84
Number of alpha electrons                  I               42
Number of beta electrons                   I               42
Number of basis functions                  I              198
Number of independent functions            I              198
Number of point charges in /Mol/           I                0
Number of translation vectors              I                0
Atomic numbers                             I   N=          21
           7           7           7           6           6           6
           6           6           6           6           6           6
           1           1           1           1           1           1
           1           1           1
Nuclear charges                            R   N=          21
  7.00000000E+00  7.00000000E+00  7.00000000E+00  6.00000000E+00  6.00000000E+00
  6.00000000E+00  6.00000000E+00  6.00000000E+00  6.00000000E+00  6.00000000E+00
  6.00000000E+00  6.00000000E+00  1.00000000E+00  1.00000000E+00  1.00000000E+00
  1.00000000E+00  1.00000000E+00  1.00000000E+00  1.00000000E+00  1.00000000E+00
  1.00000000E+00
Current cartesian coordinates              R   N=          63
  1.04011505E+00  5.45938496E-01  6.03640233E-06  2.66658589E+00 -1.43310310E+00
  6.51119542E-06 -3.02375235E+00  2.19718031E+00  4.07418263E-06 -1.59709238E+00
  1.13287672E-01  9.76750937E-07  4.97610113E+00 -3.65879619E-01  1.36239582E-06
  2.24557175E+00  2.83566333E+00 -2.69659851E-06  4.79616120E+00  2.29915065E+00
 -9.20179450E-06 -2.53654365E+00 -2.35714391E+00 -2.98821345E-06  7.28424376E+00
 -1.99332803E+00  4.59372030E-07 -5.14907928E+00 -2.64882169E+00 -4.29522446E-06
 -6.69188450E+00 -5.07273693E-01 -1.39126425E-06 -5.54348658E+00  1.86183388E+00
  2.61300020E-06  1.17938424E+00  4.57461753E+00 -8.62817652E-06  6.32746360E+00
  3.65394201E+00 -3.06267662E-06 -1.24347169E+00 -3.94484993E+00 -5.57181521E-06
  8.45265970E+00 -1.64259856E+00  1.67007404E+00  6.72153972E+00 -3.97924458E+00
 -1.54037554E-05  8.45267071E+00 -1.64257315E+00 -1.67005980E+00 -5.97037353E+00
 -4.53179749E+00 -7.53385139E-06 -8.73759835E+00 -6.66746589E-01 -3.11904423E-06
 -6.66686323E+00  3.58420923E+00  3.69939430E-06
Force Field                                I                0
Int Atom Types                             I   N=          21
           0           0           0           0           0           0
           0           0           0           0           0           0
           0           0           0           0           0           0
           0           0           0
MM charges                                 R   N=          21
  0.00000000E+00  0.00000000E+00  0.00000000E+00  0.00000000E+00  0.00000000E+00
  0.00000000E+00  0.00000000E+00  0.00000000E+00  0.00000000E+00  0.00000000E+00
  0.00000000E+00  0.00000000E+00  0.00000000E+00  0.00000000E+00  0.00000000E+00
  0.00000000E+00  0.00000000E+00  0.00000000E+00  0.00000000E+00  0.00000000E+00
  0.00000000E+00
Integer atomic weights                     I   N=          21
          14          14          14          12          12          12
          12          12          12          12          12          12
           1           1           1           1           1           1
           1           1           1
Real atomic weights                        R   N=          21
  1.40030740E+01  1.40030740E+01  1.40030740E+01  1.20000000E+01  1.20000000E+01
  1.20000000E+01  1.20000000E+01  1.20000000E+01  1.20000000E+01  1.20000000E+01
  1.20000000E+01  1.20000000E+01  1.00782504E+00  1.00782504E+00  1.00782504E+00
  1.00782504E+00  1.00782504E+00  1.00782504E+00  1.00782504E+00  1.00782504E+00
  1.00782504E+00
Atom fragment info                         I   N=          21
           0           0           0           0           0           0
           0           0           0           0           0           0
           0           0           0           0           0           0
           0           0           0
Atom residue num                           I   N=          21
           0           0           0           0           0           0
           0           0           0           0           0           0
           0           0           0           0           0           0
           0           0           0
Nuclear spins                              I   N=          21
           2           2           2           0           0           0
           0           0           0           0           0           0
           1           1           1           1           1           1
           1           1           1
Nuclear ZEff                               R   N=          21
 -4.55000000E+00 -4.55000000E+00 -4.55000000E+00 -3.60000000E+00 -3.60000000E+00
 -3.60000000E+00 -3.60000000E+00 -3.60000000E+00 -3.60000000E+00 -3.60000000E+00
 -3.60000000E+00 -3.60000000E+00 -1.00000000E+00 -1.00000000E+00 -1.00000000E+00
 -1.00000000E+00 -1.00000000E+00 -1.00000000E+00 -1.00000000E+00 -1.00000000E+00
 -1.00000000E+00
Nuclear QMom                               R   N=          21
  2.04400000E+00  2.04400000E+00  2.04400000E+00  0.00000000E+00  0.00000000E+00
  0.00000000E+00  0.00000000E+00  0.00000000E+00  0.00000000E+00  0.00000000E+00
  0.00000000E+00  0.00000000E+00  0.00000000E+00  0.00000000E+00  0.00000000E+00
  0.00000000E+00  0.00000000E+00  0.00000000E+00  0.00000000E+00  0.00000000E+00
  0.00000000E+00
Nuclear GFac                               R   N=          21
  4.03761000E-01  4.03761000E-01  4.03761000E-01  0.00000000E+00  0.00000000E+00
  0.00000000E+00  0.00000000E+00  0.00000000E+00  0.00000000E+00  0.00000000E+00
  0.00000000E+00  0.00000000E+00  2.79284600E+00  2.79284600E+00  2.79284600E+00
  2.79284600E+00  2.79284600E+00  2.79284600E+00  2.79284600E+00  2.79284600E+00
  2.79284600E+00
MicOpt                                     I   N=          21
          -1          -1          -1          -1          -1          -1
          -1          -1          -1          -1          -1          -1
          -1          -1          -1          -1          -1          -1
          -1          -1          -1
Number of contracted shells                I               66
Number of primitive shells                 I              168
Pure/Cartesian d shells                    I                1
Pure/Cartesian f shells                    I                0
Highest angular momentum                   I                2
Largest degree of contraction              I                6
Shell types                                I   N=          66
           0          -1          -1           2           0          -1
          -1           2           0          -1          -1           2
           0          -1          -1           2           0          -1
          -1           2           0          -1          -1           2
           0          -1          -1           2           0          -1
          -1           2           0          -1          -1           2
           0          -1          -1           2           0          -1
          -1           2           0          -1          -1           2
           0           0           0           0           0           0
           0           0           0           0           0           0
           0           0           0           0           0           0
Number of primitives per shell             I   N=          66
           6           3           1           1           6           3
           1           1           6           3           1           1
           6           3           1           1           6           3
           1           1           6           3           1           1
           6           3           1           1           6           3
           1           1           6           3           1           1
           6           3           1           1           6           3
           1           1           6           3           1           1
           3           1           3           1           3           1
           3           1           3           1           3           1
           3           1           3           1           3           1
Shell to atom map                          I   N=          66
           1           1           1           1           2           2
           2           2           3           3           3           3
           4           4           4           4           5           5
           5           5           6           6           6           6
           7           7           7           7           8           8
           8           8           9           9           9           9
          10          10          10          10          11          11
          11          11          12          12          12          12
          13          13          14          14          15          15
          16          16          17          17          18          18
          19          19          20          20          21          21
Primitive exponents                        R   N=         168
  4.17351146E+03  6.27457911E+02  1.42902093E+02  4.02343293E+01  1.28202129E+01
  4.39043701E+00  1.16263619E+01  2.71627981E+00  7.72218397E-01  2.12031498E-01
  8.00000000E-01  4.17351146E+03  6.27457911E+02  1.42902093E+02  4.02343293E+01
  1.28202129E+01  4.39043701E+00  1.16263619E+01  2.71627981E+00  7.72218397E-01
  2.12031498E-01  8.00000000E-01  4.17351146E+03  6.27457911E+02  1.42902093E+02
  4.02343293E+01  1.28202129E+01  4.39043701E+00  1.16263619E+01  2.71627981E+00
  7.72218397E-01  2.12031498E-01  8.00000000E-01  3.04752488E+03  4.57369518E+02
  1.03948685E+02  2.92101553E+01  9.28666296E+00  3.16392696E+00  7.86827235E+00
  1.88128854E+00  5.44249258E-01  1.68714478E-01  8.00000000E-01  3.04752488E+03
  4.57369518E+02  1.03948685E+02  2.92101553E+01  9.28666296E+00  3.16392696E+00
  7.86827235E+00  1.88128854E+00  5.44249258E-01  1.68714478E-01  8.00000000E-01
  3.04752488E+03  4.57369518E+02  1.03948685E+02  2.92101553E+01  9.28666296E+00
  3.16392696E+00  7.86827235E+00  1.88128854E+00  5.44249258E-01  1.68714478E-01
  8.00000000E-01  3.04752488E+03  4.57369518E+02  1.03948685E+02  2.92101553E+01
  9.28666296E+00  3.16392696E+00  7.86827235E+00  1.88128854E+00  5.44249258E-01
  1.68714478E-01  8.00000000E-01  3.04752488E+03  4.57369518E+02  1.03948685E+02
  2.92101553E+01  9.28666296E+00  3.16392696E+00  7.86827235E+00  1.88128854E+00
  5.44249258E-01  1.68714478E-01  8.00000000E-01  3.04752488E+03  4.57369518E+02
  1.03948685E+02  2.92101553E+01  9.28666296E+00  3.16392696E+00  7.86827235E+00
  1.88128854E+00  5.44249258E-01  1.68714478E-01  8.00000000E-01  3.04752488E+03
  4.57369518E+02  1.03948685E+02  2.92101553E+01  9.28666296E+00  3.16392696E+00
  7.86827235E+00  1.88128854E+00  5.44249258E-01  1.68714478E-01  8.00000000E-01
  3.04752488E+03  4.57369518E+02  1.03948685E+02  2.92101553E+01  9.28666296E+00
  3.16392696E+00  7.86827235E+00  1.88128854E+00  5.44249258E-01  1.68714478E-01
  8.00000000E-01  3.04752488E+03  4.57369518E+02  1.03948685E+02  2.92101553E+01
  9.28666296E+00  3.16392696E+00  7.86827235E+00  1.88128854E+00  5.44249258E-01
  1.68714478E-01  8.00000000E-01  1.87311370E+01  2.82539436E+00  6.40121692E-01
  1.61277759E-01  1.87311370E+01  2.82539436E+00  6.40121692E-01  1.61277759E-01
  1.87311370E+01  2.82539436E+00  6.40121692E-01  1.61277759E-01  1.87311370E+01
  2.82539436E+00  6.40121692E-01  1.61277759E-01  1.87311370E+01  2.82539436E+00
  6.40121692E-01  1.61277759E-01  1.87311370E+01  2.82539436E+00  6.40121692E-01
  1.61277759E-01  1.87311370E+01  2.82539436E+00  6.40121692E-01  1.61277759E-01
  1.87311370E+01  2.82539436E+00  6.40121692E-01  1.61277759E-01  1.87311370E+01
  2.82539436E+00  6.40121692E-01  1.61277759E-01
Contraction coefficients                   R   N=         168
  1.83477216E-03  1.39946270E-02  6.85865518E-02  2.32240873E-01  4.69069948E-01
  3.60455199E-01 -1.14961182E-01 -1.69117479E-01  1.14585195E+00  1.00000000E+00
  1.00000000E+00  1.83477216E-03  1.39946270E-02  6.85865518E-02  2.32240873E-01
  4.69069948E-01  3.60455199E-01 -1.14961182E-01 -1.69117479E-01  1.14585195E+00
  1.00000000E+00  1.00000000E+00  1.83477216E-03  1.39946270E-02  6.85865518E-02
  2.32240873E-01  4.69069948E-01  3.60455199E-01 -1.14961182E-01 -1.69117479E-01
  1.14585195E+00  1.00000000E+00  1.00000000E+00  1.83473713E-03  1.40373228E-02
  6.88426223E-02  2.32184443E-01  4.67941348E-01  3.62311985E-01 -1.19332420E-01
 -1.60854152E-01  1.14345644E+00  1.00000000E+00  1.00000000E+00  1.83473713E-03
  1.40373228E-02  6.88426223E-02  2.32184443E-01  4.67941348E-01  3.62311985E-01
 -1.19332420E-01 -1.60854152E-01  1.14345644E+00  1.00000000E+00  1.00000000E+00
  1.83473713E-03  1.40373228E-02  6.88426223E-02  2.32184443E-01  4.67941348E-01
  3.62311985E-01 -1.19332420E-01 -1.60854152E-01  1.14345644E+00  1.00000000E+00
  1.00000000E+00  1.83473713E-03  1.40373228E-02  6.88426223E-02  2.32184443E-01
  4.67941348E-01  3.62311985E-01 -1.19332420E-01 -1.60854152E-01  1.14345644E+00
  1.00000000E+00  1.00000000E+00  1.83473713E-03  1.40373228E-02  6.88426223E-02
  2.32184443E-01  4.67941348E-01  3.62311985E-01 -1.19332420E-01 -1.60854152E-01
  1.14345644E+00  1.00000000E+00  1.00000000E+00  1.83473713E-03  1.40373228E-02
  6.88426223E-02  2.32184443E-01  4.67941348E-01  3.62311985E-01 -1.19332420E-01
 -1.60854152E-01  1.14345644E+00  1.00000000E+00  1.00000000E+00  1.83473713E-03
  1.40373228E-02  6.88426223E-02  2.32184443E-01  4.67941348E-01  3.62311985E-01
 -1.19332420E-01 -1.60854152E-01  1.14345644E+00  1.00000000E+00  1.00000000E+00
  1.83473713E-03  1.40373228E-02  6.88426223E-02  2.32184443E-01  4.67941348E-01
  3.62311985E-01 -1.19332420E-01 -1.60854152E-01  1.14345644E+00  1.00000000E+00
  1.00000000E+00  1.83473713E-03  1.40373228E-02  6.88426223E-02  2.32184443E-01
  4.67941348E-01  3.62311985E-01 -1.19332420E-01 -1.60854152E-01  1.14345644E+00
  1.00000000E+00  1.00000000E+00  3.34946043E-02  2.34726953E-01  8.13757326E-01
  1.00000000E+00  3.34946043E-02  2.34726953E-01  8.13757326E-01  1.00000000E+00
  3.34946043E-02  2.34726953E-01  8.13757326E-01  1.00000000E+00  3.34946043E-02
  2.34726953E-01  8.13757326E-01  1.00000000E+00  3.34946043E-02  2.34726953E-01
  8.13757326E-01  1.00000000E+00  3.34946043E-02  2.34726953E-01  8.13757326E-01
  1.00000000E+00  3.34946043E-02  2.34726953E-01  8.13757326E-01  1.00000000E+00
  3.34946043E-02  2.34726953E-01  8.13757326E-01  1.00000000E+00  3.34946043E-02
  2.34726953E-01  8.13757326E-01  1.00000000E+00
P(S=P) Contraction coefficients            R   N=         168
  0.00000000E+00  0.00000000E+00  0.00000000E+00  0.00000000E+00  0.00000000E+00
  0.00000000E+00  6.75797439E-02  3.23907296E-01  7.40895140E-01  1.00000000E+00
  0.00000000E+00  0.00000000E+00  0.00000000E+00  0.00000000E+00  0.00000000E+00
  0.00000000E+00  0.00000000E+00  6.75797439E-02  3.23907296E-01  7.40895140E-01
  1.00000000E+00  0.00000000E+00  0.00000000E+00  0.00000000E+00  0.00000000E+00
  0.00000000E+00  0.00000000E+00  0.00000000E+00  6.75797439E-02  3.23907296E-01
  7.40895140E-01  1.00000000E+00  0.00000000E+00  0.00000000E+00  0.00000000E+00
  0.00000000E+00  0.00000000E+00  0.00000000E+00  0.00000000E+00  6.89990666E-02
  3.16423961E-01  7.44308291E-01  1.00000000E+00  0.00000000E+00  0.00000000E+00
  0.00000000E+00  0.00000000E+00  0.00000000E+00  0.00000000E+00  0.00000000E+00
  6.89990666E-02  3.16423961E-01  7.44308291E-01  1.00000000E+00  0.00000000E+00
  0.00000000E+00  0.00000000E+00  0.00000000E+00  0.00000000E+00  0.00000000E+00
  0.00000000E+00  6.89990666E-02  3.16423961E-01  7.44308291E-01  1.00000000E+00
  0.00000000E+00  0.00000000E+00  0.00000000E+00  0.00000000E+00  0.00000000E+00
  0.00000000E+00  0.00000000E+00  6.89990666E-02  3.16423961E-01  7.44308291E-01
  1.00000000E+00  0.00000000E+00  0.00000000E+00  0.00000000E+00  0.00000000E+00
  0.00000000E+00  0.00000000E+00  0.00000000E+00  6.89990666E-02  3.16423961E-01
  7.44308291E-01  1.00000000E+00  0.00000000E+00  0.00000000E+00  0.00000000E+00
  0.00000000E+00  0.00000000E+00  0.00000000E+00  0.00000000E+00  6.89990666E-02
  3.16423961E-01  7.44308291E-01  1.00000000E+00  0.00000000E+00  0.00000000E+00
  0.00000000E+00  0.00000000E+00  0.00000000E+00  0.00000000E+00  0.00000000E+00
  6.89990666E-02  3.16423961E-01  7.44308291E-01  1.00000000E+00  0.00000000E+00
  0.00000000E+00  0.00000000E+00  0.00000000E+00  0.00000000E+00  0.00000000E+00
  0.00000000E+00  6.89990666E-02  3.16423961E-01  7.44308291E-01  1.00000000E+00
  0.00000000E+00  0.00000000E+00  0.00000000E+00  0.00000000E+00  0.00000000E+00
  0.00000000E+00  0.00000000E+00  6.89990666E-02  3.16423961E-01  7.44308291E-01
  1.00000000E+00  0.00000000E+00  0.00000000E+00  0.00000000E+00  0.00000000E+00
  0.00000000E+00  0.00000000E+00  0.00000000E+00  0.00000000E+00  0.00000000E+00
  0.00000000E+00  0.00000000E+00  0.00000000E+00  0.00000000E+00  0.00000000E+00
  0.00000000E+00  0.00000000E+00  0.00000000E+00  0.00000000E+00  0.00000000E+00
  0.00000000E+00  0.00000000E+00  0.00000000E+00  0.00000000E+00  0.00000000E+00
  0.00000000E+00  0.00000000E+00  0.00000000E+00  0.00000000E+00  0.00000000E+00
  0.00000000E+00  0.00000000E+00  0.00000000E+00  0.00000000E+00  0.00000000E+00
  0.00000000E+00  0.00000000E+00  0.00000000E+00
Coordinates of each shell                  R   N=         198
  1.04011505E+00  5.45938496E-01  6.03640233E-06  1.04011505E+00  5.45938496E-01
  6.03640233E-06  1.04011505E+00  5.45938496E-01  6.03640233E-06  1.04011505E+00
  5.45938496E-01  6.03640233E-06  2.66658589E+00 -1.43310310E+00  6.51119542E-06
  2.66658589E+00 -1.43310310E+00  6.51119542E-06  2.66658589E+00 -1.43310310E+00
  6.51119542E-06  2.66658589E+00 -1.43310310E+00  6.51119542E-06 -3.02375235E+00
  2.19718031E+00  4.07418263E-06 -3.02375235E+00  2.19718031E+00  4.07418263E-06
 -3.02375235E+00  2.19718031E+00  4.07418263E-06 -3.02375235E+00  2.19718031E+00
  4.07418263E-06 -1.59709238E+00  1.13287672E-01  9.76750937E-07 -1.59709238E+00
  1.13287672E-01  9.76750937E-07 -1.59709238E+00  1.13287672E-01  9.76750937E-07
 -1.59709238E+00  1.13287672E-01  9.76750937E-07  4.97610113E+00 -3.65879619E-01
  1.36239582E-06  4.97610113E+00 -3.65879619E-01  1.36239582E-06  4.97610113E+00
 -3.65879619E-01  1.36239582E-06  4.97610113E+00 -3.65879619E-01  1.36239582E-06
  2.24557175E+00  2.83566333E+00 -2.69659851E-06  2.24557175E+00  2.83566333E+00
 -2.69659851E-06  2.24557175E+00  2.83566333E+00 -2.69659851E-06  2.24557175E+00
  2.83566333E+00 -2.69659851E-06  4.79616120E+00  2.29915065E+00 -9.20179450E-06
  4.79616120E+00  2.29915065E+00 -9.20179450E-06  4.79616120E+00  2.29915065E+00
 -9.20179450E-06  4.79616120E+00  2.29915065E+00 -9.20179450E-06 -2.53654365E+00
 -2.35714391E+00 -2.98821345E-06 -2.53654365E+00 -2.35714391E+00 -2.98821345E-06
 -2.53654365E+00 -2.35714391E+00 -2.98821345E-06 -2.53654365E+00 -2.35714391E+00
 -2.98821345E-06  7.28424376E+00 -1.99332803E+00  4.59372030E-07  7.28424376E+00
 -1.99332803E+00  4.59372030E-07  7.28424376E+00 -1.99332803E+00  4.59372030E-07
  7.28424376E+00 -1.99332803E+00  4.59372030E-07 -5.14907928E+00 -2.64882169E+00
 -4.29522446E-06 -5.14907928E+00 -2.64882169E+00 -4.29522446E-06 -5.14907928E+00
 -2.64882169E+00 -4.29522446E-06 -5.14907928E+00 -2.64882169E+00 -4.29522446E-06
 -6.69188450E+00 -5.07273693E-01 -1.39126425E-06 -6.69188450E+00 -5.07273693E-01
 -1.39126425E-06 -6.69188450E+00 -5.07273693E-01 -1.39126425E-06 -6.69188450E+00
 -5.07273693E-01 -1.39126425E-06 -5.54348658E+00  1.86183388E+00  2.61300020E-06
 -5.54348658E+00  1.86183388E+00  2.61300020E-06 -5.54348658E+00  1.86183388E+00
  2.61300020E-06 -5.54348658E+00  1.86183388E+00  2.61300020E-06  1.17938424E+00
  4.57461753E+00 -8.62817652E-06  1.17938424E+00  4.57461753E+00 -8.62817652E-06
  6.32746360E+00  3.65394201E+00 -3.06267662E-06  6.32746360E+00  3.65394201E+00
 -3.06267662E-06 -1.24347169E+00 -3.94484993E+00 -5.57181521E-06 -1.24347169E+00
 -3.94484993E+00 -5.57181521E-06  8.45265970E+00 -1.64259856E+00  1.67007404E+00
  8.45265970E+00 -1.64259856E+00  1.67007404E+00  6.72153972E+00 -3.97924458E+00
 -1.54037554E-05  6.72153972E+00 -3.97924458E+00 -1.54037554E-05  8.45267071E+00
 -1.64257315E+00 -1.67005980E+00  8.45267071E+00 -1.64257315E+00 -1.67005980E+00
 -5.97037353E+00 -4.53179749E+00 -7.53385139E-06 -5.97037353E+00 -4.53179749E+00
 -7.53385139E-06 -8.73759835E+00 -6.66746589E-01 -3.11904423E-06 -8.73759835E+00
 -6.66746589E-01 -3.11904423E-06 -6.66686323E+00  3.58420923E+00  3.69939430E-06
 -6.66686323E+00  3.58420923E+00  3.69939430E-06
Constraint Structure                       R   N=          63
  1.04011505E+00  5.45938496E-01  6.03640233E-06  2.66658589E+00 -1.43310310E+00
  6.51119542E-06 -3.02375235E+00  2.19718031E+00  4.07418263E-06 -1.59709238E+00
  1.13287672E-01  9.76750937E-07  4.97610113E+00 -3.65879619E-01  1.36239582E-06
  2.24557175E+00  2.83566333E+00 -2.69659851E-06  4.79616120E+00  2.29915065E+00
 -9.20179450E-06 -2.53654365E+00 -2.35714391E+00 -2.98821345E-06  7.28424376E+00
 -1.99332803E+00  4.59372030E-07 -5.14907928E+00 -2.64882169E+00 -4.29522446E-06
 -6.69188450E+00 -5.07273693E-01 -1.39126425E-06 -5.54348658E+00  1.86183388E+00
  2.61300020E-06  1.17938424E+00  4.57461753E+00 -8.62817652E-06  6.32746360E+00
  3.65394201E+00 -3.06267662E-06 -1.24347169E+00 -3.94484993E+00 -5.57181521E-06
  8.45265970E+00 -1.64259856E+00  1.67007404E+00  6.72153972E+00 -3.97924458E+00
 -1.54037554E-05  8.45267071E+00 -1.64257315E+00 -1.67005980E+00 -5.97037353E+00
 -4.53179749E+00 -7.53385139E-06 -8.73759835E+00 -6.66746589E-01 -3.11904423E-06
 -6.66686323E+00  3.58420923E+00  3.69939430E-06
Num ILSW                                   I              100
ILSW                                       I   N=         100
           0           1           0           0           2           0
           0           0           0           0           0          -1
           0           0           0           0           0           0
           0           0           0           0           1           0
           1           0           0           0           0           0
           0           0      100000           0          -1           0
           0           0           0           0           0           0
           0           0           0           1           1           0
           0           0           1           0           0           0
           0           0           4          40           0           0
           0           0           0           0           0           0
           0           0           0           0           0           0
           0           0           0           0           0           0
           0           0           0           0           0           0
           0           0           0           0           0           0
           0           0           0           0           0           0
           0           0           0           0
Num RLSW                                   I               40
RLSW                                       R   N=          40
  1.00000000E+00  1.00000000E+00  1.00000000E+00  1.00000000E+00  1.00000000E+00
  0.00000000E+00  0.00000000E+00  1.00000000E+00  0.00000000E+00  0.00000000E+00
  0.00000000E+00  0.00000000E+00  1.00000000E+00  0.00000000E+00  0.00000000E+00
  0.00000000E+00  0.00000000E+00  1.00000000E+00  0.00000000E+00  0.00000000E+00
  0.00000000E+00  0.00000000E+00  1.00000000E+00  0.00000000E+00  0.00000000E+00
  0.00000000E+00  0.00000000E+00  1.00000000E+00  0.00000000E+00  0.00000000E+00
  0.00000000E+00  0.00000000E+00  0.00000000E+00  0.00000000E+00  0.00000000E+00
  0.00000000E+00  0.00000000E+00  0.00000000E+00  1.00000000E+00  1.00000000E+00
MxBond                                     I                4
NBond                                      I   N=          21
           3           2           2           3           3           3
           3           3           4           3           3           3
           1           1           1           1           1           1
           1           1           1
IBond                                      I   N=          84
           2           4           6           0           1           5
           0           0           4          12           0           0
           1           3           8           0           2           7
           9           0           1           7          13           0
           5           6          14           0           4          10
          15           0           5          16          17          18
           8          11          19           0          10          12
          20           0           3          11          21           0
           6           0           0           0           7           0
           0           0           8           0           0           0
           9           0           0           0           9           0
           0           0           9           0           0           0
          10           0           0           0          11           0
           0           0          12           0           0           0
RBond                                      R   N=          84
  1.50000000E+00  1.00000000E+00  1.50000000E+00  0.00000000E+00  1.50000000E+00
  1.50000000E+00  0.00000000E+00  0.00000000E+00  1.50000000E+00  1.50000000E+00
  0.00000000E+00  0.00000000E+00  1.00000000E+00  1.50000000E+00  1.50000000E+00
  0.00000000E+00  1.50000000E+00  1.50000000E+00  1.00000000E+00  0.00000000E+00
  1.50000000E+00  1.50000000E+00  1.00000000E+00  0.00000000E+00  1.50000000E+00
  1.50000000E+00  1.00000000E+00  0.00000000E+00  1.50000000E+00  1.50000000E+00
  1.00000000E+00  0.00000000E+00  1.00000000E+00  1.00000000E+00  1.00000000E+00
  1.00000000E+00  1.50000000E+00  1.50000000E+00  1.00000000E+00  0.00000000E+00
  1.50000000E+00  1.50000000E+00  1.00000000E+00  0.00000000E+00  1.50000000E+00
  1.50000000E+00  1.00000000E+00  0.00000000E+00  1.00000000E+00  0.00000000E+00
  0.00000000E+00  0.00000000E+00  1.00000000E+00  0.00000000E+00  0.00000000E+00
  0.00000000E+00  1.00000000E+00  0.00000000E+00  0.00000000E+00  0.00000000E+00
  1.00000000E+00  0.00000000E+00  0.00000000E+00  0.00000000E+00  1.00000000E+00
  0.00000000E+00  0.00000000E+00  0.00000000E+00  1.00000000E+00  0.00000000E+00
  0.00000000E+00  0.00000000E+00  1.00000000E+00  0.00000000E+00  0.00000000E+00
  0.00000000E+00  1.00000000E+00  0.00000000E+00  0.00000000E+00  0.00000000E+00
  1.00000000E+00  0.00000000E+00  0.00000000E+00  0.00000000E+00
Virial Ratio                               R      2.002525776265091E+00
SCF Energy                                 R     -5.093809122613078E+02
MP2 Energy                                 R     -5.110149195315400E+02
Total Energy                               R     -5.110149195315400E+02
Post-SCF wavefunction norm                 R      1.776151908875203E+00
RMS Force                                  R      1.470425917155118E-07
RMS Density                                R      1.487673927034659E-09
External E-field                           R   N=          35
  0.00000000E+00  0.00000000E+00  0.00000000E+00  0.00000000E+00  0.00000000E+00
  0.00000000E+00  0.00000000E+00  0.00000000E+00  0.00000000E+00  0.00000000E+00
  0.00000000E+00  0.00000000E+00  0.00000000E+00  0.00000000E+00  0.00000000E+00
  0.00000000E+00  0.00000000E+00  0.00000000E+00  0.00000000E+00  0.00000000E+00
  0.00000000E+00  0.00000000E+00  0.00000000E+00  0.00000000E+00  0.00000000E+00
  0.00000000E+00  0.00000000E+00  0.00000000E+00  0.00000000E+00  0.00000000E+00
  0.00000000E+00  0.00000000E+00  0.00000000E+00  0.00000000E+00  0.00000000E+00
IOpCl                                      I                0
IROHF                                      I                0
Alpha Orbital Energies                     R   N=         198
 -1.56459651E+01 -1.55818289E+01 -1.55731846E+01 -1.13274094E+01 -1.12844469E+01
 -1.12748103E+01 -1.12651722E+01 -1.12630772E+01 -1.12409134E+01 -1.12408643E+01
 -1.12240597E+01 -1.12189334E+01 -1.37882397E+00 -1.26602003E+00 -1.12510448E+00
 -1.09059504E+00 -1.05604387E+00 -1.02087096E+00 -9.59648740E-01 -8.71792569E-01
 -8.56540031E-01 -7.91219461E-01 -7.55190216E-01 -7.36650596E-01 -6.77363980E-01
 -6.59812742E-01 -6.34247785E-01 -6.28538364E-01 -6.02538512E-01 -5.89256679E-01
 -5.71321320E-01 -5.69589904E-01 -5.45596283E-01 -5.31361569E-01 -5.29605183E-01
 -5.24051733E-01 -4.51781749E-01 -4.28712451E-01 -3.95748056E-01 -3.76571268E-01
 -3.38986935E-01 -3.04574942E-01  1.07203017E-01  1.23664800E-01  2.03420494E-01
  2.33630350E-01  2.41310416E-01  2.63975646E-01  2.86590623E-01  2.91848908E-01
  3.07572592E-01  3.12417216E-01  3.19701217E-01  3.33296104E-01  3.50198194E-01
  3.63653259E-01  3.86037692E-01  4.05704201E-01  4.23661814E-01  4.34816531E-01
  4.52916189E-01  4.93520723E-01  5.03925493E-01  5.13534594E-01  5.35857419E-01
  6.07406181E-01  6.23962443E-01  6.71767775E-01  6.79213711E-01  7.29482205E-01
  7.33397384E-01  7.62072133E-01  7.71943804E-01  7.78864812E-01  7.82479233E-01