32834                                                                   
Freq      RMP2-FC                                                     6-31G(d)            
Number of atoms                            I               15
Info1-9                                    I   N=           9
          27          25        1002           0           0         100
           6           2           1
Charge                                     I                0
Multiplicity                               I                1
Number of electrons                        I               82
Number of alpha electrons                  I               41
Number of beta electrons                   I               41
Number of basis functions                  I              155
Number of independent functions            I              155
Number of point charges in /Mol/           I                0
Number of translation vectors              I                0
Atomic numbers                             I   N=          15
          17          17           6           6           6           6
           6           6           6           1           1           1
           1           1           1
Nuclear charges                            R   N=          15
  1.70000000E+01  1.70000000E+01  6.00000000E+00  6.00000000E+00  6.00000000E+00
  6.00000000E+00  6.00000000E+00  6.00000000E+00  6.00000000E+00  1.00000000E+00
  1.00000000E+00  1.00000000E+00  1.00000000E+00  1.00000000E+00  1.00000000E+00
Current cartesian coordinates              R   N=          45
  5.10383570E+00 -2.36011866E+00  3.18461862E-03 -5.10385475E+00 -2.36008597E+00
  3.18430133E-03  6.32088182E-06  3.25343640E+00 -3.21771963E-02 -2.28133839E+00
  1.91601271E+00 -1.79302455E-02  2.28134661E+00  1.91599738E+00 -1.79316744E-02
  3.32544964E-05  6.10006477E+00  2.47905907E-02  2.25468938E+00 -7.17718080E-01
 -4.93371283E-04 -2.25469652E+00 -7.17706660E-01 -4.93244434E-04 -8.96229454E-06
 -2.07919837E+00  1.19308007E-02 -4.07632349E+00  2.91512914E+00 -3.43603679E-02
  4.07633732E+00  2.91510521E+00 -3.43637977E-02  5.42984009E-04  6.79836635E+00
  1.97283017E+00  1.67335312E+00  6.85978815E+00 -9.18970133E-01 -1.67376219E+00
  6.85980422E+00 -9.18109873E-01 -1.39317842E-05 -4.13004343E+00  1.85284027E-02
Force Field                                I                0
Int Atom Types                             I   N=          15
           0           0           0           0           0           0
           0           0           0           0           0           0
           0           0           0
MM charges                                 R   N=          15
  0.00000000E+00  0.00000000E+00  0.00000000E+00  0.00000000E+00  0.00000000E+00
  0.00000000E+00  0.00000000E+00  0.00000000E+00  0.00000000E+00  0.00000000E+00
  0.00000000E+00  0.00000000E+00  0.00000000E+00  0.00000000E+00  0.00000000E+00
Integer atomic weights                     I   N=          15
          35          35          12          12          12          12
          12          12          12           1           1           1
           1           1           1
Real atomic weights                        R   N=          15
  3.49688527E+01  3.49688527E+01  1.20000000E+01  1.20000000E+01  1.20000000E+01
  1.20000000E+01  1.20000000E+01  1.20000000E+01  1.20000000E+01  1.00782504E+00
  1.00782504E+00  1.00782504E+00  1.00782504E+00  1.00782504E+00  1.00782504E+00
Atom fragment info                         I   N=          15
           0           0           0           0           0           0
           0           0           0           0           0           0
           0           0           0
Atom residue num                           I   N=          15
           0           0           0           0           0           0
           0           0           0           0           0           0
           0           0           0
Nuclear spins                              I   N=          15
           3           3           0           0           0           0
           0           0           0           1           1           1
           1           1           1
Nuclear ZEff                               R   N=          15
 -1.42400000E+01 -1.42400000E+01 -3.60000000E+00 -3.60000000E+00 -3.60000000E+00
 -3.60000000E+00 -3.60000000E+00 -3.60000000E+00 -3.60000000E+00 -1.00000000E+00
 -1.00000000E+00 -1.00000000E+00 -1.00000000E+00 -1.00000000E+00 -1.00000000E+00
Nuclear QMom                               R   N=          15
 -8.16500000E+00 -8.16500000E+00  0.00000000E+00  0.00000000E+00  0.00000000E+00
  0.00000000E+00  0.00000000E+00  0.00000000E+00  0.00000000E+00  0.00000000E+00
  0.00000000E+00  0.00000000E+00  0.00000000E+00  0.00000000E+00  0.00000000E+00
Nuclear GFac                               R   N=          15
  8.21874000E-01  8.21874000E-01  0.00000000E+00  0.00000000E+00  0.00000000E+00
  0.00000000E+00  0.00000000E+00  0.00000000E+00  0.00000000E+00  2.79284600E+00
  2.79284600E+00  2.79284600E+00  2.79284600E+00  2.79284600E+00  2.79284600E+00
MicOpt                                     I   N=          15
          -1          -1          -1          -1          -1          -1
          -1          -1          -1          -1          -1          -1
          -1          -1          -1
Number of contracted shells                I               50
Number of primitive shells                 I              135
Pure/Cartesian d shells                    I                1
Pure/Cartesian f shells                    I                0
Highest angular momentum                   I                2
Largest degree of contraction              I                6
Shell types                                I   N=          50
           0          -1          -1          -1           2           0
          -1          -1          -1           2           0          -1
          -1           2           0          -1          -1           2
           0          -1          -1           2           0          -1
          -1           2           0          -1          -1           2
           0          -1          -1           2           0          -1
          -1           2           0           0           0           0
           0           0           0           0           0           0
           0           0
Number of primitives per shell             I   N=          50
           6           6           3           1           1           6
           6           3           1           1           6           3
           1           1           6           3           1           1
           6           3           1           1           6           3
           1           1           6           3           1           1
           6           3           1           1           6           3
           1           1           3           1           3           1
           3           1           3           1           3           1
           3           1
Shell to atom map                          I   N=          50
           1           1           1           1           1           2
           2           2           2           2           3           3
           3           3           4           4           4           4
           5           5           5           5           6           6
           6           6           7           7           7           7
           8           8           8           8           9           9
           9           9          10          10          11          11
          12          12          13          13          14          14
          15          15
Primitive exponents                        R   N=         135
  2.51801000E+04  3.78035000E+03  8.60474000E+02  2.42145000E+02  7.73349000E+01
  2.62470000E+01  4.91765000E+02  1.16984000E+02  3.74153000E+01  1.37834000E+01
  5.45215000E+00  2.22588000E+00  3.18649000E+00  1.14427000E+00  4.20377000E-01
  1.42657000E-01  7.50000000E-01  2.51801000E+04  3.78035000E+03  8.60474000E+02
  2.42145000E+02  7.73349000E+01  2.62470000E+01  4.91765000E+02  1.16984000E+02
  3.74153000E+01  1.37834000E+01  5.45215000E+00  2.22588000E+00  3.18649000E+00
  1.14427000E+00  4.20377000E-01  1.42657000E-01  7.50000000E-01  3.04752488E+03
  4.57369518E+02  1.03948685E+02  2.92101553E+01  9.28666296E+00  3.16392696E+00
  7.86827235E+00  1.88128854E+00  5.44249258E-01  1.68714478E-01  8.00000000E-01
  3.04752488E+03  4.57369518E+02  1.03948685E+02  2.92101553E+01  9.28666296E+00
  3.16392696E+00  7.86827235E+00  1.88128854E+00  5.44249258E-01  1.68714478E-01
  8.00000000E-01  3.04752488E+03  4.57369518E+02  1.03948685E+02  2.92101553E+01
  9.28666296E+00  3.16392696E+00  7.86827235E+00  1.88128854E+00  5.44249258E-01
  1.68714478E-01  8.00000000E-01  3.04752488E+03  4.57369518E+02  1.03948685E+02
  2.92101553E+01  9.28666296E+00  3.16392696E+00  7.86827235E+00  1.88128854E+00
  5.44249258E-01  1.68714478E-01  8.00000000E-01  3.04752488E+03  4.57369518E+02
  1.03948685E+02  2.92101553E+01  9.28666296E+00  3.16392696E+00  7.86827235E+00
  1.88128854E+00  5.44249258E-01  1.68714478E-01  8.00000000E-01  3.04752488E+03
  4.57369518E+02  1.03948685E+02  2.92101553E+01  9.28666296E+00  3.16392696E+00
  7.86827235E+00  1.88128854E+00  5.44249258E-01  1.68714478E-01  8.00000000E-01
  3.04752488E+03  4.57369518E+02  1.03948685E+02  2.92101553E+01  9.28666296E+00
  3.16392696E+00  7.86827235E+00  1.88128854E+00  5.44249258E-01  1.68714478E-01
  8.00000000E-01  1.87311370E+01  2.82539436E+00  6.40121692E-01  1.61277759E-01
  1.87311370E+01  2.82539436E+00  6.40121692E-01  1.61277759E-01  1.87311370E+01
  2.82539436E+00  6.40121692E-01  1.61277759E-01  1.87311370E+01  2.82539436E+00
  6.40121692E-01  1.61277759E-01  1.87311370E+01  2.82539436E+00  6.40121692E-01
  1.61277759E-01  1.87311370E+01  2.82539436E+00  6.40121692E-01  1.61277759E-01
Contraction coefficients                   R   N=         135
  1.83295985E-03  1.40341988E-02  6.90973943E-02  2.37451980E-01  4.83033960E-01
  3.39855972E-01 -2.29739142E-03 -3.07137189E-02 -1.12528069E-01  4.50163278E-02
  5.89353363E-01  4.65206287E-01 -2.51828028E-01  6.15892514E-02  1.06018433E+00
  1.00000000E+00  1.00000000E+00  1.83295985E-03  1.40341988E-02  6.90973943E-02
  2.37451980E-01  4.83033960E-01  3.39855972E-01 -2.29739142E-03 -3.07137189E-02
 -1.12528069E-01  4.50163278E-02  5.89353363E-01  4.65206287E-01 -2.51828028E-01
  6.15892514E-02  1.06018433E+00  1.00000000E+00  1.00000000E+00  1.83473713E-03
  1.40373228E-02  6.88426223E-02  2.32184443E-01  4.67941348E-01  3.62311985E-01
 -1.19332420E-01 -1.60854152E-01  1.14345644E+00  1.00000000E+00  1.00000000E+00
  1.83473713E-03  1.40373228E-02  6.88426223E-02  2.32184443E-01  4.67941348E-01
  3.62311985E-01 -1.19332420E-01 -1.60854152E-01  1.14345644E+00  1.00000000E+00
  1.00000000E+00  1.83473713E-03  1.40373228E-02  6.88426223E-02  2.32184443E-01
  4.67941348E-01  3.62311985E-01 -1.19332420E-01 -1.60854152E-01  1.14345644E+00
  1.00000000E+00  1.00000000E+00  1.83473713E-03  1.40373228E-02  6.88426223E-02
  2.32184443E-01  4.67941348E-01  3.62311985E-01 -1.19332420E-01 -1.60854152E-01
  1.14345644E+00  1.00000000E+00  1.00000000E+00  1.83473713E-03  1.40373228E-02
  6.88426223E-02  2.32184443E-01  4.67941348E-01  3.62311985E-01 -1.19332420E-01
 -1.60854152E-01  1.14345644E+00  1.00000000E+00  1.00000000E+00  1.83473713E-03
  1.40373228E-02  6.88426223E-02  2.32184443E-01  4.67941348E-01  3.62311985E-01
 -1.19332420E-01 -1.60854152E-01  1.14345644E+00  1.00000000E+00  1.00000000E+00
  1.83473713E-03  1.40373228E-02  6.88426223E-02  2.32184443E-01  4.67941348E-01
  3.62311985E-01 -1.19332420E-01 -1.60854152E-01  1.14345644E+00  1.00000000E+00
  1.00000000E+00  3.34946043E-02  2.34726953E-01  8.13757326E-01  1.00000000E+00
  3.34946043E-02  2.34726953E-01  8.13757326E-01  1.00000000E+00  3.34946043E-02
  2.34726953E-01  8.13757326E-01  1.00000000E+00  3.34946043E-02  2.34726953E-01
  8.13757326E-01  1.00000000E+00  3.34946043E-02  2.34726953E-01  8.13757326E-01
  1.00000000E+00  3.34946043E-02  2.34726953E-01  8.13757326E-01  1.00000000E+00
P(S=P) Contraction coefficients            R   N=         135
  0.00000000E+00  0.00000000E+00  0.00000000E+00  0.00000000E+00  0.00000000E+00
  0.00000000E+00  3.98940088E-03  3.03177067E-02  1.29880029E-01  3.27951072E-01
  4.53527100E-01  2.52154056E-01 -1.42993147E-02  3.23572333E-01  7.43507765E-01
  1.00000000E+00  0.00000000E+00  0.00000000E+00  0.00000000E+00  0.00000000E+00
  0.00000000E+00  0.00000000E+00  0.00000000E+00  3.98940088E-03  3.03177067E-02
  1.29880029E-01  3.27951072E-01  4.53527100E-01  2.52154056E-01 -1.42993147E-02
  3.23572333E-01  7.43507765E-01  1.00000000E+00  0.00000000E+00  0.00000000E+00
  0.00000000E+00  0.00000000E+00  0.00000000E+00  0.00000000E+00  0.00000000E+00
  6.89990666E-02  3.16423961E-01  7.44308291E-01  1.00000000E+00  0.00000000E+00
  0.00000000E+00  0.00000000E+00  0.00000000E+00  0.00000000E+00  0.00000000E+00
  0.00000000E+00  6.89990666E-02  3.16423961E-01  7.44308291E-01  1.00000000E+00
  0.00000000E+00  0.00000000E+00  0.00000000E+00  0.00000000E+00  0.00000000E+00
  0.00000000E+00  0.00000000E+00  6.89990666E-02  3.16423961E-01  7.44308291E-01
  1.00000000E+00  0.00000000E+00  0.00000000E+00  0.00000000E+00  0.00000000E+00
  0.00000000E+00  0.00000000E+00  0.00000000E+00  6.89990666E-02  3.16423961E-01
  7.44308291E-01  1.00000000E+00  0.00000000E+00  0.00000000E+00  0.00000000E+00
  0.00000000E+00  0.00000000E+00  0.00000000E+00  0.00000000E+00  6.89990666E-02
  3.16423961E-01  7.44308291E-01  1.00000000E+00  0.00000000E+00  0.00000000E+00
  0.00000000E+00  0.00000000E+00  0.00000000E+00  0.00000000E+00  0.00000000E+00
  6.89990666E-02  3.16423961E-01  7.44308291E-01  1.00000000E+00  0.00000000E+00
  0.00000000E+00  0.00000000E+00  0.00000000E+00  0.00000000E+00  0.00000000E+00
  0.00000000E+00  6.89990666E-02  3.16423961E-01  7.44308291E-01  1.00000000E+00
  0.00000000E+00  0.00000000E+00  0.00000000E+00  0.00000000E+00  0.00000000E+00
  0.00000000E+00  0.00000000E+00  0.00000000E+00  0.00000000E+00  0.00000000E+00
  0.00000000E+00  0.00000000E+00  0.00000000E+00  0.00000000E+00  0.00000000E+00
  0.00000000E+00  0.00000000E+00  0.00000000E+00  0.00000000E+00  0.00000000E+00
  0.00000000E+00  0.00000000E+00  0.00000000E+00  0.00000000E+00  0.00000000E+00
Coordinates of each shell                  R   N=         150
  5.10383570E+00 -2.36011866E+00  3.18461862E-03  5.10383570E+00 -2.36011866E+00
  3.18461862E-03  5.10383570E+00 -2.36011866E+00  3.18461862E-03  5.10383570E+00
 -2.36011866E+00  3.18461862E-03  5.10383570E+00 -2.36011866E+00  3.18461862E-03
 -5.10385475E+00 -2.36008597E+00  3.18430133E-03 -5.10385475E+00 -2.36008597E+00
  3.18430133E-03 -5.10385475E+00 -2.36008597E+00  3.18430133E-03 -5.10385475E+00
 -2.36008597E+00  3.18430133E-03 -5.10385475E+00 -2.36008597E+00  3.18430133E-03
  6.32088182E-06  3.25343640E+00 -3.21771963E-02  6.32088182E-06  3.25343640E+00
 -3.21771963E-02  6.32088182E-06  3.25343640E+00 -3.21771963E-02  6.32088182E-06
  3.25343640E+00 -3.21771963E-02 -2.28133839E+00  1.91601271E+00 -1.79302455E-02
 -2.28133839E+00  1.91601271E+00 -1.79302455E-02 -2.28133839E+00  1.91601271E+00
 -1.79302455E-02 -2.28133839E+00  1.91601271E+00 -1.79302455E-02  2.28134661E+00
  1.91599738E+00 -1.79316744E-02  2.28134661E+00  1.91599738E+00 -1.79316744E-02
  2.28134661E+00  1.91599738E+00 -1.79316744E-02  2.28134661E+00  1.91599738E+00
 -1.79316744E-02  3.32544964E-05  6.10006477E+00  2.47905907E-02  3.32544964E-05
  6.10006477E+00  2.47905907E-02  3.32544964E-05  6.10006477E+00  2.47905907E-02
  3.32544964E-05  6.10006477E+00  2.47905907E-02  2.25468938E+00 -7.17718080E-01
 -4.93371283E-04  2.25468938E+00 -7.17718080E-01 -4.93371283E-04  2.25468938E+00
 -7.17718080E-01 -4.93371283E-04  2.25468938E+00 -7.17718080E-01 -4.93371283E-04
 -2.25469652E+00 -7.17706660E-01 -4.93244434E-04 -2.25469652E+00 -7.17706660E-01
 -4.93244434E-04 -2.25469652E+00 -7.17706660E-01 -4.93244434E-04 -2.25469652E+00
 -7.17706660E-01 -4.93244434E-04 -8.96229454E-06 -2.07919837E+00  1.19308007E-02
 -8.96229454E-06 -2.07919837E+00  1.19308007E-02 -8.96229454E-06 -2.07919837E+00
  1.19308007E-02 -8.96229454E-06 -2.07919837E+00  1.19308007E-02 -4.07632349E+00
  2.91512914E+00 -3.43603679E-02 -4.07632349E+00  2.91512914E+00 -3.43603679E-02
  4.07633732E+00  2.91510521E+00 -3.43637977E-02  4.07633732E+00  2.91510521E+00
 -3.43637977E-02  5.42984009E-04  6.79836635E+00  1.97283017E+00  5.42984009E-04
  6.79836635E+00  1.97283017E+00  1.67335312E+00  6.85978815E+00 -9.18970133E-01
  1.67335312E+00  6.85978815E+00 -9.18970133E-01 -1.67376219E+00  6.85980422E+00
 -9.18109873E-01 -1.67376219E+00  6.85980422E+00 -9.18109873E-01 -1.39317842E-05
 -4.13004343E+00  1.85284027E-02 -1.39317842E-05 -4.13004343E+00  1.85284027E-02
Constraint Structure                       R   N=          45
  5.10383570E+00 -2.36011866E+00  3.18461862E-03 -5.10385475E+00 -2.36008597E+00
  3.18430133E-03  6.32088182E-06  3.25343640E+00 -3.21771963E-02 -2.28133839E+00
  1.91601271E+00 -1.79302455E-02  2.28134661E+00  1.91599738E+00 -1.79316744E-02
  3.32544964E-05  6.10006477E+00  2.47905907E-02  2.25468938E+00 -7.17718080E-01
 -4.93371283E-04 -2.25469652E+00 -7.17706660E-01 -4.93244434E-04 -8.96229454E-06
 -2.07919837E+00  1.19308007E-02 -4.07632349E+00  2.91512914E+00 -3.43603679E-02
  4.07633732E+00  2.91510521E+00 -3.43637977E-02  5.42984009E-04  6.79836635E+00
  1.97283017E+00  1.67335312E+00  6.85978815E+00 -9.18970133E-01 -1.67376219E+00
  6.85980422E+00 -9.18109873E-01 -1.39317842E-05 -4.13004343E+00  1.85284027E-02
Num ILSW                                   I              100
ILSW                                       I   N=         100
           0           1           0           1           2           0
           0           0           0           0           0          -1
           0           0           0           0           0           0
           0           0           0           0           1           0
           1           0           0           0           0           0
           0           0      100000           0          -1           0
           0           0           0           0           0           0
           0           0           0           1           1           0
           0           0           1           0           0           0
           0           0           4          40           0           0
           0           0           0           0           0           0
           0           0           0           0           0           0
           0           0           0           0           0           0
           0           0           0           0           0           0
           0           0           0           0           0           0
           0           0           0           0           0           0
           0           0           0           0
Num RLSW                                   I               40
RLSW                                       R   N=          40
  1.00000000E+00  1.00000000E+00  1.00000000E+00  1.00000000E+00  1.00000000E+00
  0.00000000E+00  0.00000000E+00  1.00000000E+00  0.00000000E+00  0.00000000E+00
  0.00000000E+00  0.00000000E+00  1.00000000E+00  0.00000000E+00  0.00000000E+00
  0.00000000E+00  0.00000000E+00  1.00000000E+00  0.00000000E+00  0.00000000E+00
  0.00000000E+00  0.00000000E+00  1.00000000E+00  0.00000000E+00  0.00000000E+00
  0.00000000E+00  0.00000000E+00  1.00000000E+00  0.00000000E+00  0.00000000E+00
  0.00000000E+00  0.00000000E+00  0.00000000E+00  0.00000000E+00  0.00000000E+00
  0.00000000E+00  0.00000000E+00  0.00000000E+00  1.00000000E+00  1.00000000E+00
MxBond                                     I                4
NBond                                      I   N=          15
           1           1           3           3           3           4
           3           3           3           1           1           1
           1           1           1
IBond                                      I   N=          60
           7           0           0           0           8           0
           0           0           4           5           6           0
           3           8          10           0           3           7
          11           0           3          12          13          14
           1           5           9           0           2           4
           9           0           7           8          15           0
           4           0           0           0           5           0
           0           0           6           0           0           0
           6           0           0           0           6           0
           0           0           9           0           0           0
RBond                                      R   N=          60
  1.00000000E+00  0.00000000E+00  0.00000000E+00  0.00000000E+00  1.00000000E+00
  0.00000000E+00  0.00000000E+00  0.00000000E+00  1.50000000E+00  1.50000000E+00
  1.00000000E+00  0.00000000E+00  1.50000000E+00  1.50000000E+00  1.00000000E+00
  0.00000000E+00  1.50000000E+00  1.50000000E+00  1.00000000E+00  0.00000000E+00
  1.00000000E+00  1.00000000E+00  1.00000000E+00  1.00000000E+00  1.00000000E+00
  1.50000000E+00  1.50000000E+00  0.00000000E+00  1.00000000E+00  1.50000000E+00
  1.50000000E+00  0.00000000E+00  1.50000000E+00  1.50000000E+00  1.00000000E+00
  0.00000000E+00  1.00000000E+00  0.00000000E+00  0.00000000E+00  0.00000000E+00
  1.00000000E+00  0.00000000E+00  0.00000000E+00  0.00000000E+00  1.00000000E+00
  0.00000000E+00  0.00000000E+00  0.00000000E+00  1.00000000E+00  0.00000000E+00
  0.00000000E+00  0.00000000E+00  1.00000000E+00  0.00000000E+00  0.00000000E+00
  0.00000000E+00  1.00000000E+00  0.00000000E+00  0.00000000E+00  0.00000000E+00
Virial Ratio                               R      2.000775139581288E+00
SCF Energy                                 R     -1.187537900779238E+03
MP2 Energy                                 R     -1.188693657664475E+03
Total Energy                               R     -1.188693657664475E+03
Post-SCF wavefunction norm                 R      1.688819441593047E+00
RMS Force                                  R      1.301667688198935E-06
RMS Density                                R      1.397419059234044E-09
External E-field                           R   N=          35
  0.00000000E+00  0.00000000E+00  0.00000000E+00  0.00000000E+00  0.00000000E+00
  0.00000000E+00  0.00000000E+00  0.00000000E+00  0.00000000E+00  0.00000000E+00
  0.00000000E+00  0.00000000E+00  0.00000000E+00  0.00000000E+00  0.00000000E+00
  0.00000000E+00  0.00000000E+00  0.00000000E+00  0.00000000E+00  0.00000000E+00
  0.00000000E+00  0.00000000E+00  0.00000000E+00  0.00000000E+00  0.00000000E+00
  0.00000000E+00  0.00000000E+00  0.00000000E+00  0.00000000E+00  0.00000000E+00
  0.00000000E+00  0.00000000E+00  0.00000000E+00  0.00000000E+00  0.00000000E+00
IOpCl                                      I                0
IROHF                                      I                0
Alpha Orbital Energies                     R   N=         155
 -1.04834184E+02 -1.04834184E+02 -1.13188010E+01 -1.13187906E+01 -1.12717278E+01
 -1.12637530E+01 -1.12579688E+01 -1.12579133E+01 -1.12425732E+01 -1.05675936E+01
 -1.05675929E+01 -8.03700206E+00 -8.03700109E+00 -8.03361515E+00 -8.03361064E+00
 -8.03359169E+00 -8.03359124E+00 -1.21164155E+00 -1.16046415E+00 -1.11774248E+00
 -1.04289475E+00 -9.97388733E-01 -9.58468778E-01 -8.22152248E-01 -8.15269057E-01
 -7.07090685E-01 -6.80761141E-01 -6.26107188E-01 -5.97313027E-01 -5.94174299E-01
 -5.93669588E-01 -5.63748722E-01 -5.53710106E-01 -5.24860162E-01 -5.16834202E-01
 -5.07638240E-01 -4.64188512E-01 -4.55863049E-01 -4.49291505E-01 -3.43763020E-01
 -3.40005964E-01  1.14476324E-01  1.17374780E-01  1.74348278E-01  2.26331782E-01
  2.38163644E-01  2.81720255E-01  2.93668936E-01  3.04129140E-01  3.05282671E-01
  3.21742437E-01  3.55493422E-01  3.89523396E-01  3.99601862E-01  4.53117755E-01
  4.77658302E-01  4.86412062E-01  5.33730447E-01  5.62527056E-01  5.93356683E-01
  6.00334858E-01  6.25560718E-01  6.35663263E-01  6.42428852E-01  6.61205197E-01
  6.90207105E-01  6.98818271E-01  7.27038752E-01  7.58411831E-01  7.64094833E-01
  7.67219963E-01  7.76483868E-01  8.23795151E-01  8.30128827E-01  8.57006859E-01
  8.61719112E-01  8.85387021E-01  9.26046311E-01  9.35543196E-01  9.68341842E-01
  9.88347086E-01  9.96643452E-01  1.04933110E+00  1.07037565E+00  1.07773506E+00
  1.08174584E+00  1.10153512E+00  1.12830411E+00  1.13827138E+00  1.14056363E+00
  1.14889819E+00  1.15535172E+00  1.17555800E+00  1.18295944E+00  1.18825457E+00
  1.21952190E+00  1.23020192E+00  1.25932210E+00  1.26348477E+00  1.34547424E+00
  1.37008940E+00  1.38205244E+00  1.41027949E+00  1.42574524E+00  1.46072729E+00
  1.47842529E+00  1.58502511E+00  1.58810679E+00  1.63208114E+00  1.65116730E+00
  1.68195230E+00  1.72268324E+00  1.73749674E+00  1.74651176E+00  1.79423932E+00
  1.85302811E+00  2.03182095E+00  2.08647156E+00  2.10114093E+00  2.15537103E+00
  2.17688003E+00  2.18200526E+00  2.25886583E+00  2.26924664E+00  2.35625734E+00
  2.39574669E+00  2.42036605E+00  2.42772374E+00  2.45578080E+00  2.48179649E+00
  2.56783201E+00  2.56899009E+00  2.60038317E+00  2.64762385E+00  2.67474462E+00
  2.73256004E+00  2.85793962E+00  2.92041002E+00  2.96725801E+00  3.04101042E+00
  3.04292349E+00  3.09859678E+00  3.14008749E+00  3.20352214E+00  3.40326557E+00
  3.70860901E+00  4.46768185E+00  4.47585289E+00  4.51598679E+00  4.63626458E+00
  4.66211180E+00  4.70784503E+00  4.79932482E+00  4.81408558E+00  5.09529976E+00
Alpha MO coefficients                      R   N=       24025
  9.14686183E-01  1.34471027E-02 -4.78631539E-05  2.76095597E-05 -6.07983343E-08
 -1.62861901E-02  4.78297368E-05 -2.76140101E-05  8.12350806E-08  1.32069292E-03
 -3.96321849E-05  2.06999495E-05 -9.29400616E-08  5.75361253E-03  5.75213305E-03
  5.74783099E-03 -6.25404097E-07 -5.89323652E-09 -3.52197794E-08  3.94459055E-01
  5.79907846E-03  2.01556463E-05  1.15947784E-05 -2.82024907E-08 -7.02543252E-03
 -1.76846858E-05 -1.02788102E-05  4.49425106E-08  5.86315213E-04  2.72295405E-05
  1.07239775E-05 -2.43679226E-08  2.48403655E-03  2.48032411E-03  2.47897611E-03
  1.72858183E-06  7.98335964E-09 -5.27278225E-09 -3.54861285E-08  2.91735391E-06
 -6.19034149E-07  1.03355294E-05 -1.34217516E-08 -1.58877196E-04 -3.15939083E-05
 -4.69932712E-05 -1.37871208E-06  7.61039132E-06 -6.97631068E-06 -3.02875294E-06
  2.16774642E-07 -5.26220041E-09 -2.39205152E-07 -7.72547196E-07  5.71505722E-06
 -2.06766795E-06  2.91239683E-06 -7.76566882E-09  1.74670439E-06  4.08962347E-05
  2.75142733E-05  2.85351496E-07 -4.40379609E-06 -1.13006000E-05 -4.19020472E-06
 -8.13605150E-06  1.13951253E-07  4.35654942E-08 -1.65090421E-06  8.24998146E-06
 -9.32175004E-07  3.05087519E-06  1.21975840E-08  9.34733148E-05 -1.09474721E-04
  5.22388751E-05  4.36486729E-08 -5.23309525E-06 -2.09296628E-05 -8.67526564E-06
  1.89542553E-05 -1.68864753E-07  4.36535172E-08 -5.63879879E-07 -5.35439391E-06
  1.29136523E-07 -4.53496051E-06 -1.47000372E-07  6.26485820E-05  3.24758279E-06
 -3.25221345E-05 -6.02872644E-07 -1.87224469E-06  5.11276071E-06  3.15071103E-07
 -3.21810317E-07 -2.13062781E-07  9.44049328E-08  5.71375616E-06  7.85626892E-05
  2.72833381E-05 -1.47429956E-05  1.39298457E-09 -1.35513338E-04  1.34372210E-04
 -5.04801578E-05  6.31779921E-08 -2.10390605E-05  1.57951897E-05 -4.29252686E-06
  3.62090956E-05 -2.01199615E-07 -2.22015304E-07  2.15269838E-06  3.34426652E-05
 -1.77140392E-05 -8.19691284E-06  4.77267923E-09 -1.30292436E-04 -6.73362283E-05
  2.35023610E-05 -4.27811254E-07 -1.03470440E-05  9.62769866E-06 -4.37123122E-06
 -1.83736715E-05  9.58330987E-08 -1.51502221E-07 -2.19166815E-06  1.00905596E-05
 -2.04576421E-06  9.20518620E-07  5.18866543E-09  1.58193441E-04 -5.46111864E-05
  1.11699329E-04 -6.14151301E-07 -4.26866953E-05  9.34164353E-06 -1.19359151E-05
  4.36715060E-07  3.58620300E-08 -1.78319878E-07  5.46738092E-06 -1.03628300E-05
  1.01881140E-05 -2.08236444E-05 -2.03743720E-06  4.78712731E-07 -3.14880430E-06
  1.87638663E-06 -2.19032447E-06  1.22322042E-06  1.43807326E-05 -2.39058349E-05
 -3.94459138E-01 -5.79906482E-03  2.13483034E-05 -1.23607961E-05  2.33238888E-08
  7.02051604E-03 -2.49128456E-05  1.42828207E-05 -2.05889804E-08 -5.45123933E-04
  2.32106763E-06 -6.30832673E-06  6.29605213E-08 -2.47718937E-03 -2.48103042E-03
 -2.47843615E-03 -1.85583023E-06 -5.38432393E-09  2.96339991E-08  9.14686219E-01
  1.34470968E-02  4.83777387E-05  2.79394910E-05 -5.86823393E-08 -1.62840699E-02
 -5.09470609E-05 -2.93403305E-05  7.07186828E-08  1.30292940E-03  2.88906627E-05
  1.87954952E-05 -1.09556926E-07  5.75065973E-03  5.75243764E-03  5.74759812E-03
 -9.20357690E-07  1.32397462E-10 -4.57215049E-08 -1.41176708E-08  1.15922380E-06
  1.55795648E-06  4.10708249E-06 -5.32128076E-09 -6.31337006E-05  7.95004952E-05
 -1.86737031E-05 -5.47926866E-07  3.02422445E-06 -2.77225600E-06 -1.20359506E-06
 -5.45643086E-07  1.32240990E-08 -9.50394273E-08 -1.58668724E-06  5.96451817E-06
  3.54893451E-06  1.35891225E-06  2.59571355E-08  1.34329518E-04  1.16163870E-04
  4.69553900E-05 -2.38627083E-07 -2.95851163E-06 -1.85194509E-05 -8.19954920E-06
 -1.89946167E-05  1.25271436E-07  1.74376931E-08  6.23647757E-07 -4.15096167E-07
  4.00014251E-06  1.01073475E-06 -2.42091639E-08 -9.64908581E-05  5.64096796E-05
 -1.52638931E-05  3.69399161E-07 -8.71177975E-07  5.71194626E-06  3.08703287E-06
 -8.22942154E-06  1.28980157E-08  1.72269583E-08 -2.23898072E-07 -2.12731870E-06
 -3.25792338E-07 -1.80192967E-06 -5.83697890E-08  2.48905598E-05 -8.16972244E-06
 -1.29239092E-05 -2.39751566E-07 -7.43217159E-07  2.03212232E-06  1.25226931E-07